 Gaussian 16, Revision A.03,

 -----------------------------------------------------------
 # opt freq B3LYP/6-31G(d) empiricaldispersion=gd3bj scf=xqc
 -----------------------------------------------------------

 -------------------------------
 CID_144623759_JID_1067_neutraal
 -------------------------------
 Symbolic Z-matrix:
 Charge =  0 Multiplicity = 1

 SCF Done:  E(RB3LYP) =  -442.404014211     A.U. after   16 cycles
 SCF Done:  E(RB3LYP) =  -442.429850710     A.U. after   13 cycles
 SCF Done:  E(RB3LYP) =  -442.431933572     A.U. after   13 cycles
 SCF Done:  E(RB3LYP) =  -442.432573180     A.U. after   13 cycles
 SCF Done:  E(RB3LYP) =  -442.432698514     A.U. after   12 cycles
 SCF Done:  E(RB3LYP) =  -442.432720141     A.U. after   11 cycles
 SCF Done:  E(RB3LYP) =  -442.432731249     A.U. after   10 cycles
 SCF Done:  E(RB3LYP) =  -442.432733405     A.U. after    9 cycles
 SCF Done:  E(RB3LYP) =  -442.432734465     A.U. after    8 cycles
 SCF Done:  E(RB3LYP) =  -442.432734998     A.U. after    8 cycles
 SCF Done:  E(RB3LYP) =  -442.432735126     A.U. after    7 cycles
 Optimization completed.
    -- Stationary point found.
 Normal termination of Gaussian 16 at Tue Dec  8 19:11:19 2020.

 --------------------------------------------------------------------
 #N Geom=AllCheck Guess=TCheck SCRF=Check GenChk RB3LYP/6-31G(d) Freq
 --------------------------------------------------------------------

 Structure from the checkpoint file:  "JID_1067.chk"
 -------------------------------
 CID_144623759_JID_1067_neutraal
 -------------------------------
 Charge =  0 Multiplicity = 1

 SCF Done:  E(RB3LYP) =  -442.432735126     A.U. after    1 cycles

  Exact polarizability: 230.090  -6.815  99.683   0.694  -1.324  55.887
 Approx polarizability: 363.131 -17.352 167.886   2.019  -3.532  84.311

                      1                      2                      3
                      A                      A                      A
 Frequencies --     50.6845               106.1510               123.7607
 Red. masses --      4.8986                 4.7385                 1.7378
 Frc consts  --      0.0074                 0.0315                 0.0157
 IR Inten    --      1.2924                 2.9377                 1.6863

                      4                      5                      6
                      A                      A                      A
 Frequencies --    144.1930               183.1556               204.0937
 Red. masses --      2.2439                 4.1052                 2.2325
 Frc consts  --      0.0275                 0.0811                 0.0548
 IR Inten    --      1.5323                 4.4200                 1.6817

                      7                      8                      9
                      A                      A                      A
 Frequencies --    212.9870               291.0251               310.9174
 Red. masses --      1.4689                 3.6832                 4.9924
 Frc consts  --      0.0393                 0.1838                 0.2843
 IR Inten    --      0.0086                 1.1146                 0.1208

                     10                     11                     12
                      A                      A                      A
 Frequencies --    395.4291               419.2990               483.3149
 Red. masses --      3.5237                 2.3221                 4.6169
 Frc consts  --      0.3246                 0.2405                 0.6354
 IR Inten    --      0.0064                 1.2640                 1.2772

                     13                     14                     15
                      A                      A                      A
 Frequencies --    527.3311               547.6723               570.4055
 Red. masses --      4.3183                 2.8392                 4.9836
 Frc consts  --      0.7075                 0.5017                 0.9553
 IR Inten    --      7.0165                 0.6387                 6.7351

                     16                     17                     18
                      A                      A                      A
 Frequencies --    604.4077               722.8257               774.0995
 Red. masses --      5.0498                 4.4636                 1.8717
 Frc consts  --      1.0869                 1.3740                 0.6608
 IR Inten    --      0.8438                 4.4057                 1.5918

                     19                     20                     21
                      A                      A                      A
 Frequencies --    787.8659               813.4863               887.3908
 Red. masses --      3.3218                 1.5208                 1.4177
 Frc consts  --      1.2149                 0.5930                 0.6578
 IR Inten    --      3.2053                 8.6182                17.2379

                     22                     23                     24
                      A                      A                      A
 Frequencies --    951.7465               960.6427               985.3223
 Red. masses --      1.4938                 1.6517                 2.6205
 Frc consts  --      0.7972                 0.8980                 1.4990
 IR Inten    --      2.0350                17.4966                 0.1843

                     25                     26                     27
                      A                      A                      A
 Frequencies --   1008.5366              1023.6446              1056.7134
 Red. masses --      1.1414                 2.2212                 2.0283
 Frc consts  --      0.6840                 1.3713                 1.3344
 IR Inten    --     26.8571                 1.1865                 1.8832

                     28                     29                     30
                      A                      A                      A
 Frequencies --   1071.8638              1105.2993              1139.9079
 Red. masses --      1.5354                 1.8685                 2.2061
 Frc consts  --      1.0393                 1.3449                 1.6890
 IR Inten    --      0.0062                11.5233                 2.4070

                     31                     32                     33
                      A                      A                      A
 Frequencies --   1181.5341              1209.8894              1253.9273
 Red. masses --      2.3901                 1.2522                 1.9208
 Frc consts  --      1.9659                 1.0800                 1.7794
 IR Inten    --      2.6354                 7.6224                 5.0222

                     34                     35                     36
                      A                      A                      A
 Frequencies --   1287.9001              1329.2111              1344.6100
 Red. masses --      1.4196                 1.5565                 1.2809
 Frc consts  --      1.3873                 1.6202                 1.3644
 IR Inten    --      8.4811                 5.3457                 0.6119

                     37                     38                     39
                      A                      A                      A
 Frequencies --   1362.4931              1374.9170              1408.1769
 Red. masses --      1.3815                 1.4659                 1.9075
 Frc consts  --      1.5110                 1.6327                 2.2286
 IR Inten    --      3.5495                 9.4513                 2.5575

                     40                     41                     42
                      A                      A                      A
 Frequencies --   1433.0174              1442.9983              1499.3427
 Red. masses --      1.8100                 1.3621                 1.0800
 Frc consts  --      2.1899                 1.6711                 1.4304
 IR Inten    --      6.2830                 0.9072                 2.6375

                     43                     44                     45
                      A                      A                      A
 Frequencies --   1506.0980              1508.9862              1518.0605
 Red. masses --      1.0453                 1.1039                 1.0635
 Frc consts  --      1.3970                 1.4810                 1.4440
 IR Inten    --      6.7025                 2.2713                12.7816

                     46                     47                     48
                      A                      A                      A
 Frequencies --   1609.7361              1682.3667              1718.8468
 Red. masses --      6.6688                 5.2323                 5.2405
 Frc consts  --     10.1815                 8.7255                 9.1222
 IR Inten    --    123.7089                 0.6396                20.4491

                     49                     50                     51
                      A                      A                      A
 Frequencies --   2324.2799              3011.1972              3022.7035
 Red. masses --     12.6685                 1.0737                 1.0691
 Frc consts  --     40.3228                 5.7359                 5.7551
 IR Inten    --     94.8559                 7.1215                36.8780

                     52                     53                     54
                      A                      A                      A
 Frequencies --   3030.8421              3075.5114              3107.0739
 Red. masses --      1.0379                 1.0996                 1.0901
 Frc consts  --      5.6172                 6.1279                 6.2005
 IR Inten    --     43.6781                20.4815                17.0700

                     55                     56                     57
                      A                      A                      A
 Frequencies --   3108.7030              3122.1419              3143.4855
 Red. masses --      1.0918                 1.0996                 1.0890
 Frc consts  --      6.2164                 6.3152                 6.3402
 IR Inten    --     14.6804                11.7826                20.5478

                     58                     59                     60
                      A                      A                      A
 Frequencies --   3172.9744              3186.0114              3208.0523
 Red. masses --      1.0874                 1.0888                 1.0928
 Frc consts  --      6.4504                 6.5117                 6.6262
 IR Inten    --     23.5223                23.7958                11.8100

 - Thermochemistry -
 -------------------
 Temperature   298.150 Kelvin.  Pressure   1.00000 Atm.
 Atom     1 has atomic number  6 and mass  12.00000

 Molecular mass:   145.08915 amu.
 Principal axes and moments of inertia in atomic units:
                           1         2         3
     Eigenvalues --   415.130903916.642524272.75248
           X            1.00000  -0.00268   0.00131
           Y            0.00268   1.00000  -0.00082
           Z           -0.00131   0.00082   1.00000
 This molecule is an asymmetric top.
 Rotational symmetry number  1.
 Rotational temperatures (Kelvin)      0.20864     0.02211     0.02027
 Rotational constants (GHZ):           4.34740     0.46079     0.42238
 Zero-point vibrational energy     482389.7 (Joules/Mol)
                                  115.29391 (Kcal/Mol)
 Warning -- explicit consideration of  16 degrees of freedom as
           vibrations may cause significant error
 Vibrational temperatures:     72.92   152.73   178.06   207.46   263.52
          (Kelvin)            293.65   306.44   418.72   447.34   568.93
                              603.28   695.38   758.71   787.98   820.69
                              869.61  1039.98  1113.76  1133.56  1170.43
                             1276.76  1369.35  1382.15  1417.66  1451.06
                             1472.80  1520.37  1542.17  1590.28  1640.07
                             1699.96  1740.76  1804.12  1853.00  1912.44
                             1934.59  1960.32  1978.20  2026.05  2061.79
                             2076.15  2157.22  2166.94  2171.09  2184.15
                             2316.05  2420.55  2473.04  3344.12  4332.44
                             4349.00  4360.71  4424.97  4470.39  4472.73
                             4492.07  4522.77  4565.20  4583.96  4615.67

 Zero-point correction=                           0.183733 (Hartree/Particle)
 Thermal correction to Energy=                    0.194402
 Thermal correction to Enthalpy=                  0.195346
 Thermal correction to Gibbs Free Energy=         0.147294
 Sum of electronic and zero-point Energies=           -442.249003
 Sum of electronic and thermal Energies=              -442.238333
 Sum of electronic and thermal Enthalpies=            -442.237389
 Sum of electronic and thermal Free Energies=         -442.285441

                     E (Thermal)             CV                S
                      KCal/Mol        Cal/Mol-Kelvin    Cal/Mol-Kelvin
 Total                  121.989             39.592            101.134
 Electronic               0.000              0.000              0.000
 Translational            0.889              2.981             40.827
 Rotational               0.889              2.981             30.320
 Vibrational            120.211             33.630             29.987
 Vibration     1          0.595              1.977              4.790
 Vibration     2          0.605              1.944              3.338
 Vibration     3          0.610              1.929              3.041
 Vibration     4          0.616              1.909              2.747
 Vibration     5          0.631              1.863              2.296
 Vibration     6          0.640              1.834              2.096
 Vibration     7          0.644              1.821              2.018
 Vibration     8          0.687              1.690              1.468
 Vibration     9          0.700              1.653              1.357
 Vibration    10          0.762              1.480              0.980
 Vibration    11          0.782              1.428              0.894
 Vibration    12          0.839              1.287              0.701
 Vibration    13          0.882              1.190              0.593
 Vibration    14          0.903              1.145              0.549
 Vibration    15          0.927              1.095              0.503
 Vibration    16          0.963              1.022              0.442

                           ! Non-Optimized Parameters !
 Normal termination of Gaussian 16 at Tue Dec  8 19:15:00 2020.

 ----------------------------------------------------------------------
 # B3LYP/6-311++G(d,p) empiricaldispersion=gd3bj scf=xqc pop=npa geom=c
 heck
 ----------------------------------------------------------------------

 ---------------------------------------
 CID_144623759_JID_1067_Energie_neutraal
 ---------------------------------------
 Structure from the checkpoint file:  "JID_1067.chk"
 Charge =  0 Multiplicity = 1

 SCF Done:  E(RB3LYP) =  -442.550575632     A.U. after   16 cycles
 Normal termination of Gaussian 16 at Tue Dec  8 19:16:44 2020.

 ----------------------------------------------------------------------
 # B3LYP/6-311++G(d,p) empiricaldispersion=gd3bj scf=xqc pop=npa geom=c
 heck
 ----------------------------------------------------------------------

 -------------------------------------
 CID_144623759_JID_1067_Energie_kation
 -------------------------------------
 Structure from the checkpoint file:  "JID_1067.chk"
 Charge =  1 Multiplicity = 2

 SCF Done:  E(UB3LYP) =  -442.264088704     A.U. after   20 cycles
 Normal termination of Gaussian 16 at Tue Dec  8 19:19:44 2020.
 Gaussian 16:  ES64L-G16RevA.03 25-Dec-2016

 ----------------------------------------------------------------------
 # B3LYP/6-311++G(d,p) empiricaldispersion=gd3bj scf=xqc pop=npa geom=c
 heck
 ----------------------------------------------------------------------

 ------------------------------------
 CID_144623759_JID_1067_Energie_anion
 ------------------------------------
 Structure from the checkpoint file:  "JID_1067.chk"
 Charge = -1 Multiplicity = 2

                         Standard orientation:
 ---------------------------------------------------------------------
 Center     Atomic      Atomic             Coordinates (Angstroms)
 Number     Number       Type             X           Y           Z
 ---------------------------------------------------------------------
      1          6           0        4.633508   -0.166405    0.018205
      2          6           0        3.159324   -0.423640    0.062052
      3          6           0        2.217474    0.529430   -0.062943
      4          6           0        0.780139    0.336960   -0.007603
      5          6           0       -0.060768    1.405012   -0.072913
      6          6           0       -1.492887    1.259221    0.051736
      7          6           0       -2.082290    0.040711   -0.041716
      8          6           0       -1.228070   -1.174346   -0.350539
      9          6           0        0.180636   -1.033944    0.239733
     10          6           0       -3.493182   -0.111405    0.051794
     11          7           0       -4.645330   -0.273058    0.126135
     12          1           0        4.853834    0.894916   -0.134815
     13          1           0        5.110798   -0.736003   -0.790868
     14          1           0        5.118434   -0.485649    0.950830
     15          1           0        2.861027   -1.460279    0.209558
     16          1           0        2.544124    1.560204   -0.205958
     17          1           0        0.346715    2.407509   -0.174927
     18          1           0       -2.100173    2.146197    0.206205
     19          1           0       -1.163096   -1.277704   -1.444693
     20          1           0       -1.703855   -2.086136    0.021889
     21          1           0        0.149183   -1.200424    1.327627
     22          1           0        0.817013   -1.820781   -0.174630
 ---------------------------------------------------------------------

 SCF Done:  E(UB3LYP) =  -442.579626587     A.U. after   21 cycles

 The electronic state is 2-A.
 Alpha  occ. eigenvalues --  -14.14125 -10.05400 -10.04535 -10.03977 -10.03555
 Alpha  occ. eigenvalues --  -10.02786 -10.02577 -10.02313 -10.01907 -10.01712
 Alpha  occ. eigenvalues --  -10.01115  -0.74523  -0.70469  -0.66429  -0.62000
 Alpha  occ. eigenvalues --   -0.60432  -0.55491  -0.48807  -0.47665  -0.41582
 Alpha  occ. eigenvalues --   -0.39112  -0.36112  -0.32153  -0.31355  -0.30177
 Alpha  occ. eigenvalues --   -0.30021  -0.27656  -0.26367  -0.25341  -0.24463
 Alpha  occ. eigenvalues --   -0.22991  -0.21530  -0.20989  -0.19674  -0.18719
 Alpha  occ. eigenvalues --   -0.17527  -0.16828  -0.13530  -0.06565   0.03043
 Alpha virt. eigenvalues --    0.07857   0.09921   0.10053   0.10941   0.11736
 Alpha virt. eigenvalues --    0.12148   0.12689   0.13654   0.14021   0.14371
 Alpha virt. eigenvalues --    0.14571   0.15976   0.16643   0.17125   0.17731

  Beta  occ. eigenvalues --  -14.13866 -10.05428 -10.04569 -10.03996 -10.03572
  Beta  occ. eigenvalues --  -10.02859 -10.02248 -10.01943 -10.01723 -10.01333
  Beta  occ. eigenvalues --  -10.01070  -0.74130  -0.70015  -0.65969  -0.61443
  Beta  occ. eigenvalues --   -0.60156  -0.55259  -0.48631  -0.46932  -0.41205
  Beta  occ. eigenvalues --   -0.38850  -0.35822  -0.31896  -0.31131  -0.29873
  Beta  occ. eigenvalues --   -0.29710  -0.27537  -0.26126  -0.25218  -0.23959
  Beta  occ. eigenvalues --   -0.22794  -0.21170  -0.20005  -0.19373  -0.18499
  Beta  occ. eigenvalues --   -0.16703  -0.16331  -0.12095  -0.04535
  Beta virt. eigenvalues --    0.07828   0.08967   0.09894   0.10021   0.10941
  Beta virt. eigenvalues --    0.11698   0.12118   0.12753   0.13649   0.13990
  Beta virt. eigenvalues --    0.14566   0.15045   0.16215   0.17068   0.17392

 Mulliken charges and spin densities:
               1          2
     1  C   -0.699365  -0.021865
     2  C   -0.188570   0.290725
     3  C   -0.012914  -0.104826
     4  C    0.753806   0.215987
     5  C    0.158707   0.135646
     6  C   -0.934703   0.214211
     7  C    2.057805   0.210125
     8  C   -0.948028  -0.000610
     9  C   -0.702936  -0.055254
    10  C   -1.305612  -0.073213
    11  N   -0.341332   0.138655
    12  H    0.117515   0.000855
    13  H    0.107887   0.012118
    14  H    0.107499   0.013669
    15  H    0.117185  -0.018712
    16  H    0.054733   0.000085
    17  H    0.098019  -0.000623
    18  H    0.118952  -0.010502
    19  H    0.123932   0.016862
    20  H    0.144610   0.005128
    21  H    0.123285   0.013708
    22  H    0.049524   0.017832
 Sum of Mulliken charges =  -1.00000   1.00000

 Dipole moment (field-independent basis, Debye):
    X=              7.0083    Y=             -0.4766    Z=             -0.2074  Tot=              7.0276
 Quadrupole moment (field-independent basis, Debye-Ang):
   XX=           -138.6845   YY=            -72.0530   ZZ=            -75.7510
   XY=             -1.5485   XZ=              1.1729   YZ=             -0.0381

 Summary of Natural Population Analysis:

                                       Natural Population
                Natural  -----------------------------------------------
    Atom  No    Charge         Core      Valence    Rydberg      Total
 -----------------------------------------------------------------------
      C    1   -0.29906      0.99967     2.29495    0.00445     3.29906
      C    2   -0.02335      0.99956     2.01504    0.00876     3.02335
      C    3   -0.12677      0.99950     2.11767    0.00960     3.12677
      C    4    0.05935      0.99949     1.93203    0.00913     2.94065
      C    5   -0.11519      0.99950     2.10625    0.00944     3.11519
      C    6   -0.04256      0.99951     2.03476    0.00828     3.04256
      C    7   -0.04192      0.99940     2.02995    0.01257     3.04192
      C    8   -0.18485      0.99962     2.17841    0.00681     3.18485
      C    9   -0.19653      0.99961     2.19010    0.00683     3.19653
      C   10    0.14266      0.99964     1.83916    0.01854     2.85734
      N   11   -0.18824      0.99979     2.67659    0.01186     3.68824
      H   12    0.09319      0.00000     0.40577    0.00104     0.40681
      H   13    0.09493      0.00000     0.40384    0.00123     0.40507
      H   14    0.09529      0.00000     0.40346    0.00126     0.40471
      H   15    0.08070      0.00000     0.41806    0.00124     0.41930
      H   16    0.08460      0.00000     0.41376    0.00163     0.41540
      H   17    0.08829      0.00000     0.41010    0.00161     0.41171
      H   18    0.09198      0.00000     0.40707    0.00095     0.40802
      H   19    0.09546      0.00000     0.40299    0.00155     0.40454
      H   20    0.09758      0.00000     0.40127    0.00115     0.40242
      H   21    0.09735      0.00000     0.40069    0.00196     0.40265
      H   22    0.09709      0.00000     0.40156    0.00136     0.40291
 =======================================================================
   * Total *    0.00000     10.99528    27.88348    0.12124    39.00000

 Normal termination of Gaussian 16 at Tue Dec  8 19:23:01 2020.
