 Gaussian 16, Revision A.03,

 -----------------------------------------------------------
 # opt freq B3LYP/6-31G(d) empiricaldispersion=gd3bj scf=xqc
 -----------------------------------------------------------

 ------------------------------
 CID_64502177_JID_6995_neutraal
 ------------------------------
 Symbolic Z-matrix:
 Charge =  0 Multiplicity = 1

 SCF Done:  E(RB3LYP) =  -696.996042199     A.U. after   13 cycles
 SCF Done:  E(RB3LYP) =  -697.001963514     A.U. after   11 cycles
 SCF Done:  E(RB3LYP) =  -696.998951548     A.U. after   11 cycles
 SCF Done:  E(RB3LYP) =  -697.001045300     A.U. after   11 cycles
 SCF Done:  E(RB3LYP) =  -697.003280525     A.U. after    8 cycles
 SCF Done:  E(RB3LYP) =  -697.003219042     A.U. after   11 cycles
 SCF Done:  E(RB3LYP) =  -697.003879348     A.U. after   11 cycles
 SCF Done:  E(RB3LYP) =  -697.004355286     A.U. after   10 cycles
 SCF Done:  E(RB3LYP) =  -697.004447099     A.U. after   10 cycles
 SCF Done:  E(RB3LYP) =  -697.004660998     A.U. after    9 cycles
 SCF Done:  E(RB3LYP) =  -697.007222929     A.U. after    9 cycles
 SCF Done:  E(RB3LYP) =  -697.007223503     A.U. after    7 cycles
 SCF Done:  E(RB3LYP) =  -697.007223506     A.U. after    7 cycles
 SCF Done:  E(RB3LYP) =  -697.007223530     A.U. after    6 cycles
 SCF Done:  E(RB3LYP) =  -697.007223544     A.U. after    5 cycles
 Optimization completed.
    -- Stationary point found.
 Normal termination of Gaussian 16 at Fri Dec 11 01:52:50 2020.

 --------------------------------------------------------------------
 #N Geom=AllCheck Guess=TCheck SCRF=Check GenChk RB3LYP/6-31G(d) Freq
 --------------------------------------------------------------------

 Structure from the checkpoint file:  "JID_6995.chk"
 ------------------------------
 CID_64502177_JID_6995_neutraal
 ------------------------------
 Charge =  0 Multiplicity = 1

 SCF Done:  E(RB3LYP) =  -697.007223544     A.U. after    1 cycles

  Exact polarizability: 174.168  -0.075 148.893   0.218   0.908 135.038
 Approx polarizability: 207.822   2.538 213.021  -2.515   0.720 205.947

                      1                      2                      3
                      A                      A                      A
 Frequencies --     34.5101                46.2624                73.8079
 Red. masses --      3.5852                 3.8426                 2.8496
 Frc consts  --      0.0025                 0.0048                 0.0091
 IR Inten    --      0.1156                 0.1754                 1.0064

                      4                      5                      6
                      A                      A                      A
 Frequencies --     95.8375               103.0223               107.4155
 Red. masses --      2.3951                 3.1014                 2.0829
 Frc consts  --      0.0130                 0.0194                 0.0142
 IR Inten    --      0.1570                 1.6772                 0.6659

                      7                      8                      9
                      A                      A                      A
 Frequencies --    136.9340               142.4232               156.8892
 Red. masses --      2.5589                 2.5972                 2.9030
 Frc consts  --      0.0283                 0.0310                 0.0421
 IR Inten    --      4.6510                 0.7934                 1.5284

                     10                     11                     12
                      A                      A                      A
 Frequencies --    178.7261               191.1777               213.8582
 Red. masses --      1.7507                 1.7455                 1.7655
 Frc consts  --      0.0329                 0.0376                 0.0476
 IR Inten    --      2.2621                11.1875                15.7899

                     13                     14                     15
                      A                      A                      A
 Frequencies --    214.2689               229.8671               243.7050
 Red. masses --      2.2116                 1.5954                 1.1196
 Frc consts  --      0.0598                 0.0497                 0.0392
 IR Inten    --      4.5601                10.2318                 1.5835

                     16                     17                     18
                      A                      A                      A
 Frequencies --    255.0454               286.7686               309.8085
 Red. masses --      1.3682                 2.0732                 2.7628
 Frc consts  --      0.0524                 0.1004                 0.1562
 IR Inten    --      7.2785                 7.5078                 1.2906

                     19                     20                     21
                      A                      A                      A
 Frequencies --    336.4597               373.9731               407.5987
 Red. masses --      2.3281                 2.7888                 2.8189
 Frc consts  --      0.1553                 0.2298                 0.2759
 IR Inten    --      0.7861                 1.8162                 0.6968

                     22                     23                     24
                      A                      A                      A
 Frequencies --    412.6395               418.6697               431.5914
 Red. masses --      2.0131                 2.0461                 2.2463
 Frc consts  --      0.2020                 0.2113                 0.2465
 IR Inten    --      1.2825                 3.1495                 1.7524

                     25                     26                     27
                      A                      A                      A
 Frequencies --    456.6250               486.7897               531.5136
 Red. masses --      2.2404                 2.5591                 2.6071
 Frc consts  --      0.2752                 0.3573                 0.4339
 IR Inten    --      0.4729                 3.6048                 3.1215

                     28                     29                     30
                      A                      A                      A
 Frequencies --    550.1722               569.1517               635.4490
 Red. masses --      2.4650                 2.7636                 2.8009
 Frc consts  --      0.4396                 0.5274                 0.6664
 IR Inten    --      8.4820                 5.3325                 8.4602

                     31                     32                     33
                      A                      A                      A
 Frequencies --    728.7579               779.3408               798.5577
 Red. masses --      2.4661                 1.4449                 1.6998
 Frc consts  --      0.7717                 0.5171                 0.6386
 IR Inten    --      6.2385                 2.2025                 5.4645

                     34                     35                     36
                      A                      A                      A
 Frequencies --    820.8299               834.5041               845.5803
 Red. masses --      1.2016                 1.7144                 2.1714
 Frc consts  --      0.4770                 0.7034                 0.9147
 IR Inten    --     11.5851                 2.7100                32.8474

                     37                     38                     39
                      A                      A                      A
 Frequencies --    867.6906               878.3650               887.5792
 Red. masses --      1.6747                 2.0003                 1.8869
 Frc consts  --      0.7429                 0.9093                 0.8758
 IR Inten    --      8.2013                13.3797                53.0441

                     40                     41                     42
                      A                      A                      A
 Frequencies --    929.4925               950.6295               957.3379
 Red. masses --      2.2039                 1.8120                 1.7220
 Frc consts  --      1.1218                 0.9648                 0.9298
 IR Inten    --     10.8360                21.4214                 0.2120

                     43                     44                     45
                      A                      A                      A
 Frequencies --    989.1035               990.9688              1001.4563
 Red. masses --      1.8108                 2.4839                 2.2240
 Frc consts  --      1.0438                 1.4371                 1.3141
 IR Inten    --      7.9554                11.1287                14.9530

                     46                     47                     48
                      A                      A                      A
 Frequencies --   1021.8849              1040.5135              1051.4318
 Red. masses --      1.5260                 2.4820                 2.3611
 Frc consts  --      0.9389                 1.5832                 1.5379
 IR Inten    --     10.3295                 2.7536                 3.6450

                     49                     50                     51
                      A                      A                      A
 Frequencies --   1065.8261              1088.2533              1101.1019
 Red. masses --      1.9952                 2.4707                 2.1602
 Frc consts  --      1.3354                 1.7239                 1.5431
 IR Inten    --     34.4408                 3.3553                 9.8430

                     52                     53                     54
                      A                      A                      A
 Frequencies --   1105.7449              1113.3280              1130.8573
 Red. masses --      2.2657                 1.9545                 1.7955
 Frc consts  --      1.6321                 1.4273                 1.3529
 IR Inten    --     14.2290                10.9604                 2.1306

                     55                     56                     57
                      A                      A                      A
 Frequencies --   1152.6367              1159.5501              1171.9841
 Red. masses --      2.3330                 3.0301                 2.4208
 Frc consts  --      1.8262                 2.4004                 1.9591
 IR Inten    --      9.0771                55.2561                14.6761

                     58                     59                     60
                      A                      A                      A
 Frequencies --   1183.5767              1192.6042              1213.7851
 Red. masses --      1.8168                 1.3206                 1.7020
 Frc consts  --      1.4995                 1.1066                 1.4774
 IR Inten    --     35.3991                 4.6018                19.1592

                     61                     62                     63
                      A                      A                      A
 Frequencies --   1234.9157              1240.0982              1249.1631
 Red. masses --      1.7590                 1.7370                 1.5943
 Frc consts  --      1.5805                 1.5739                 1.4658
 IR Inten    --     11.3465                11.0101                 0.5447

                     64                     65                     66
                      A                      A                      A
 Frequencies --   1268.0303              1297.1860              1308.8298
 Red. masses --      1.6612                 1.5760                 1.4454
 Frc consts  --      1.5737                 1.5624                 1.4588
 IR Inten    --     13.6950                16.8707                 1.8347

                     67                     68                     69
                      A                      A                      A
 Frequencies --   1311.3534              1332.9339              1336.2857
 Red. masses --      1.3744                 1.1857                 1.2392
 Frc consts  --      1.3925                 1.2412                 1.3037
 IR Inten    --      1.6284                 9.1688                 2.7934

                     70                     71                     72
                      A                      A                      A
 Frequencies --   1345.1516              1351.8264              1357.4111
 Red. masses --      1.1862                 1.2770                 1.2880
 Frc consts  --      1.2646                 1.3750                 1.3983
 IR Inten    --      4.8864                 5.3088                 5.9335

                     73                     74                     75
                      A                      A                      A
 Frequencies --   1362.8907              1380.9375              1395.0663
 Red. masses --      1.3143                 1.3285                 1.4482
 Frc consts  --      1.4383                 1.4927                 1.6607
 IR Inten    --      5.3203                19.7694                15.9746

                     76                     77                     78
                      A                      A                      A
 Frequencies --   1410.1109              1416.4906              1429.4667
 Red. masses --      1.3401                 1.5365                 1.2381
 Frc consts  --      1.5700                 1.8164                 1.4906
 IR Inten    --     11.0755                 1.7587                14.1961

                     79                     80                     81
                      A                      A                      A
 Frequencies --   1440.6192              1441.4888              1449.0751
 Red. masses --      1.2484                 1.2573                 1.2555
 Frc consts  --      1.5266                 1.5393                 1.5533
 IR Inten    --      4.5623                 5.6960                 2.5979

                     82                     83                     84
                      A                      A                      A
 Frequencies --   1450.0604              1492.2317              1508.6583
 Red. masses --      1.3022                 1.1429                 1.0765
 Frc consts  --      1.6132                 1.4994                 1.4437
 IR Inten    --      8.7118                 1.4652                 1.9748

                     85                     86                     87
                      A                      A                      A
 Frequencies --   1509.6580              1516.3426              1517.5311
 Red. masses --      1.0529                 1.0683                 1.0611
 Frc consts  --      1.4138                 1.4472                 1.4397
 IR Inten    --      2.3166                 0.4823                 1.9537

                     88                     89                     90
                      A                      A                      A
 Frequencies --   1520.1919              1522.4020              1530.1016
 Red. masses --      1.0766                 1.0823                 1.0619
 Frc consts  --      1.4659                 1.4780                 1.4648
 IR Inten    --      3.5339                 2.3728                 6.2365

                     91                     92                     93
                      A                      A                      A
 Frequencies --   1530.6504              1531.7077              1536.8920
 Red. masses --      1.0493                 1.0947                 1.0712
 Frc consts  --      1.4484                 1.5132                 1.4908
 IR Inten    --     14.7951                 2.3395                 0.8335

                     94                     95                     96
                      A                      A                      A
 Frequencies --   1538.9672              1540.0991              1553.2777
 Red. masses --      1.0647                 1.0866                 1.0532
 Frc consts  --      1.4857                 1.5186                 1.4971
 IR Inten    --      4.4347                 8.0954                 3.7575

                     97                     98                     99
                      A                      A                      A
 Frequencies --   1561.9114              1709.8376              2959.1855
 Red. masses --      1.0887                 1.0859                 1.0756
 Frc consts  --      1.5648                 1.8705                 5.5495
 IR Inten    --      5.2647                28.2010                56.9380

                    100                    101                    102
                      A                      A                      A
 Frequencies --   2990.3407              2998.6213              3001.5186
 Red. masses --      1.0511                 1.0816                 1.0693
 Frc consts  --      5.5375                 5.7302                 5.6756
 IR Inten    --     60.9922                 9.7674                42.1122

                    103                    104                    105
                      A                      A                      A
 Frequencies --   3012.5854              3021.1867              3026.4546
 Red. masses --      1.0600                 1.0633                 1.0676
 Frc consts  --      5.6682                 5.7183                 5.7612
 IR Inten    --     63.5478                19.2584                18.7461

                    106                    107                    108
                      A                      A                      A
 Frequencies --   3027.3751              3043.7676              3050.8257
 Red. masses --      1.0677                 1.0368                 1.0367
 Frc consts  --      5.7655                 5.6594                 5.6851
 IR Inten    --     58.4072                29.6983                28.5554

                    109                    110                    111
                      A                      A                      A
 Frequencies --   3056.0175              3058.2407              3067.7351
 Red. masses --      1.1011                 1.1028                 1.0648
 Frc consts  --      6.0589                 6.0772                 5.9039
 IR Inten    --     24.3688                53.2640                59.5734

                    112                    113                    114
                      A                      A                      A
 Frequencies --   3069.6738              3088.3418              3092.3656
 Red. masses --      1.0647                 1.0925                 1.0806
 Frc consts  --      5.9111                 6.1391                 6.0882
 IR Inten    --      8.1858                26.8909                30.7680

                    115                    116                    117
                      A                      A                      A
 Frequencies --   3095.2392              3095.5336              3105.7797
 Red. masses --      1.0950                 1.0958                 1.1038
 Frc consts  --      6.1806                 6.1866                 6.2732
 IR Inten    --     34.4591                29.4991                 7.8229

                    118                    119                    120
                      A                      A                      A
 Frequencies --   3107.7945              3114.1709              3115.7567
 Red. masses --      1.1016                 1.0970                 1.1002
 Frc consts  --      6.2684                 6.2681                 6.2928
 IR Inten    --     60.9106                28.6643                49.9788

                    121                    122                    123
                      A                      A                      A
 Frequencies --   3117.3223              3127.3512              3139.3456
 Red. masses --      1.1018                 1.0940                 1.1058
 Frc consts  --      6.3082                 6.3040                 6.4210
 IR Inten    --     47.7395                11.0048                29.4520

                    124                    125                    126
                      A                      A                      A
 Frequencies --   3143.2004              3499.5816              3582.2700
 Red. masses --      1.0939                 1.0507                 1.0920
 Frc consts  --      6.3676                 7.5817                 8.2562
 IR Inten    --     45.9040                 1.5556                 0.2993

 - Thermochemistry -
 -------------------
 Temperature   298.150 Kelvin.  Pressure   1.00000 Atm.
 Atom     1 has atomic number  6 and mass  12.00000

 Molecular mass:   228.22016 amu.
 Principal axes and moments of inertia in atomic units:
                           1         2         3
     Eigenvalues --  1997.098836190.551286954.66751
           X            0.99999  -0.00159   0.00341
           Y            0.00161   0.99999  -0.00488
           Z           -0.00340   0.00489   0.99998
 This molecule is an asymmetric top.
 Rotational symmetry number  1.
 Warning -- assumption of classical behavior for rotation
           may cause significant error
 Rotational temperatures (Kelvin)      0.04337     0.01399     0.01245
 Rotational constants (GHZ):           0.90368     0.29153     0.25950
 Zero-point vibrational energy    1076170.6 (Joules/Mol)
                                  257.21094 (Kcal/Mol)
 Warning -- explicit consideration of  29 degrees of freedom as
           vibrations may cause significant error
 Vibrational temperatures:     49.65    66.56   106.19   137.89   148.23
          (Kelvin)            154.55   197.02   204.92   225.73   257.15
                              275.06   307.69   308.29   330.73   350.64
                              366.95   412.60   445.75   484.09   538.06
                              586.44   593.70   602.37   620.96   656.98
                              700.38   764.73   791.58   818.88   914.27
                             1048.52  1121.30  1148.95  1180.99  1200.67
                             1216.60  1248.41  1263.77  1277.03  1337.33
                             1367.74  1377.40  1423.10  1425.78  1440.87
                             1470.26  1497.07  1512.78  1533.49  1565.75
                             1584.24  1590.92  1601.83  1627.05  1658.39
                             1668.33  1686.22  1702.90  1715.89  1746.37
                             1776.77  1784.22  1797.27  1824.41  1866.36
                             1883.11  1886.75  1917.79  1922.62  1935.37
                             1944.98  1953.01  1960.90  1986.86  2007.19
                             2028.84  2038.01  2056.68  2072.73  2073.98
                             2084.90  2086.31  2146.99  2170.62  2172.06
                             2181.68  2183.39  2187.22  2190.40  2201.47
                             2202.26  2203.79  2211.24  2214.23  2215.86
                             2234.82  2247.24  2460.07  4257.61  4302.43
                             4314.35  4318.52  4334.44  4346.81  4354.39
                             4355.72  4379.30  4389.46  4396.93  4400.13
                             4413.79  4416.58  4443.44  4449.22  4453.36
                             4453.78  4468.52  4471.42  4480.60  4482.88
                             4485.13  4499.56  4516.82  4522.36  5035.12
                             5154.09

 Zero-point correction=                           0.409892 (Hartree/Particle)
 Thermal correction to Energy=                    0.428561
 Thermal correction to Enthalpy=                  0.429505
 Thermal correction to Gibbs Free Energy=         0.363896
 Sum of electronic and zero-point Energies=           -696.597332
 Sum of electronic and thermal Energies=              -696.578662
 Sum of electronic and thermal Enthalpies=            -696.577718
 Sum of electronic and thermal Free Energies=         -696.643327

                     E (Thermal)             CV                S
                      KCal/Mol        Cal/Mol-Kelvin    Cal/Mol-Kelvin
 Total                  268.926             71.165            138.087
 Electronic               0.000              0.000              0.000
 Translational            0.889              2.981             42.178
 Rotational               0.889              2.981             32.819
 Vibrational            267.149             65.203             63.090
 Vibration     1          0.594              1.983              5.552
 Vibration     2          0.595              1.979              4.971
 Vibration     3          0.599              1.966              4.049
 Vibration     4          0.603              1.952              3.537
 Vibration     5          0.605              1.947              3.396
 Vibration     6          0.606              1.943              3.315
 Vibration     7          0.614              1.916              2.846
 Vibration     8          0.616              1.911              2.771
 Vibration     9          0.621              1.895              2.587
 Vibration    10          0.629              1.868              2.342
 Vibration    11          0.634              1.852              2.216
 Vibration    12          0.644              1.820              2.010
 Vibration    13          0.644              1.819              2.007
 Vibration    14          0.652              1.795              1.880
 Vibration    15          0.659              1.773              1.776
 Vibration    16          0.665              1.754              1.695
 Vibration    17          0.684              1.698              1.493
 Vibration    18          0.699              1.655              1.363
 Vibration    19          0.717              1.603              1.229
 Vibration    20          0.745              1.526              1.063
 Vibration    21          0.772              1.454              0.935
 Vibration    22          0.776              1.443              0.917
 Vibration    23          0.782              1.430              0.896
 Vibration    24          0.793              1.401              0.853
 Vibration    25          0.815              1.346              0.776
 Vibration    26          0.843              1.279              0.692
 Vibration    27          0.886              1.180              0.584
 Vibration    28          0.905              1.139              0.544
 Vibration    29          0.925              1.098              0.506

 Optimization completed.
    -- Stationary point found.
 Normal termination of Gaussian 16 at Fri Dec 11 02:10:18 2020.

 ----------------------------------------------------------------------
 # B3LYP/6-311++G(d,p) empiricaldispersion=gd3bj scf=xqc pop=npa geom=c
 heck
 ----------------------------------------------------------------------

 --------------------------------------
 CID_64502177_JID_6995_Energie_neutraal
 --------------------------------------
 Structure from the checkpoint file:  "JID_6995.chk"
 Charge =  0 Multiplicity = 1

 SCF Done:  E(RB3LYP) =  -697.210739381     A.U. after   14 cycles
 Normal termination of Gaussian 16 at Fri Dec 11 02:18:33 2020.

 ----------------------------------------------------------------------
 # B3LYP/6-311++G(d,p) empiricaldispersion=gd3bj scf=xqc pop=npa geom=c
 heck
 ----------------------------------------------------------------------

 ------------------------------------
 CID_64502177_JID_6995_Energie_kation
 ------------------------------------
 Structure from the checkpoint file:  "JID_6995.chk"
 Charge =  1 Multiplicity = 2

 SCF Done:  E(UB3LYP) =  -696.940045985     A.U. after   20 cycles
 Normal termination of Gaussian 16 at Fri Dec 11 02:33:27 2020.
 Gaussian 16:  ES64L-G16RevA.03 25-Dec-2016

 ----------------------------------------------------------------------
 # B3LYP/6-311++G(d,p) empiricaldispersion=gd3bj scf=xqc pop=npa geom=c
 heck
 ----------------------------------------------------------------------

 -----------------------------------
 CID_64502177_JID_6995_Energie_anion
 -----------------------------------
 Structure from the checkpoint file:  "JID_6995.chk"
 Charge = -1 Multiplicity = 2

                         Standard orientation:
 ---------------------------------------------------------------------
 Center     Atomic      Atomic             Coordinates (Angstroms)
 Number     Number       Type             X           Y           Z
 ---------------------------------------------------------------------
      1          6           0       -5.163150    0.617825   -0.041583
      2          6           0       -3.983810   -0.138317   -0.659751
      3          6           0       -2.617105    0.322141   -0.148602
      4          6           0       -2.373234    0.101287    1.355292
      5          6           0       -0.855258    0.260994    1.504146
      6          6           0       -0.244217   -0.373490    0.214636
      7          6           0       -1.430457   -0.410974   -0.806352
      8          6           0        0.146724   -1.818755    0.628533
      9          7           0        0.326534   -2.785188   -0.461491
     10          7           0        0.933626    0.412853   -0.223003
     11          6           0        0.625060    1.786532   -0.651537
     12          6           0        1.765667    2.750166   -0.325883
     13          6           0        1.808255   -0.236989   -1.210800
     14          6           0        3.081026   -0.860100   -0.629643
     15          8           0        3.944859    0.101570   -0.048087
     16          6           0        3.755498    0.272428    1.347044
     17          1           0       -5.209629    0.469475    1.043201
     18          1           0       -6.117121    0.282433   -0.463616
     19          1           0       -5.078184    1.696236   -0.224546
     20          1           0       -4.088795   -1.214796   -0.460454
     21          1           0       -4.012143   -0.027004   -1.752435
     22          1           0       -2.523155    1.401213   -0.347382
     23          1           0       -2.935064    0.789879    1.994776
     24          1           0       -2.685190   -0.918059    1.626514
     25          1           0       -0.454845   -0.212886    2.407727
     26          1           0       -0.596549    1.320009    1.576513
     27          1           0       -1.695464   -1.452222   -1.019093
     28          1           0       -1.150942    0.032698   -1.767172
     29          1           0        1.008038   -1.751666    1.311448
     30          1           0       -0.693143   -2.188778    1.225655
     31          1           0        1.292938   -2.817131   -0.772014
     32          1           0        0.108507   -3.719372   -0.124180
     33          1           0        0.399514    1.825673   -1.731998
     34          1           0       -0.280994    2.129730   -0.149530
     35          1           0        2.718514    2.390570   -0.726100
     36          1           0        1.564038    3.744098   -0.742679
     37          1           0        1.881995    2.844769    0.759062
     38          1           0        1.262834   -0.984982   -1.804755
     39          1           0        2.147656    0.520874   -1.923725
     40          1           0        2.853457   -1.649372    0.102150
     41          1           0        3.640423   -1.325182   -1.453037
     42          1           0        4.455693    1.049817    1.665661
     43          1           0        2.730637    0.578283    1.579778
     44          1           0        3.986986   -0.657009    1.893394
 ---------------------------------------------------------------------

 SCF Done:  E(UB3LYP) =  -697.196015050     A.U. after   33 cycles
 SCF Done:  E(UB3LYP) =  -697.196015050     a.u. after    1 cycles

 The electronic state is 2-A.
 Alpha  occ. eigenvalues --  -19.03079 -14.20605 -14.19251 -10.12117 -10.11355
 Alpha  occ. eigenvalues --  -10.10611 -10.09985 -10.09638 -10.09137 -10.07095
 Alpha  occ. eigenvalues --  -10.06810 -10.06768 -10.06456 -10.06433 -10.06424
 Alpha  occ. eigenvalues --  -10.05471  -0.94191  -0.83040  -0.78009  -0.73826
 Alpha  occ. eigenvalues --   -0.67887  -0.67011  -0.64258  -0.61091  -0.60754
 Alpha  occ. eigenvalues --   -0.58033  -0.54224  -0.52343  -0.51563  -0.50129
 Alpha  occ. eigenvalues --   -0.46086  -0.44326  -0.41596  -0.39552  -0.38575
 Alpha  occ. eigenvalues --   -0.38068  -0.38033  -0.36796  -0.35910  -0.35478
 Alpha  occ. eigenvalues --   -0.34924  -0.34578  -0.32577  -0.31805  -0.30994
 Alpha  occ. eigenvalues --   -0.30519  -0.29537  -0.28668  -0.28378  -0.27944
 Alpha  occ. eigenvalues --   -0.27247  -0.25869  -0.25531  -0.24804  -0.24648
 Alpha  occ. eigenvalues --   -0.23706  -0.23026  -0.22373  -0.22087  -0.21599
 Alpha  occ. eigenvalues --   -0.21206  -0.17139  -0.14647  -0.11476   0.04349
 Alpha virt. eigenvalues --    0.05887   0.06493   0.07102   0.07669   0.08117
 Alpha virt. eigenvalues --    0.08473   0.08755   0.09484   0.09866   0.10425
 Alpha virt. eigenvalues --    0.10556   0.11014   0.11435   0.11999   0.12205

  Beta  occ. eigenvalues --  -19.03072 -14.20597 -14.19208 -10.12098 -10.11342
  Beta  occ. eigenvalues --  -10.10612 -10.09980 -10.09631 -10.09114 -10.07090
  Beta  occ. eigenvalues --  -10.06797 -10.06761 -10.06443 -10.06421 -10.06398
  Beta  occ. eigenvalues --  -10.05461  -0.94176  -0.83025  -0.77938  -0.73806
  Beta  occ. eigenvalues --   -0.67861  -0.66994  -0.64235  -0.61062  -0.60718
  Beta  occ. eigenvalues --   -0.58002  -0.54167  -0.52300  -0.51520  -0.50094
  Beta  occ. eigenvalues --   -0.46039  -0.44304  -0.41568  -0.39529  -0.38549
  Beta  occ. eigenvalues --   -0.38041  -0.38006  -0.36748  -0.35884  -0.35433
  Beta  occ. eigenvalues --   -0.34902  -0.34563  -0.32545  -0.31781  -0.30963
  Beta  occ. eigenvalues --   -0.30489  -0.29519  -0.28646  -0.28352  -0.27905
  Beta  occ. eigenvalues --   -0.27225  -0.25844  -0.25510  -0.24784  -0.24623
  Beta  occ. eigenvalues --   -0.23683  -0.23004  -0.22347  -0.22057  -0.21578
  Beta  occ. eigenvalues --   -0.21178  -0.17115  -0.14604  -0.11432
  Beta virt. eigenvalues --    0.06165   0.06747   0.07068   0.07394   0.08194
  Beta virt. eigenvalues --    0.08522   0.08687   0.09127   0.09735   0.10144
  Beta virt. eigenvalues --    0.10650   0.10913   0.11259   0.11663   0.12188

 Mulliken charges and spin densities:
               1          2
     1  C    0.437760  -1.065764
     2  C   -0.906294   0.589517
     3  C    0.891465   0.097219
     4  C   -0.450355  -0.511140
     5  C    1.121580  -1.045355
     6  C   -0.994583   0.901896
     7  C   -1.627275   0.560859
     8  C    2.043308  -2.986737
     9  N   -0.643644   0.315542
    10  N    0.546789   0.090531
    11  C   -0.197610   0.107912
    12  C   -0.295959  -0.287527
    13  C   -0.611687   0.332132
    14  C    0.040754  -0.518172
    15  O   -0.144474   0.026972
    16  C    0.194296  -0.465582
    17  H   -0.142188   0.288778
    18  H   -0.263615   0.407932
    19  H   -0.176077   0.308424
    20  H    0.031639   0.095932
    21  H   -0.092329   0.230523
    22  H    0.263540  -0.112926
    23  H   -0.002723   0.175188
    24  H    0.018931   0.138582
    25  H   -0.085750   0.269945
    26  H    0.100659   0.023354
    27  H    0.164160   0.109228
    28  H    0.065858   0.080495
    29  H    0.102770   0.048728
    30  H   -0.368487   0.565377
    31  H   -0.094468   0.320076
    32  H   -0.249138   0.510222
    33  H    0.050801   0.069014
    34  H    0.002588   0.146586
    35  H    0.157091  -0.006033
    36  H   -0.005691   0.134945
    37  H    0.079063   0.060293
    38  H    0.136739  -0.016838
    39  H    0.123082   0.052926
    40  H   -0.011053   0.141241
    41  H   -0.219941   0.390537
    42  H    0.064344   0.086888
    43  H    0.078702   0.085095
    44  H   -0.132577   0.253184
 Sum of Mulliken charges =  -1.00000   1.00000

 Dipole moment (field-independent basis, Debye):
    X=              2.6800    Y=              5.1877    Z=             -1.2553  Tot=              5.9724
 Quadrupole moment (field-independent basis, Debye-Ang):
   XX=           -192.8964   YY=           -162.0051   ZZ=           -138.5610
   XY=              6.1187   XZ=              0.3515   YZ=              2.2317

 Summary of Natural Population Analysis:

                                       Natural Population
                Natural  -----------------------------------------------
    Atom  No    Charge         Core      Valence    Rydberg      Total
 -----------------------------------------------------------------------
      C    1   -0.28290      0.99967     2.27910    0.00414     3.28290
      C    2   -0.18554      0.99962     2.17726    0.00866     3.18554
      C    3   -0.11089      0.99959     2.10088    0.01042     3.11089
      C    4   -0.19254      0.99961     2.18433    0.00860     3.19254
      C    5   -0.18982      0.99958     2.18051    0.00973     3.18982
      C    6    0.07818      0.99954     1.90588    0.01640     2.92182
      C    7   -0.20179      0.99957     2.19326    0.00897     3.20179
      C    8   -0.09625      0.99954     2.08274    0.01397     3.09625
      N    9   -0.42594      0.99976     2.91497    0.01121     3.92594
      N   10   -0.29805      0.99967     2.78311    0.01527     3.79805
      C   11   -0.08506      0.99961     2.07524    0.01020     3.08506
      C   12   -0.28960      0.99966     2.28519    0.00476     3.28960
      C   13   -0.10382      0.99959     2.09330    0.01093     3.10382
      C   14   -0.01388      0.99956     2.00071    0.01361     3.01388
      O   15   -0.30287      0.99989     3.29329    0.00969     4.30287
      C   16   -0.10120      0.99960     2.09217    0.00942     3.10120
      H   17    0.09698      0.00000     0.40182    0.00120     0.40302
      H   18    0.09760      0.00000     0.40141    0.00099     0.40240
      H   19    0.09461      0.00000     0.40418    0.00121     0.40539
      H   20    0.09470      0.00000     0.40402    0.00128     0.40530
      H   21    0.09449      0.00000     0.40449    0.00101     0.40551
      H   22    0.08901      0.00000     0.40878    0.00221     0.41099
      H   23    0.10131      0.00000     0.39776    0.00093     0.39869
      H   24    0.09508      0.00000     0.40337    0.00156     0.40492
      H   25    0.10141      0.00000     0.39734    0.00125     0.39859
      H   26    0.09821      0.00000     0.40050    0.00129     0.40179
      H   27    0.10966      0.00000     0.38821    0.00213     0.39034
      H   28    0.10103      0.00000     0.39782    0.00114     0.39897
      H   29    0.08726      0.00000     0.41037    0.00236     0.41274
      H   30    0.09786      0.00000     0.40031    0.00183     0.40214
      H   31    0.17340      0.00000     0.32410    0.00250     0.32660
      H   32    0.18256      0.00000     0.31368    0.00376     0.31744
      H   33    0.07981      0.00000     0.41896    0.00123     0.42019
      H   34    0.09575      0.00000     0.40231    0.00193     0.40425
      H   35    0.10357      0.00000     0.39498    0.00145     0.39643
      H   36    0.09378      0.00000     0.40537    0.00085     0.40622
      H   37    0.09726      0.00000     0.40160    0.00115     0.40274
      H   38    0.10012      0.00000     0.39819    0.00169     0.39988
      H   39    0.09549      0.00000     0.40310    0.00141     0.40451
      H   40    0.08064      0.00000     0.41717    0.00219     0.41936
      H   41    0.08639      0.00000     0.41229    0.00133     0.41361
      H   42    0.08498      0.00000     0.41416    0.00086     0.41502
      H   43    0.09163      0.00000     0.40667    0.00170     0.40837
      H   44    0.07738      0.00000     0.42145    0.00117     0.42262
 =======================================================================
   * Total *    0.00000     15.99405    47.79637    0.20958    64.00000

 Normal termination of Gaussian 16 at Fri Dec 11 02:57:51 2020.
