 Gaussian 16, Revision A.03,

 -----------------------------------------------------------
 # opt freq B3LYP/6-31G(d) empiricaldispersion=gd3bj scf=xqc
 -----------------------------------------------------------

 ------------------------------
 CID_88486002_JID_2264_neutraal
 ------------------------------
 Symbolic Z-matrix:
 Charge =  0 Multiplicity = 1

 SCF Done:  E(RB3LYP) =  -896.385061638     A.U. after   16 cycles
 SCF Done:  E(RB3LYP) =  -896.393645750     A.U. after   14 cycles
 SCF Done:  E(RB3LYP) =  -896.394350741     A.U. after   14 cycles
 SCF Done:  E(RB3LYP) =  -896.393805070     A.U. after   13 cycles
 SCF Done:  E(RB3LYP) =  -896.394595026     A.U. after   12 cycles
 SCF Done:  E(RB3LYP) =  -896.394635863     A.U. after   12 cycles
 SCF Done:  E(RB3LYP) =  -896.394573440     A.U. after   13 cycles
 SCF Done:  E(RB3LYP) =  -896.394673849     A.U. after   12 cycles
 SCF Done:  E(RB3LYP) =  -896.394683402     A.U. after   11 cycles
 SCF Done:  E(RB3LYP) =  -896.394691205     A.U. after   11 cycles
 SCF Done:  E(RB3LYP) =  -896.394700056     A.U. after   11 cycles
 SCF Done:  E(RB3LYP) =  -896.394703704     A.U. after   10 cycles
 SCF Done:  E(RB3LYP) =  -896.394703988     A.U. after    8 cycles
 SCF Done:  E(RB3LYP) =  -896.394704045     A.U. after    8 cycles
 Optimization completed.
    -- Stationary point found.
 Normal termination of Gaussian 16 at Wed Dec  9 16:56:13 2020.

 --------------------------------------------------------------------
 #N Geom=AllCheck Guess=TCheck SCRF=Check GenChk RB3LYP/6-31G(d) Freq
 --------------------------------------------------------------------

 Structure from the checkpoint file:  "JID_2264.chk"
 ------------------------------
 CID_88486002_JID_2264_neutraal
 ------------------------------
 Charge =  0 Multiplicity = 1

 SCF Done:  E(RB3LYP) =  -896.394704045     A.U. after    1 cycles

  Exact polarizability: 152.906  24.160 123.957 -11.282   2.087  78.335
 Approx polarizability: 228.716  65.854 239.032 -25.771   3.140 141.605

                      1                      2                      3
                      A                      A                      A
 Frequencies --     37.4121                51.8570                62.3900
 Red. masses --      4.1550                 4.4815                 4.2461
 Frc consts  --      0.0034                 0.0071                 0.0097
 IR Inten    --      2.6292                 0.8164                 4.7928

                      4                      5                      6
                      A                      A                      A
 Frequencies --    104.2772               133.7246               200.6951
 Red. masses --      5.0838                 2.9001                 3.3482
 Frc consts  --      0.0326                 0.0306                 0.0795
 IR Inten    --      0.4037                 1.3934                 1.2662

                      7                      8                      9
                      A                      A                      A
 Frequencies --    221.1463               271.6937               351.3071
 Red. masses --      3.3747                10.4367                 4.0397
 Frc consts  --      0.0972                 0.4539                 0.2937
 IR Inten    --      2.3463                 0.6189                 3.5520

                     10                     11                     12
                      A                      A                      A
 Frequencies --    385.1882               458.6593               462.8459
 Red. masses --      6.7191                 2.3886                 2.5691
 Frc consts  --      0.5874                 0.2961                 0.3243
 IR Inten    --      8.9787                 2.1470                 2.8808

                     13                     14                     15
                      A                      A                      A
 Frequencies --    500.0187               522.8766               550.0171
 Red. masses --      3.2607                 4.4836                 4.6721
 Frc consts  --      0.4803                 0.7222                 0.8327
 IR Inten    --      2.5091                13.0269                 6.6578

                     16                     17                     18
                      A                      A                      A
 Frequencies --    598.7454               643.1975               707.8888
 Red. masses --      4.0607                 5.0516                 3.9122
 Frc consts  --      0.8577                 1.2313                 1.1550
 IR Inten    --      2.2689                 6.8124                 5.3069

                     19                     20                     21
                      A                      A                      A
 Frequencies --    715.8407               799.5048               848.5668
 Red. masses --      1.4183                 3.9611                 5.3158
 Frc consts  --      0.4282                 1.4918                 2.2552
 IR Inten    --     27.9649                16.7465                14.1279

                     22                     23                     24
                      A                      A                      A
 Frequencies --    878.1285               916.8893               954.6816
 Red. masses --      3.6203                 2.6409                 1.6690
 Frc consts  --      1.6448                 1.3081                 0.8963
 IR Inten    --      6.0620                10.5484                 9.5077

                     25                     26                     27
                      A                      A                      A
 Frequencies --    963.4846               989.8033               994.7425
 Red. masses --      2.5319                 1.3056                 1.3682
 Frc consts  --      1.3848                 0.7536                 0.7977
 IR Inten    --      9.5620                 0.0889                21.3259

                     28                     29                     30
                      A                      A                      A
 Frequencies --   1028.9096              1033.3528              1050.2977
 Red. masses --      1.1350                 1.5254                 2.6578
 Frc consts  --      0.7079                 0.9597                 1.7274
 IR Inten    --     26.2935               111.4704                12.1832

                     31                     32                     33
                      A                      A                      A
 Frequencies --   1149.6904              1176.1435              1191.9579
 Red. masses --      2.4446                 3.6581                 1.1588
 Frc consts  --      1.9038                 2.9814                 0.9700
 IR Inten    --     50.0361                82.9413                27.7213

                     34                     35                     36
                      A                      A                      A
 Frequencies --   1211.6918              1258.8628              1284.2261
 Red. masses --      1.2456                 3.4658                 2.6989
 Frc consts  --      1.0775                 3.2360                 2.6226
 IR Inten    --     33.8004               534.2882                20.4454

                     37                     38                     39
                      A                      A                      A
 Frequencies --   1323.6108              1366.3826              1396.1750
 Red. masses --      1.3271                 2.0022                 2.3223
 Frc consts  --      1.3698                 2.2025                 2.6672
 IR Inten    --      1.9746                 1.0977               103.5195

                     40                     41                     42
                      A                      A                      A
 Frequencies --   1431.5080              1449.0839              1458.9743
 Red. masses --      1.0914                 1.8358                 1.2391
 Frc consts  --      1.3177                 2.2712                 1.5541
 IR Inten    --     30.9019                 6.3613                30.8708

                     43                     44                     45
                      A                      A                      A
 Frequencies --   1610.1496              1705.3070              1708.8087
 Red. masses --      7.6926                 5.2115                 4.7326
 Frc consts  --     11.7504                 8.9294                 8.1421
 IR Inten    --     32.8027                26.3701                 4.9486

                     46                     47                     48
                      A                      A                      A
 Frequencies --   1834.8940              3003.1553              3082.0223
 Red. masses --     11.7835                 1.0733                 1.0858
 Frc consts  --     23.3747                 5.7032                 6.0765
 IR Inten    --    220.7214                 0.6560                 0.4460

                     49                     50                     51
                      A                      A                      A
 Frequencies --   3182.2054              3192.6278              3208.1393
 Red. masses --      1.0592                 1.0861                 1.0923
 Frc consts  --      6.3196                 6.5223                 6.6238
 IR Inten    --      5.2951                 1.2960                21.6356

                     52                     53                     54
                      A                      A                      A
 Frequencies --   3217.2693              3219.4012              3273.1737
 Red. masses --      1.0942                 1.0965                 1.1160
 Frc consts  --      6.6732                 6.6958                 7.0448
 IR Inten    --      3.9170                12.4901                 6.9825

 - Thermochemistry -
 -------------------
 Temperature   298.150 Kelvin.  Pressure   1.00000 Atm.
 Atom     1 has atomic number  6 and mass  12.00000

 Molecular mass:   180.02450 amu.
 Principal axes and moments of inertia in atomic units:
                           1         2         3
     Eigenvalues --  1252.940043017.585883675.56223
           X            0.99993   0.00205  -0.01202
           Y           -0.00183   0.99983   0.01840
           Z            0.01206  -0.01838   0.99976
 This molecule is an asymmetric top.
 Rotational symmetry number  1.
 Warning -- assumption of classical behavior for rotation
           may cause significant error
 Rotational temperatures (Kelvin)      0.06913     0.02870     0.02356
 Rotational constants (GHZ):           1.44041     0.59807     0.49101
 Zero-point vibrational energy     391021.0 (Joules/Mol)
                                   93.45626 (Kcal/Mol)
 Warning -- explicit consideration of  16 degrees of freedom as
           vibrations may cause significant error
 Vibrational temperatures:     53.83    74.61    89.77   150.03   192.40
          (Kelvin)            288.76   318.18   390.91   505.45   554.20
                              659.91   665.93   719.42   752.30   791.35
                              861.46   925.42  1018.49  1029.94  1150.31
                             1220.90  1263.43  1319.20  1373.57  1386.24
                             1424.11  1431.21  1480.37  1486.76  1511.14
                             1654.15  1692.21  1714.96  1743.35  1811.22
                             1847.71  1904.38  1965.92  2008.78  2059.62
                             2084.91  2099.14  2316.65  2453.56  2458.59
                             2640.00  4320.87  4434.34  4578.48  4593.48
                             4615.80  4628.93  4632.00  4709.37

 Zero-point correction=                           0.148932 (Hartree/Particle)
 Thermal correction to Energy=                    0.160200
 Thermal correction to Enthalpy=                  0.161145
 Thermal correction to Gibbs Free Energy=         0.110050
 Sum of electronic and zero-point Energies=           -896.245772
 Sum of electronic and thermal Energies=              -896.234504
 Sum of electronic and thermal Enthalpies=            -896.233559
 Sum of electronic and thermal Free Energies=         -896.284654

                     E (Thermal)             CV                S
                      KCal/Mol        Cal/Mol-Kelvin    Cal/Mol-Kelvin
 Total                  100.527             40.899            107.537
 Electronic               0.000              0.000              0.000
 Translational            0.889              2.981             41.470
 Rotational               0.889              2.981             31.008
 Vibrational             98.750             34.937             35.058
 Vibration     1          0.594              1.982              5.392
 Vibration     2          0.596              1.977              4.745
 Vibration     3          0.597              1.972              4.380
 Vibration     4          0.605              1.946              3.373
 Vibration     5          0.613              1.920              2.892
 Vibration     6          0.638              1.839              2.127
 Vibration     7          0.648              1.809              1.950
 Vibration     8          0.675              1.725              1.585
 Vibration     9          0.728              1.573              1.160
 Vibration    10          0.754              1.502              1.019
 Vibration    11          0.817              1.342              0.770
 Vibration    12          0.820              1.332              0.758
 Vibration    13          0.855              1.250              0.658
 Vibration    14          0.878              1.199              0.603
 Vibration    15          0.905              1.140              0.544
 Vibration    16          0.957              1.034              0.452

                           ! Non-Optimized Parameters !
 Normal termination of Gaussian 16 at Wed Dec  9 17:00:39 2020.

 ----------------------------------------------------------------------
 # B3LYP/6-311++G(d,p) empiricaldispersion=gd3bj scf=xqc pop=npa geom=c
 heck
 ----------------------------------------------------------------------

 --------------------------------------
 CID_88486002_JID_2264_Energie_neutraal
 --------------------------------------
 Structure from the checkpoint file:  "JID_2264.chk"
 Charge =  0 Multiplicity = 1

 SCF Done:  E(RB3LYP) =  -896.560149442     A.U. after   16 cycles
 Normal termination of Gaussian 16 at Wed Dec  9 17:03:08 2020.

 ----------------------------------------------------------------------
 # B3LYP/6-311++G(d,p) empiricaldispersion=gd3bj scf=xqc pop=npa geom=c
 heck
 ----------------------------------------------------------------------

 ------------------------------------
 CID_88486002_JID_2264_Energie_kation
 ------------------------------------
 Structure from the checkpoint file:  "JID_2264.chk"
 Charge =  1 Multiplicity = 2

 SCF Done:  E(UB3LYP) =  -896.263742607     A.U. after   30 cycles
 Normal termination of Gaussian 16 at Wed Dec  9 17:09:18 2020.
 Gaussian 16:  ES64L-G16RevA.03 25-Dec-2016

 ----------------------------------------------------------------------
 # B3LYP/6-311++G(d,p) empiricaldispersion=gd3bj scf=xqc pop=npa geom=c
 heck
 ----------------------------------------------------------------------

 -----------------------------------
 CID_88486002_JID_2264_Energie_anion
 -----------------------------------
 Structure from the checkpoint file:  "JID_2264.chk"
 Charge = -1 Multiplicity = 2

                         Standard orientation:
 ---------------------------------------------------------------------
 Center     Atomic      Atomic             Coordinates (Angstroms)
 Number     Number       Type             X           Y           Z
 ---------------------------------------------------------------------
      1          6           0        3.602335   -0.249806   -1.024197
      2          6           0        3.171352   -0.377227    0.232811
      3          6           0        1.750771   -0.496942    0.613115
      4          8           0        1.334493   -0.482353    1.746562
      5          8           0        0.931465   -0.672299   -0.484871
      6          6           0       -0.426564   -0.538672   -0.267337
      7          6           0       -1.210599   -1.645244   -0.361665
      8          6           0       -2.650117   -1.582126   -0.250175
      9          6           0       -3.254628   -0.409492    0.013788
     10          6           0       -2.465128    0.845300    0.214549
     11          6           0       -0.977140    0.788078   -0.081708
     12         16           0       -0.064735    2.162718   -0.171416
     13          1           0        2.909798   -0.237050   -1.858909
     14          1           0        4.659743   -0.143139   -1.247611
     15          1           0        3.849314   -0.369330    1.080580
     16          1           0       -0.727502   -2.600594   -0.543031
     17          1           0       -3.220836   -2.497241   -0.373379
     18          1           0       -4.334081   -0.344827    0.121019
     19          1           0       -2.562173    1.140269    1.273262
     20          1           0       -2.907874    1.682429   -0.337890
 ---------------------------------------------------------------------

 SCF Done:  E(UB3LYP) =  -896.606301829     A.U. after   29 cycles

 The electronic state is 2-A.
 Alpha  occ. eigenvalues --  -88.62241 -19.03212 -18.98896 -10.18097 -10.08646
 Alpha  occ. eigenvalues --  -10.08545 -10.07106 -10.04249 -10.03046 -10.02927
 Alpha  occ. eigenvalues --  -10.02474 -10.01711  -7.71050  -5.67340  -5.67088
 Alpha  occ. eigenvalues --   -5.66585  -0.97671  -0.89830  -0.70497  -0.68763
 Alpha  occ. eigenvalues --   -0.62044  -0.60859  -0.54426  -0.52154  -0.48541
 Alpha  occ. eigenvalues --   -0.44452  -0.41081  -0.38752  -0.36942  -0.35216
 Alpha  occ. eigenvalues --   -0.33369  -0.32872  -0.29865  -0.29134  -0.28475
 Alpha  occ. eigenvalues --   -0.28229  -0.26708  -0.23515  -0.22049  -0.19156
 Alpha  occ. eigenvalues --   -0.18382  -0.17963  -0.16904  -0.15956  -0.13811
 Alpha  occ. eigenvalues --   -0.06797  -0.04397   0.01718
 Alpha virt. eigenvalues --    0.05204   0.07951   0.09243   0.10663   0.10731
 Alpha virt. eigenvalues --    0.11795   0.12967   0.13474   0.13556   0.14150
 Alpha virt. eigenvalues --    0.16029   0.16378   0.16796   0.16904   0.17760

  Beta  occ. eigenvalues --  -88.62132 -19.03221 -18.98890 -10.18100 -10.08646
  Beta  occ. eigenvalues --  -10.08544 -10.07155 -10.03795 -10.03188 -10.02994
  Beta  occ. eigenvalues --  -10.02088 -10.01262  -7.70952  -5.67294  -5.66735
  Beta  occ. eigenvalues --   -5.66523  -0.97674  -0.89825  -0.70141  -0.68542
  Beta  occ. eigenvalues --   -0.61409  -0.60452  -0.54198  -0.51973  -0.48199
  Beta  occ. eigenvalues --   -0.43813  -0.40718  -0.38717  -0.36933  -0.35116
  Beta  occ. eigenvalues --   -0.33236  -0.32631  -0.29363  -0.28983  -0.28040
  Beta  occ. eigenvalues --   -0.27870  -0.26561  -0.23226  -0.21748  -0.18861
  Beta  occ. eigenvalues --   -0.18344  -0.17111  -0.16275  -0.15750  -0.11993
  Beta  occ. eigenvalues --   -0.05014  -0.04138
  Beta virt. eigenvalues --    0.05229   0.07937   0.08326   0.09227   0.10654
  Beta virt. eigenvalues --    0.10721   0.11767   0.13281   0.13551   0.13577
  Beta virt. eigenvalues --    0.15294   0.16029   0.16385   0.16816   0.16901

 Mulliken charges and spin densities:
               1          2
     1  C   -0.486063  -0.001990
     2  C    0.071040  -0.017626
     3  C   -0.069856   0.007212
     4  O   -0.187057   0.003054
     5  O    0.023677  -0.002621
     6  C   -1.070673  -0.066099
     7  C    0.478816   0.360788
     8  C   -0.572867  -0.094203
     9  C    0.294618   0.273678
    10  C   -1.065139  -0.039515
    11  C    1.594289   0.250885
    12  S   -1.020204   0.240880
    13  H    0.153570   0.008242
    14  H    0.124530  -0.000712
    15  H    0.175943   0.000256
    16  H    0.120381  -0.030367
    17  H    0.098819   0.007365
    18  H    0.128776  -0.017097
    19  H    0.107353   0.085170
    20  H    0.100049   0.032701
 Sum of Mulliken charges =  -1.00000   1.00000

 Dipole moment (field-independent basis, Debye):
    X=              2.8517    Y=             -3.9793    Z=             -1.1734  Tot=              5.0343
 Quadrupole moment (field-independent basis, Debye-Ang):
   XX=            -86.3801   YY=           -101.3428   ZZ=            -90.7359
   XY=             -1.0957   XZ=             -3.5928   YZ=              1.6325

 Summary of Natural Population Analysis:

                                       Natural Population
                Natural  -----------------------------------------------
    Atom  No    Charge         Core      Valence    Rydberg      Total
 -----------------------------------------------------------------------
      C    1   -0.15098      0.99961     2.14502    0.00635     3.15098
      C    2   -0.13771      0.99953     2.12837    0.00981     3.13771
      C    3    0.38902      0.99964     1.58677    0.02457     2.61098
      O    4   -0.28587      0.99987     3.28009    0.00591     4.28587
      O    5   -0.28307      0.99984     3.27252    0.01071     4.28307
      C    6    0.10120      0.99926     1.88279    0.01675     2.89880
      C    7   -0.00136      0.99949     1.99324    0.00864     3.00136
      C    8   -0.16260      0.99955     2.15332    0.00974     3.16260
      C    9    0.01826      0.99956     1.97326    0.00892     2.98174
      C   10   -0.23978      0.99958     2.23091    0.00929     3.23978
      C   11    0.01373      0.99954     1.97126    0.01547     2.98627
      S   12   -0.05667      4.99950     3.04171    0.01546     8.05667
      H   13    0.10584      0.00000     0.39308    0.00109     0.39416
      H   14    0.08641      0.00000     0.41250    0.00109     0.41359
      H   15    0.09926      0.00000     0.39970    0.00104     0.40074
      H   16    0.08827      0.00000     0.41031    0.00143     0.41173
      H   17    0.09089      0.00000     0.40794    0.00117     0.40911
      H   18    0.08098      0.00000     0.41775    0.00126     0.41902
      H   19    0.12616      0.00000     0.37210    0.00174     0.37384
      H   20    0.11802      0.00000     0.38077    0.00121     0.38198
 =======================================================================
   * Total *    0.00000     15.99496    30.85340    0.15164    47.00000

 Normal termination of Gaussian 16 at Wed Dec  9 17:14:50 2020.
