 Gaussian 16, Revision A.03,

 -----------------------------------------------------------
 # opt freq B3LYP/6-31G(d) empiricaldispersion=gd3bj scf=xqc
 -----------------------------------------------------------

 -----------------------------
 CID_45087846_JID_898_neutraal
 -----------------------------
 Symbolic Z-matrix:
 Charge =  0 Multiplicity = 1

 SCF Done:  E(RB3LYP) =  -423.980387964     A.U. after   15 cycles
 SCF Done:  E(RB3LYP) =  -424.000945965     A.U. after   13 cycles
 SCF Done:  E(RB3LYP) =  -424.001701919     A.U. after   12 cycles
 SCF Done:  E(RB3LYP) =  -424.001377489     A.U. after   11 cycles
 SCF Done:  E(RB3LYP) =  -424.001794995     A.U. after   10 cycles
 SCF Done:  E(RB3LYP) =  -424.001880186     A.U. after   10 cycles
 SCF Done:  E(RB3LYP) =  -424.001915750     A.U. after   10 cycles
 SCF Done:  E(RB3LYP) =  -424.001917910     A.U. after    9 cycles
 SCF Done:  E(RB3LYP) =  -424.001919759     A.U. after    8 cycles
 SCF Done:  E(RB3LYP) =  -424.001919751     A.U. after    7 cycles
 Optimization completed.
    -- Stationary point found.

 1\1\GINC-NODE358\FOpt\RB3LYP\6-31G(d)\C8H16N2\VSC10255\08-Dec-2020\0\\
 # opt freq B3LYP/6-31G(d) empiricaldispersion=gd3bj scf=xqc\\CID_45087
 846_JID_898_neutraal\\0,1\C,0.9364218017,-0.1550938414,-0.0234911854\C
 ,0.5634998933,0.694454111,-1.2524079103\C,1.2475191799,0.2295323354,-2
 .5668620751\C,1.2145064863,-1.2784636655,-2.8723853897\C,-0.1478604478
 ,-1.9824030901,-3.0098157978\N,-0.6852013658,-2.0055811248,-4.37154791
 12\C,-1.8585255262,-2.8676220277,-4.4304523334\C,-0.9994503164,-0.6812
 210876,-4.8963580265\C,-0.8977824413,0.7908877196,-1.3903580804\N,-2.0

 Normal termination of Gaussian 16 at Tue Dec  8 13:37:31 2020.

 --------------------------------------------------------------------
 #N Geom=AllCheck Guess=TCheck SCRF=Check GenChk RB3LYP/6-31G(d) Freq
 --------------------------------------------------------------------

 Structure from the checkpoint file:  "JID_898.chk"
 -----------------------------
 CID_45087846_JID_898_neutraal
 -----------------------------
 Charge =  0 Multiplicity = 1

 SCF Done:  E(RB3LYP) =  -424.001919751     A.U. after    1 cycles

  Exact polarizability: 101.647   6.803  93.862  -1.022  -0.893  82.526
 Approx polarizability: 126.937  12.203 145.201  -2.106  -5.156 118.629

                      1                      2                      3
                      A                      A                      A
 Frequencies --     49.1759                56.9724                66.5948
 Red. masses --      3.1864                 3.2044                 3.7225
 Frc consts  --      0.0045                 0.0061                 0.0097
 IR Inten    --      2.2763                 1.1587                 2.3407

                      4                      5                      6
                      A                      A                      A
 Frequencies --    142.9911               192.2524               206.3858
 Red. masses --      3.7981                 3.3378                 2.5662
 Frc consts  --      0.0458                 0.0727                 0.0644
 IR Inten    --      5.0703                 2.8953                 0.2887

                      7                      8                      9
                      A                      A                      A
 Frequencies --    243.1105               258.1310               269.2752
 Red. masses --      1.4639                 1.9444                 1.2402
 Frc consts  --      0.0510                 0.0763                 0.0530
 IR Inten    --      2.4334                 1.0345                 0.8365

                     10                     11                     12
                      A                      A                      A
 Frequencies --    288.4659               303.7397               342.9488
 Red. masses --      1.2389                 1.6394                 2.1817
 Frc consts  --      0.0607                 0.0891                 0.1512
 IR Inten    --      0.7908                 0.8564                 4.8783

                     13                     14                     15
                      A                      A                      A
 Frequencies --    369.1505               424.1302               441.0935
 Red. masses --      2.0130                 3.2168                 2.1810
 Frc consts  --      0.1616                 0.3409                 0.2500
 IR Inten    --      4.8797                 0.4800                 0.3224

                     16                     17                     18
                      A                      A                      A
 Frequencies --    501.0156               570.7655               611.3033
 Red. masses --      2.2300                 4.9794                 2.4039
 Frc consts  --      0.3298                 0.9557                 0.5293
 IR Inten    --      1.0664                 0.6723                 2.0469

                     19                     20                     21
                      A                      A                      A
 Frequencies --    738.3565               779.5894               855.1981
 Red. masses --      3.2310                 2.5774                 2.1924
 Frc consts  --      1.0378                 0.9229                 0.9447
 IR Inten    --      0.0689                 5.9955                 6.3211

                     22                     23                     24
                      A                      A                      A
 Frequencies --    881.5665               945.0304               969.3189
 Red. masses --      2.3595                 1.8419                 2.2549
 Frc consts  --      1.0804                 0.9692                 1.2483
 IR Inten    --      2.7245                 2.3721                 5.9515

                     25                     26                     27
                      A                      A                      A
 Frequencies --   1028.3390              1055.6582              1057.6910
 Red. masses --      1.5411                 1.9348                 1.7835
 Frc consts  --      0.9602                 1.2704                 1.1756
 IR Inten    --      0.1546                23.8937                16.1715

                     28                     29                     30
                      A                      A                      A
 Frequencies --   1074.6361              1116.4234              1124.0032
 Red. masses --      1.6566                 2.0591                 2.0169
 Frc consts  --      1.1272                 1.5121                 1.5013
 IR Inten    --     11.9265                 0.6086                 6.5012

                     31                     32                     33
                      A                      A                      A
 Frequencies --   1138.0178              1160.3567              1190.3941
 Red. masses --      1.3254                 1.9434                 1.3488
 Frc consts  --      1.0113                 1.5417                 1.1261
 IR Inten    --      4.8562                 1.3115                 8.6913

                     34                     35                     36
                      A                      A                      A
 Frequencies --   1232.5180              1253.2196              1286.0584
 Red. masses --      1.8538                 1.3562                 1.3146
 Frc consts  --      1.6592                 1.2550                 1.2810
 IR Inten    --     13.2330                 0.7669                 3.4364

                     37                     38                     39
                      A                      A                      A
 Frequencies --   1313.5834              1328.0378              1364.2454
 Red. masses --      2.2230                 1.4054                 1.3100
 Frc consts  --      2.2600                 1.4604                 1.4365
 IR Inten    --      9.1795                 1.5332                14.4621

                     40                     41                     42
                      A                      A                      A
 Frequencies --   1381.0822              1398.8770              1420.6304
 Red. masses --      1.3563                 1.3158                 1.3649
 Frc consts  --      1.5242                 1.5170                 1.6230
 IR Inten    --      0.4041                 9.0863                 1.8203

                     43                     44                     45
                      A                      A                      A
 Frequencies --   1439.6379              1443.0657              1467.9231
 Red. masses --      1.2496                 1.3372                 1.1593
 Frc consts  --      1.5258                 1.6407                 1.4718
 IR Inten    --      8.3491                 8.6562                 3.1167

                     46                     47                     48
                      A                      A                      A
 Frequencies --   1502.3851              1508.3942              1513.6238
 Red. masses --      1.1898                 1.0711                 1.0582
 Frc consts  --      1.5823                 1.4359                 1.4284
 IR Inten    --      1.4733                 3.9936                 8.9271

                     49                     50                     51
                      A                      A                      A
 Frequencies --   1517.8797              1523.9635              1526.6583
 Red. masses --      1.0638                 1.0528                 1.0642
 Frc consts  --      1.4441                 1.4406                 1.4614
 IR Inten    --      5.4958                 7.1890                 9.5968

                     52                     53                     54
                      A                      A                      A
 Frequencies --   1536.1331              1538.0921              1542.0050
 Red. masses --      1.0506                 1.0557                 1.0814
 Frc consts  --      1.4606                 1.4714                 1.5150
 IR Inten    --      3.0093                 8.2193                 6.8242

                     55                     56                     57
                      A                      A                      A
 Frequencies --   1548.8037              2358.8818              2944.0168
 Red. masses --      1.0540                12.6466                 1.0605
 Frc consts  --      1.4897                41.4608                 5.4155
 IR Inten    --     15.5830                 8.7779                60.8578

                     58                     59                     60
                      A                      A                      A
 Frequencies --   2965.7666              2975.8736              3036.4067
 Red. masses --      1.0686                 1.0605                 1.0805
 Frc consts  --      5.5376                 5.5335                 5.8696
 IR Inten    --     40.4649                75.6787                 3.5541

                     61                     62                     63
                      A                      A                      A
 Frequencies --   3045.5188              3056.1655              3065.4056
 Red. masses --      1.0681                 1.0728                 1.0613
 Frc consts  --      5.8369                 5.9039                 5.8759
 IR Inten    --      3.3086                44.9668                 7.3051

                     64                     65                     66
                      A                      A                      A
 Frequencies --   3067.6006              3075.1912              3085.7598
 Red. masses --      1.0546                 1.0716                 1.1008
 Frc consts  --      5.8471                 5.9706                 6.1757
 IR Inten    --     41.0814                52.1777                25.6771

                     67                     68                     69
                      A                      A                      A
 Frequencies --   3091.9568              3116.4053              3119.2901
 Red. masses --      1.0775                 1.0996                 1.1015
 Frc consts  --      6.0695                 6.2918                 6.3144
 IR Inten    --     25.7447                14.8498                76.4056

                     70                     71                     72
                      A                      A                      A
 Frequencies --   3135.6192              3137.8254              3148.8109
 Red. masses --      1.0977                 1.1028                 1.1032
 Frc consts  --      6.3590                 6.3974                 6.4446
 IR Inten    --     26.1924                16.6238                20.0548

 - Thermochemistry -
 -------------------
 Temperature   298.150 Kelvin.  Pressure   1.00000 Atm.
 Atom     1 has atomic number  6 and mass  12.00000

 Molecular mass:   140.13135 amu.
 Principal axes and moments of inertia in atomic units:
                           1         2         3
     Eigenvalues --   957.919962202.028742535.68519
           X            0.99908   0.04286   0.00106
           Y           -0.04287   0.99888   0.01989
           Z           -0.00020  -0.01992   0.99980
 This molecule is an asymmetric top.
 Rotational symmetry number  1.
 Warning -- assumption of classical behavior for rotation
           may cause significant error
 Rotational temperatures (Kelvin)      0.09042     0.03933     0.03416
 Rotational constants (GHZ):           1.88402     0.81958     0.71174
 Zero-point vibrational energy     618860.5 (Joules/Mol)
                                  147.91121 (Kcal/Mol)
 Warning -- explicit consideration of  18 degrees of freedom as
           vibrations may cause significant error
 Vibrational temperatures:     70.75    81.97    95.82   205.73   276.61
          (Kelvin)            296.94   349.78   371.39   387.43   415.04
                              437.01   493.43   531.13   610.23   634.64
                              720.85   821.20   879.53  1062.33  1121.66
                             1230.44  1268.38  1359.69  1394.63  1479.55
                             1518.86  1521.78  1546.16  1606.28  1617.19
                             1637.35  1669.49  1712.71  1773.32  1803.10
                             1850.35  1889.95  1910.75  1962.84  1987.07
                             2012.67  2043.97  2071.32  2076.25  2112.01
                             2161.60  2170.24  2177.77  2183.89  2192.64
                             2196.52  2210.15  2212.97  2218.60  2228.38
                             3393.90  4235.78  4267.08  4281.62  4368.71
                             4381.82  4397.14  4410.44  4413.59  4424.51
                             4439.72  4448.64  4483.81  4487.96  4511.46
                             4514.63  4530.44

 Zero-point correction=                           0.235712 (Hartree/Particle)
 Thermal correction to Energy=                    0.247654
 Thermal correction to Enthalpy=                  0.248598
 Thermal correction to Gibbs Free Energy=         0.197779
 Sum of electronic and zero-point Energies=           -423.766208
 Sum of electronic and thermal Energies=              -423.754266
 Sum of electronic and thermal Enthalpies=            -423.753321
 Sum of electronic and thermal Free Energies=         -423.804141

                     E (Thermal)             CV                S
                      KCal/Mol        Cal/Mol-Kelvin    Cal/Mol-Kelvin
 Total                  155.405             43.441            106.958
 Electronic               0.000              0.000              0.000
 Translational            0.889              2.981             40.724
 Rotational               0.889              2.981             30.060
 Vibrational            153.628             37.479             36.174
 Vibration     1          0.595              1.978              4.850
 Vibration     2          0.596              1.975              4.559
 Vibration     3          0.598              1.970              4.252
 Vibration     4          0.616              1.910              2.763
 Vibration     5          0.634              1.851              2.206
 Vibration     6          0.641              1.831              2.075
 Vibration     7          0.659              1.774              1.780
 Vibration     8          0.667              1.749              1.674
 Vibration     9          0.674              1.730              1.601
 Vibration    10          0.685              1.695              1.483
 Vibration    11          0.695              1.667              1.396
 Vibration    12          0.722              1.590              1.198
 Vibration    13          0.741              1.536              1.083
 Vibration    14          0.786              1.418              0.878
 Vibration    15          0.801              1.381              0.823
 Vibration    16          0.856              1.248              0.656
 Vibration    17          0.927              1.094              0.503
 Vibration    18          0.970              1.008              0.431

                           ! Non-Optimized Parameters !

 1\1\GINC-NODE358\Freq\RB3LYP\6-31G(d)\C8H16N2\VSC10255\08-Dec-2020\0\\
 #N Geom=AllCheck Guess=TCheck SCRF=Check GenChk RB3LYP/6-31G(d) Freq\\
 CID_45087846_JID_898_neutraal\\0,1\C,0.9364218017,-0.1550938414,-0.023
 4911854\C,0.5634998933,0.694454111,-1.2524079103\C,1.2475191799,0.2295
 323354,-2.5668620751\C,1.2145064863,-1.2784636655,-2.8723853897\C,-0.1
 478604478,-1.9824030901,-3.0098157978\N,-0.6852013658,-2.0055811248,-4
 .3715479112\C,-1.8585255262,-2.8676220277,-4.4304523334\C,-0.999450316
 4,-0.6812210876,-4.8963580265\C,-0.8977824413,0.7908877196,-1.39035808

 Normal termination of Gaussian 16 at Tue Dec  8 13:42:44 2020.

 ----------------------------------------------------------------------
 # B3LYP/6-311++G(d,p) empiricaldispersion=gd3bj scf=xqc pop=npa geom=c
 heck
 ----------------------------------------------------------------------

 -------------------------------------
 CID_45087846_JID_898_Energie_neutraal
 -------------------------------------
 Structure from the checkpoint file:  "JID_898.chk"
 Charge =  0 Multiplicity = 1

 SCF Done:  E(RB3LYP) =  -424.122335718     A.U. after   13 cycles
 Normal termination of Gaussian 16 at Tue Dec  8 13:46:24 2020.

 ----------------------------------------------------------------------
 # B3LYP/6-311++G(d,p) empiricaldispersion=gd3bj scf=xqc pop=npa geom=c
 heck
 ----------------------------------------------------------------------

 -----------------------------------
 CID_45087846_JID_898_Energie_kation
 -----------------------------------
 Structure from the checkpoint file:  "JID_898.chk"
 Charge =  1 Multiplicity = 2

 SCF Done:  E(UB3LYP) =  -423.824025699     A.U. after   18 cycles
 Normal termination of Gaussian 16 at Tue Dec  8 13:51:37 2020.
 Gaussian 16:  ES64L-G16RevA.03 25-Dec-2016

 ----------------------------------
 CID_45087846_JID_898_Energie_anion
 ----------------------------------
 Structure from the checkpoint file:  "JID_898.chk"
 Charge = -1 Multiplicity = 2

                         Standard orientation:
 ---------------------------------------------------------------------
 Center     Atomic      Atomic             Coordinates (Angstroms)
 Number     Number       Type             X           Y           Z
 ---------------------------------------------------------------------
      1          6           0       -2.749776   -0.553972   -0.947060
      2          6           0       -2.135489    0.059265    0.324801
      3          6           0       -1.122859   -0.872915    1.044138
      4          6           0       -0.065684   -1.562615    0.163694
      5          6           0        0.901438   -0.693252   -0.660531
      6          7           0        2.145434   -0.346877    0.029458
      7          6           0        3.070618    0.289565   -0.899116
      8          6           0        1.945016    0.493539    1.204890
      9          6           0       -1.563821    1.383528    0.036360
     10          7           0       -1.125320    2.436617   -0.181146
     11          1           0       -1.997329   -0.683141   -1.729382
     12          1           0       -3.544041    0.085562   -1.342257
     13          1           0       -3.177142   -1.534597   -0.712959
     14          1           0       -2.950284    0.244573    1.037967
     15          1           0       -0.658056   -0.307329    1.856085
     16          1           0       -1.718472   -1.662023    1.520563
     17          1           0        0.538214   -2.220917    0.800203
     18          1           0       -0.594283   -2.225323   -0.531952
     19          1           0        1.194786   -1.274312   -1.542972
     20          1           0        0.387812    0.207380   -1.044107
     21          1           0        2.695214    1.250623   -1.301509
     22          1           0        4.022721    0.482777   -0.393539
     23          1           0        3.263914   -0.379731   -1.744777
     24          1           0        1.396307    1.428077    0.987412
     25          1           0        1.401588   -0.057519    1.976918
     26          1           0        2.921589    0.758861    1.623072
 ---------------------------------------------------------------------

 SCF Done:  E(UB3LYP) =  -424.110704660     A.U. after   29 cycles

 The electronic state is 2-A.
 Alpha  occ. eigenvalues --  -14.20672 -14.20350 -10.11063 -10.10324 -10.09138
 Alpha  occ. eigenvalues --  -10.08788 -10.08530 -10.07316 -10.06569 -10.06467
 Alpha  occ. eigenvalues --   -0.82448  -0.80298  -0.72089  -0.65784  -0.60986
 Alpha  occ. eigenvalues --   -0.59552  -0.55714  -0.50983  -0.46768  -0.40693
 Alpha  occ. eigenvalues --   -0.39297  -0.37149  -0.35847  -0.35558  -0.32313
 Alpha  occ. eigenvalues --   -0.31398  -0.30314  -0.29341  -0.28971  -0.27661
 Alpha  occ. eigenvalues --   -0.27460  -0.26591  -0.26016  -0.25497  -0.23538
 Alpha  occ. eigenvalues --   -0.22721  -0.21575  -0.20835  -0.11987   0.04569
 Alpha virt. eigenvalues --    0.06722   0.07708   0.08496   0.09087   0.09683
 Alpha virt. eigenvalues --    0.10724   0.10942   0.11796   0.11946   0.12554
 Alpha virt. eigenvalues --    0.13062   0.13415   0.13624   0.14177   0.14729

  Beta  occ. eigenvalues --  -14.20666 -14.20331 -10.11040 -10.10320 -10.09125
  Beta  occ. eigenvalues --  -10.08774 -10.08515 -10.07284 -10.06510 -10.06446
  Beta  occ. eigenvalues --   -0.82432  -0.80263  -0.72025  -0.65736  -0.60956
  Beta  occ. eigenvalues --   -0.59488  -0.55620  -0.50919  -0.46709  -0.40625
  Beta  occ. eigenvalues --   -0.39256  -0.37120  -0.35820  -0.35492  -0.32250
  Beta  occ. eigenvalues --   -0.31350  -0.30275  -0.29319  -0.28917  -0.27627
  Beta  occ. eigenvalues --   -0.27408  -0.26561  -0.25973  -0.25456  -0.23484
  Beta  occ. eigenvalues --   -0.22680  -0.21530  -0.20763  -0.11958
  Beta virt. eigenvalues --    0.06730   0.07845   0.08317   0.09225   0.09678
  Beta virt. eigenvalues --    0.10301   0.11035   0.11471   0.12043   0.12339
  Beta virt. eigenvalues --    0.12991   0.13377   0.13644   0.14017   0.14450

 Mulliken charges and spin densities:
               1          2
     1  C    1.494578  -2.208882
     2  C   -2.021463   2.605091
     3  C    1.133128  -1.333081
     4  C   -0.034837  -0.478993
     5  C    0.111681  -0.522188
     6  N    0.004524   0.116125
     7  C    0.082304  -0.352964
     8  C   -0.073915  -0.367767
     9  C    1.653784  -1.882901
    10  N   -0.413608   0.084045
    11  H   -0.233019   0.397882
    12  H   -0.221512   0.375974
    13  H   -0.709119   0.890149
    14  H   -0.778552   1.020855
    15  H   -0.028753   0.122923
    16  H   -0.786228   1.014212
    17  H   -0.005924   0.195133
    18  H   -0.144563   0.295789
    19  H   -0.143720   0.300743
    20  H    0.031582   0.058595
    21  H    0.074680   0.036816
    22  H    0.004966   0.108129
    23  H   -0.070177   0.193390
    24  H    0.075610   0.058466
    25  H   -0.022801   0.163301
    26  H    0.021354   0.109159
 Sum of Mulliken charges =  -1.00000   1.00000

 Dipole moment (field-independent basis, Debye):
    X=              6.8505    Y=              2.3569    Z=             -0.7337  Tot=              7.2816
 Quadrupole moment (field-independent basis, Debye-Ang):
   XX=           -127.1038   YY=           -110.9039   ZZ=            -96.5807
   XY=             -6.1007   XZ=              4.5752   YZ=              2.2947

 Summary of Natural Population Analysis:

                                       Natural Population
                Natural  -----------------------------------------------
    Atom  No    Charge         Core      Valence    Rydberg      Total
 -----------------------------------------------------------------------
      C    1   -0.27763      0.99965     2.27114    0.00685     3.27763
      C    2   -0.16919      0.99951     2.15532    0.01436     3.16919
      C    3   -0.18058      0.99961     2.17029    0.01068     3.18058
      C    4   -0.20272      0.99962     2.19267    0.01044     3.20272
      C    5   -0.08825      0.99960     2.07593    0.01272     3.08825
      N    6   -0.27747      0.99973     2.76553    0.01221     3.77747
      C    7   -0.17452      0.99965     2.16805    0.00681     3.17452
      C    8   -0.17943      0.99964     2.17270    0.00709     3.17943
      C    9    0.16981      0.99964     1.81228    0.01827     2.83019
      N   10   -0.19493      0.99979     2.68415    0.01099     3.69493
      H   11    0.10005      0.00000     0.39823    0.00173     0.39995
      H   12    0.10464      0.00000     0.39387    0.00150     0.39536
      H   13    0.10919      0.00000     0.38718    0.00363     0.39081
      H   14    0.12534      0.00000     0.37022    0.00444     0.37466
      H   15    0.09814      0.00000     0.39995    0.00192     0.40186
      H   16    0.10883      0.00000     0.38718    0.00399     0.39117
      H   17    0.10475      0.00000     0.39338    0.00187     0.39525
      H   18    0.10349      0.00000     0.39507    0.00144     0.39651
      H   19    0.09549      0.00000     0.40304    0.00147     0.40451
      H   20    0.08502      0.00000     0.41270    0.00228     0.41498
      H   21    0.08037      0.00000     0.41810    0.00153     0.41963
      H   22    0.09121      0.00000     0.40772    0.00107     0.40879
      H   23    0.09400      0.00000     0.40476    0.00124     0.40600
      H   24    0.08840      0.00000     0.41018    0.00143     0.41160
      H   25    0.09484      0.00000     0.40372    0.00143     0.40516
      H   26    0.09116      0.00000     0.40785    0.00099     0.40884
 =======================================================================
   * Total *    0.00000      9.99643    28.86120    0.14237    39.00000

 Normal termination of Gaussian 16 at Tue Dec  8 14:03:42 2020.
