 Gaussian 16, Revision A.03,

 -----------------------------------------------------------
 # opt freq B3LYP/6-31G(d) empiricaldispersion=gd3bj scf=xqc
 -----------------------------------------------------------

 -------------------------------
 CID_130646946_JID_3582_neutraal
 -------------------------------
 Symbolic Z-matrix:
 Charge =  0 Multiplicity = 1

 SCF Done:  E(RB3LYP) =  -544.549651438     A.U. after   13 cycles
 SCF Done:  E(RB3LYP) =  -544.553443944     A.U. after   11 cycles
 SCF Done:  E(RB3LYP) =  -544.553222737     A.U. after   10 cycles
 SCF Done:  E(RB3LYP) =  -544.554027166     A.U. after   10 cycles
 SCF Done:  E(RB3LYP) =  -544.554292859     A.U. after   10 cycles
 SCF Done:  E(RB3LYP) =  -544.554340340     A.U. after    9 cycles
 SCF Done:  E(RB3LYP) =  -544.554357366     A.U. after    9 cycles
 SCF Done:  E(RB3LYP) =  -544.554361188     A.U. after    7 cycles
 SCF Done:  E(RB3LYP) =  -544.554362025     A.U. after    7 cycles
 SCF Done:  E(RB3LYP) =  -544.554362113     A.U. after    6 cycles
 Optimization completed.
    -- Stationary point found.
 Normal termination of Gaussian 16 at Wed Dec  9 23:43:07 2020.

 --------------------------------------------------------------------
 #N Geom=AllCheck Guess=TCheck SCRF=Check GenChk RB3LYP/6-31G(d) Freq
 --------------------------------------------------------------------

 Structure from the checkpoint file:  "JID_3582.chk"
 -------------------------------
 CID_130646946_JID_3582_neutraal
 -------------------------------
 Charge =  0 Multiplicity = 1

 SCF Done:  E(RB3LYP) =  -544.554362113     A.U. after    1 cycles

  Exact polarizability: 130.301  -1.423 112.327  -1.928  -1.354 113.614
 Approx polarizability: 167.912   2.329 169.655  -2.302  -0.336 170.923

                      1                      2                      3
                      A                      A                      A
 Frequencies --     67.4729                70.7224               107.9048
 Red. masses --      4.1202                 3.9550                 2.8648
 Frc consts  --      0.0111                 0.0117                 0.0197
 IR Inten    --      0.4777                 0.8507                 0.9558

                      4                      5                      6
                      A                      A                      A
 Frequencies --    122.6672               189.7095               210.5112
 Red. masses --      3.2390                 3.0309                 1.3199
 Frc consts  --      0.0287                 0.0643                 0.0345
 IR Inten    --      0.2531                 0.3363                 0.6107

                      7                      8                      9
                      A                      A                      A
 Frequencies --    242.8580               288.6340               310.6129
 Red. masses --      1.7593                 2.4059                 1.9320
 Frc consts  --      0.0611                 0.1181                 0.1098
 IR Inten    --      9.3341                 6.7122                12.4952

                     10                     11                     12
                      A                      A                      A
 Frequencies --    328.5291               343.2345               394.7162
 Red. masses --      2.0448                 1.4638                 2.0360
 Frc consts  --      0.1300                 0.1016                 0.1869
 IR Inten    --     34.4245                77.0215                 4.6424

                     13                     14                     15
                      A                      A                      A
 Frequencies --    433.4693               444.1494               472.6207
 Red. masses --      2.3569                 3.0851                 2.2134
 Frc consts  --      0.2609                 0.3586                 0.2913
 IR Inten    --      3.3138                11.3180                 2.5951

                     16                     17                     18
                      A                      A                      A
 Frequencies --    481.6163               555.8406               589.7930
 Red. masses --      2.3289                 3.2536                 3.0211
 Frc consts  --      0.3183                 0.5923                 0.6192
 IR Inten    --      4.0801                 0.6728                 2.1033

                     19                     20                     21
                      A                      A                      A
 Frequencies --    698.5397               770.0498               772.4348
 Red. masses --      2.9974                 3.8026                 3.2461
 Frc consts  --      0.8617                 1.3285                 1.1411
 IR Inten    --      1.4307                 0.2590                 0.4788

                     22                     23                     24
                      A                      A                      A
 Frequencies --    803.4064               823.7585               833.0355
 Red. masses --      1.8824                 1.8980                 1.8099
 Frc consts  --      0.7159                 0.7588                 0.7400
 IR Inten    --      5.5242                 0.4858                 3.0838

                     25                     26                     27
                      A                      A                      A
 Frequencies --    850.6429               896.3609               906.9648
 Red. masses --      2.0482                 2.4035                 1.9775
 Frc consts  --      0.8732                 1.1378                 0.9584
 IR Inten    --      0.2869                 1.1055                 4.5093

                     28                     29                     30
                      A                      A                      A
 Frequencies --    932.4618               947.6195               959.3429
 Red. masses --      2.6697                 1.4735                 1.9591
 Frc consts  --      1.3677                 0.7796                 1.0623
 IR Inten    --      0.6747                 0.8112                 0.3567

                     31                     32                     33
                      A                      A                      A
 Frequencies --    971.3657               978.1941               979.9677
 Red. masses --      1.5943                 1.8985                 1.6762
 Frc consts  --      0.8863                 1.0703                 0.9484
 IR Inten    --      0.7902                 0.7814                 0.6347

                     34                     35                     36
                      A                      A                      A
 Frequencies --    989.0585              1018.4623              1032.0610
 Red. masses --      1.6788                 2.3403                 1.9064
 Frc consts  --      0.9676                 1.4302                 1.1964
 IR Inten    --      7.9901                 0.8004                 1.3890

                     37                     38                     39
                      A                      A                      A
 Frequencies --   1051.7841              1058.2714              1074.2835
 Red. masses --      2.5259                 1.8729                 1.6253
 Frc consts  --      1.6463                 1.2358                 1.1052
 IR Inten    --     50.8948                24.5797                25.6523

                     40                     41                     42
                      A                      A                      A
 Frequencies --   1083.7317              1100.1796              1118.4217
 Red. masses --      1.7640                 1.6466                 1.7031
 Frc consts  --      1.2206                 1.1743                 1.2552
 IR Inten    --      2.0310                 3.1649                 1.6619

                     43                     44                     45
                      A                      A                      A
 Frequencies --   1132.3794              1149.5043              1153.1585
 Red. masses --      1.5963                 1.1142                 1.1241
 Frc consts  --      1.2060                 0.8674                 0.8807
 IR Inten    --      2.2475                 0.2638                 1.0411

                     46                     47                     48
                      A                      A                      A
 Frequencies --   1179.3363              1185.2396              1205.8098
 Red. masses --      1.5694                 1.5930                 1.4179
 Frc consts  --      1.2861                 1.3185                 1.2147
 IR Inten    --     13.0078                 5.2096                 2.3367

                     49                     50                     51
                      A                      A                      A
 Frequencies --   1234.3749              1257.2773              1277.9637
 Red. masses --      1.5505                 1.3604                 1.4794
 Frc consts  --      1.3919                 1.2670                 1.4236
 IR Inten    --      5.3435                 0.8766                 6.2081

                     52                     53                     54
                      A                      A                      A
 Frequencies --   1279.0195              1294.1619              1304.6996
 Red. masses --      1.5730                 1.4902                 1.5140
 Frc consts  --      1.5161                 1.4705                 1.5185
 IR Inten    --      3.8643                 0.4766                 0.6165

                     55                     56                     57
                      A                      A                      A
 Frequencies --   1321.3524              1327.6752              1345.3653
 Red. masses --      1.4189                 1.7174                 1.5487
 Frc consts  --      1.4596                 1.7836                 1.6516
 IR Inten    --      0.3332                 0.8387                 0.0161

                     58                     59                     60
                      A                      A                      A
 Frequencies --   1358.6035              1360.7277              1372.7777
 Red. masses --      1.4881                 1.5064                 1.3780
 Frc consts  --      1.6184                 1.6433                 1.5300
 IR Inten    --      0.9189                 0.9108                 1.8598

                     61                     62                     63
                      A                      A                      A
 Frequencies --   1380.1282              1419.2165              1433.4123
 Red. masses --      1.4792                 1.3286                 1.3342
 Frc consts  --      1.6600                 1.5766                 1.6152
 IR Inten    --      0.8956                28.0092                 7.8613

                     64                     65                     66
                      A                      A                      A
 Frequencies --   1444.8266              1458.0237              1519.0789
 Red. masses --      1.2699                 1.5797                 1.1875
 Frc consts  --      1.5619                 1.9786                 1.6146
 IR Inten    --      3.2858                34.0494                 7.5129

                     67                     68                     69
                      A                      A                      A
 Frequencies --   1522.6246              1525.0361              1527.4077
 Red. masses --      1.0941                 1.0651                 1.0958
 Frc consts  --      1.4945                 1.4596                 1.5062
 IR Inten    --      1.1816                 4.2394                 4.1302

                     70                     71                     72
                      A                      A                      A
 Frequencies --   1533.9544              1540.7889              1551.7985
 Red. masses --      1.1271                 1.1647                 1.0785
 Frc consts  --      1.5625                 1.6291                 1.5302
 IR Inten    --      1.0776                 1.5384                 3.4391

                     73                     74                     75
                      A                      A                      A
 Frequencies --   1558.2945              3010.2979              3014.8335
 Red. masses --      1.1011                 1.0708                 1.0833
 Frc consts  --      1.5753                 5.7172                 5.8012
 IR Inten    --      6.3005                51.0065                20.6754

                     76                     77                     78
                      A                      A                      A
 Frequencies --   3033.6073              3053.0813              3057.5287
 Red. masses --      1.0432                 1.0591                 1.0659
 Frc consts  --      5.6563                 5.8168                 5.8710
 IR Inten    --     31.6433                36.1344                21.4104

                     79                     80                     81
                      A                      A                      A
 Frequencies --   3060.0095              3066.0601              3088.0377
 Red. masses --      1.0591                 1.0697                 1.0979
 Frc consts  --      5.8431                 5.9246                 6.1687
 IR Inten    --     40.6187                29.5487                31.7043

                     82                     83                     84
                      A                      A                      A
 Frequencies --   3092.9960              3093.6168              3099.5246
 Red. masses --      1.1058                 1.0932                 1.1015
 Frc consts  --      6.2328                 6.1641                 6.2347
 IR Inten    --     37.1148                33.0240                21.2357

                     85                     86                     87
                      A                      A                      A
 Frequencies --   3101.2563              3106.7790              3109.3643
 Red. masses --      1.0869                 1.1074                 1.0911
 Frc consts  --      6.1592                 6.2978                 6.2153
 IR Inten    --     67.4721                50.2040                56.6902

                     88                     89                     90
                      A                      A                      A
 Frequencies --   3129.5060              3139.9711              3148.4392
 Red. masses --      1.0964                 1.0585                 1.0912
 Frc consts  --      6.3264                 6.1486                 6.3729
 IR Inten    --     24.3839                19.1950                41.5952

                     91                     92                     93
                      A                      A                      A
 Frequencies --   3194.8572              3222.8589              3744.9506
 Red. masses --      1.0864                 1.1141                 1.0658
 Frc consts  --      6.5333                 6.8180                 8.8065
 IR Inten    --     10.1532                14.9135                 5.5538

 - Thermochemistry -
 -------------------
 Temperature   298.150 Kelvin.  Pressure   1.00000 Atm.
 Atom     1 has atomic number  6 and mass  12.00000

 Molecular mass:   180.15142 amu.
 Principal axes and moments of inertia in atomic units:
                           1         2         3
     Eigenvalues --  1351.256603181.073033338.32365
           X            0.99980  -0.01973   0.00243
           Y            0.01987   0.99446  -0.10327
           Z           -0.00037   0.10329   0.99465
 This molecule is an asymmetric top.
 Rotational symmetry number  1.
 Warning -- assumption of classical behavior for rotation
           may cause significant error
 Rotational temperatures (Kelvin)      0.06410     0.02723     0.02595
 Rotational constants (GHZ):           1.33560     0.56734     0.54061
 Zero-point vibrational energy     795678.5 (Joules/Mol)
                                  190.17172 (Kcal/Mol)
 Warning -- explicit consideration of  18 degrees of freedom as
           vibrations may cause significant error
 Vibrational temperatures:     97.08   101.75   155.25   176.49   272.95
          (Kelvin)            302.88   349.42   415.28   446.90   472.68
                              493.84   567.91   623.67   639.03   680.00
                              692.94   799.73   848.58  1005.04  1107.93
                             1111.36  1155.92  1185.20  1198.55  1223.89
                             1289.66  1304.92  1341.60  1363.41  1380.28
                             1397.58  1407.40  1409.96  1423.03  1465.34
                             1484.91  1513.28  1522.62  1545.65  1559.25
                             1582.91  1609.16  1629.24  1653.88  1659.14
                             1696.80  1705.30  1734.89  1775.99  1808.94
                             1838.70  1840.22  1862.01  1877.17  1901.13
                             1910.23  1935.68  1954.73  1957.78  1975.12
                             1985.70  2041.94  2062.36  2078.78  2097.77
                             2185.62  2190.72  2194.19  2197.60  2207.02
                             2216.85  2232.69  2242.04  4331.15  4337.67
                             4364.68  4392.70  4399.10  4402.67  4411.38
                             4443.00  4450.13  4451.02  4459.52  4462.02
                             4469.96  4473.68  4502.66  4517.72  4529.90
                             4596.69  4636.98  5388.15

 Zero-point correction=                           0.303058 (Hartree/Particle)
 Thermal correction to Energy=                    0.315319
 Thermal correction to Enthalpy=                  0.316263
 Thermal correction to Gibbs Free Energy=         0.265158
 Sum of electronic and zero-point Energies=           -544.251304
 Sum of electronic and thermal Energies=              -544.239043
 Sum of electronic and thermal Enthalpies=            -544.238099
 Sum of electronic and thermal Free Energies=         -544.289205

                     E (Thermal)             CV                S
                      KCal/Mol        Cal/Mol-Kelvin    Cal/Mol-Kelvin
 Total                  197.866             49.983            107.561
 Electronic               0.000              0.000              0.000
 Translational            0.889              2.981             41.473
 Rotational               0.889              2.981             31.040
 Vibrational            196.088             44.021             35.048
 Vibration     1          0.598              1.970              4.226
 Vibration     2          0.598              1.968              4.133
 Vibration     3          0.606              1.943              3.306
 Vibration     4          0.610              1.930              3.058
 Vibration     5          0.633              1.854              2.231
 Vibration     6          0.643              1.825              2.039
 Vibration     7          0.659              1.775              1.782
 Vibration     8          0.685              1.695              1.482
 Vibration     9          0.699              1.653              1.359
 Vibration    10          0.712              1.618              1.267
 Vibration    11          0.722              1.589              1.197
 Vibration    12          0.762              1.481              0.982
 Vibration    13          0.794              1.397              0.847
 Vibration    14          0.804              1.374              0.814
 Vibration    15          0.829              1.311              0.730
 Vibration    16          0.838              1.291              0.706
 Vibration    17          0.911              1.127              0.532
 Vibration    18          0.947              1.054              0.468

 Optimization completed.
    -- Stationary point found.
 Normal termination of Gaussian 16 at Wed Dec  9 23:53:28 2020.

 ----------------------------------------------------------------------
 # B3LYP/6-311++G(d,p) empiricaldispersion=gd3bj scf=xqc pop=npa geom=c
 heck
 ----------------------------------------------------------------------

 ---------------------------------------
 CID_130646946_JID_3582_Energie_neutraal
 ---------------------------------------
 Structure from the checkpoint file:  "JID_3582.chk"
 Charge =  0 Multiplicity = 1

 SCF Done:  E(RB3LYP) =  -544.709896639     A.U. after   13 cycles
 Normal termination of Gaussian 16 at Wed Dec  9 23:57:21 2020.

 ----------------------------------------------------------------------
 # B3LYP/6-311++G(d,p) empiricaldispersion=gd3bj scf=xqc pop=npa geom=c
 heck
 ----------------------------------------------------------------------

 -------------------------------------
 CID_130646946_JID_3582_Energie_kation
 -------------------------------------
 Structure from the checkpoint file:  "JID_3582.chk"
 Charge =  1 Multiplicity = 2

 SCF Done:  E(UB3LYP) =  -544.374933296     A.U. after   31 cycles
 Normal termination of Gaussian 16 at Thu Dec 10 00:09:28 2020.
 Gaussian 16:  ES64L-G16RevA.03 25-Dec-2016

 ----------------------------------------------------------------------
 # B3LYP/6-311++G(d,p) empiricaldispersion=gd3bj scf=xqc pop=npa geom=c
 heck
 ----------------------------------------------------------------------

 ------------------------------------
 CID_130646946_JID_3582_Energie_anion
 ------------------------------------
 Structure from the checkpoint file:  "JID_3582.chk"
 Charge = -1 Multiplicity = 2

                         Standard orientation:
 ---------------------------------------------------------------------
 Center     Atomic      Atomic             Coordinates (Angstroms)
 Number     Number       Type             X           Y           Z
 ---------------------------------------------------------------------
      1          6           0       -1.822763    1.652342   -0.962562
      2          6           0       -0.945283    0.917480    0.042817
      3          6           0       -1.341726    1.003195    1.498426
      4          6           0       -1.512520   -0.299989    0.751169
      5          6           0       -2.869515   -0.868943    0.415589
      6          8           0       -2.836811   -1.641984   -0.782860
      7          6           0        0.521517    0.924404   -0.393295
      8          6           0        0.883206   -0.195349   -1.429142
      9          6           0        2.260912   -0.698184   -0.941552
     10          6           0        2.045517   -1.557685    0.326927
     11          6           0        1.728239   -0.494150    1.424818
     12          6           0        1.688234    0.831020    0.630725
     13          6           0        2.866019    0.590730   -0.343267
     14          1           0       -1.722864    1.223191   -1.969030
     15          1           0       -1.521332    2.704617   -1.030895
     16          1           0       -2.882040    1.634327   -0.691886
     17          1           0       -0.564927    1.066180    2.254119
     18          1           0       -2.240200    1.566456    1.742670
     19          1           0       -0.791825   -1.081989    0.968127
     20          1           0       -3.192488   -1.561393    1.200016
     21          1           0       -3.629570   -0.075038    0.357802
     22          1           0       -2.496100   -1.058375   -1.478551
     23          1           0        0.671633    1.894885   -0.885758
     24          1           0        0.135729   -0.997250   -1.432143
     25          1           0        0.942323    0.205958   -2.446980
     26          1           0        2.850849   -1.196222   -1.715898
     27          1           0        1.231930   -2.278614    0.191064
     28          1           0        2.947344   -2.126931    0.576727
     29          1           0        0.821287   -0.710409    1.990046
     30          1           0        2.544001   -0.441026    2.154960
     31          1           0        1.765698    1.720397    1.262740
     32          1           0        3.819910    0.424749    0.170397
     33          1           0        2.994095    1.393132   -1.078570
 ---------------------------------------------------------------------

 SCF Done:  E(UB3LYP) =  -544.695128606     A.U. after   29 cycles

 The electronic state is 2-A.
 Alpha  occ. eigenvalues --  -19.02825 -10.12270 -10.08742 -10.07609 -10.07335
 Alpha  occ. eigenvalues --  -10.06912 -10.06783 -10.06667 -10.06380 -10.06069
 Alpha  occ. eigenvalues --  -10.06034 -10.05693 -10.05665  -0.92853  -0.78269
 Alpha  occ. eigenvalues --   -0.75784  -0.65138  -0.62360  -0.61489  -0.59658
 Alpha  occ. eigenvalues --   -0.58691  -0.51109  -0.49557  -0.45903  -0.44528
 Alpha  occ. eigenvalues --   -0.42956  -0.41592  -0.40364  -0.37998  -0.37081
 Alpha  occ. eigenvalues --   -0.35341  -0.34442  -0.31446  -0.31319  -0.30147
 Alpha  occ. eigenvalues --   -0.29257  -0.28645  -0.27970  -0.26058  -0.25467
 Alpha  occ. eigenvalues --   -0.25117  -0.24077  -0.23544  -0.22438  -0.21906
 Alpha  occ. eigenvalues --   -0.20566  -0.19584  -0.18877  -0.17561  -0.16731
 Alpha  occ. eigenvalues --    0.04458
 Alpha virt. eigenvalues --    0.06577   0.07188   0.07700   0.08679   0.08742
 Alpha virt. eigenvalues --    0.09367   0.09625   0.10271   0.11171   0.11329
 Alpha virt. eigenvalues --    0.11690   0.12078   0.12655   0.13930   0.14227

  Beta  occ. eigenvalues --  -19.02813 -10.12259 -10.08740 -10.07603 -10.07321
  Beta  occ. eigenvalues --  -10.06903 -10.06775 -10.06660 -10.06339 -10.06057
  Beta  occ. eigenvalues --  -10.06019 -10.05671 -10.05649  -0.92830  -0.78251
  Beta  occ. eigenvalues --   -0.75760  -0.65110  -0.62326  -0.61447  -0.59617
  Beta  occ. eigenvalues --   -0.58652  -0.51066  -0.49516  -0.45854  -0.44489
  Beta  occ. eigenvalues --   -0.42926  -0.41559  -0.40303  -0.37974  -0.37047
  Beta  occ. eigenvalues --   -0.35306  -0.34416  -0.31415  -0.31282  -0.30118
  Beta  occ. eigenvalues --   -0.29220  -0.28616  -0.27939  -0.26031  -0.25446
  Beta  occ. eigenvalues --   -0.25098  -0.24041  -0.23516  -0.22411  -0.21874
  Beta  occ. eigenvalues --   -0.20541  -0.19559  -0.18852  -0.17540  -0.16709
  Beta virt. eigenvalues --    0.06664   0.07458   0.07870   0.08188   0.09222
  Beta virt. eigenvalues --    0.09383   0.09759   0.10095   0.10735   0.11682
  Beta virt. eigenvalues --    0.11833   0.11947   0.12532   0.13147   0.14235

 Mulliken charges and spin densities:
               1          2
     1  C    1.602084  -2.053754
     2  C   -1.906485   2.031076
     3  C   -0.757754   0.146411
     4  C    0.270702  -0.249048
     5  C    0.570272  -1.117086
     6  O   -0.228256   0.013941
     7  C    1.634861  -1.410794
     8  C    0.585229  -1.349834
     9  C   -0.860119   1.276020
    10  C    0.904677  -1.437692
    11  C   -0.394391  -0.098481
    12  C   -1.498194   1.673200
    13  C    1.190393  -1.933079
    14  H   -0.229447   0.396030
    15  H   -0.499280   0.674985
    16  H   -0.027896   0.146212
    17  H   -0.042440   0.203725
    18  H   -0.291226   0.447309
    19  H    0.232558  -0.030661
    20  H    0.059475   0.097874
    21  H    0.021861   0.132037
    22  H    0.150309   0.093154
    23  H    0.318588  -0.109722
    24  H    0.174383  -0.061576
    25  H   -0.349075   0.519163
    26  H   -0.276908   0.509990
    27  H    0.053265   0.076238
    28  H   -0.169696   0.334931
    29  H    0.198013  -0.088604
    30  H   -0.490459   0.669226
    31  H   -0.319312   0.560229
    32  H   -0.315365   0.481652
    33  H   -0.310369   0.456927
 Sum of Mulliken charges =  -1.00000   1.00000

 Dipole moment (field-independent basis, Debye):
    X=             -2.8549    Y=             -2.2754    Z=              1.6766  Tot=              4.0173
 Quadrupole moment (field-independent basis, Debye-Ang):
   XX=           -149.9511   YY=           -127.4696   ZZ=           -124.7659
   XY=              1.2330   XZ=             -6.2510   YZ=              1.9659

 Summary of Natural Population Analysis:

                                       Natural Population
                Natural  -----------------------------------------------
    Atom  No    Charge         Core      Valence    Rydberg      Total
 -----------------------------------------------------------------------
      C    1   -0.28504      0.99962     2.27819    0.00723     3.28504
      C    2   -0.03640      0.99953     2.02163    0.01524     3.03640
      C    3   -0.19030      0.99956     2.18150    0.00923     3.19030
      C    4   -0.13020      0.99953     2.12083    0.00985     3.13020
      C    5   -0.00778      0.99956     1.99651    0.01171     3.00778
      O    6   -0.36921      0.99990     3.36293    0.00638     4.36921
      C    7   -0.10833      0.99954     2.09449    0.01430     3.10833
      C    8   -0.18886      0.99961     2.17985    0.00940     3.18886
      C    9   -0.11162      0.99960     2.09994    0.01207     3.11162
      C   10   -0.19170      0.99963     2.18360    0.00847     3.19170
      C   11   -0.19690      0.99962     2.18841    0.00887     3.19690
      C   12   -0.10578      0.99959     2.09423    0.01197     3.10578
      C   13   -0.18789      0.99962     2.17889    0.00938     3.18789
      H   14    0.09897      0.00000     0.39943    0.00159     0.40103
      H   15    0.10529      0.00000     0.39326    0.00145     0.39471
      H   16    0.09923      0.00000     0.39933    0.00144     0.40077
      H   17    0.10660      0.00000     0.39238    0.00102     0.39340
      H   18    0.10102      0.00000     0.39798    0.00100     0.39898
      H   19    0.10641      0.00000     0.39157    0.00202     0.39359
      H   20    0.08576      0.00000     0.41314    0.00110     0.41424
      H   21    0.07705      0.00000     0.42140    0.00155     0.42295
      H   22    0.22887      0.00000     0.26778    0.00336     0.27113
      H   23    0.10272      0.00000     0.39501    0.00227     0.39728
      H   24    0.09717      0.00000     0.40120    0.00162     0.40283
      H   25    0.10147      0.00000     0.39722    0.00131     0.39853
      H   26    0.10075      0.00000     0.39809    0.00116     0.39925
      H   27    0.09561      0.00000     0.40322    0.00117     0.40439
      H   28    0.09947      0.00000     0.39942    0.00110     0.40053
      H   29    0.09757      0.00000     0.40089    0.00154     0.40243
      H   30    0.10064      0.00000     0.39793    0.00143     0.39936
      H   31    0.10418      0.00000     0.39435    0.00146     0.39582
      H   32    0.10026      0.00000     0.39815    0.00159     0.39974
      H   33    0.10096      0.00000     0.39756    0.00147     0.39904
 =======================================================================
   * Total *    0.00000     12.99492    36.84032    0.16476    50.00000

 Normal termination of Gaussian 16 at Thu Dec 10 00:20:25 2020.
