 Gaussian 16, Revision A.03,

 -----------------------------------------------------------
 # opt freq B3LYP/6-31G(d) empiricaldispersion=gd3bj scf=xqc
 -----------------------------------------------------------

 ------------------------------
 CID_87554375_JID_1049_neutraal
 ------------------------------
 Symbolic Z-matrix:
 Charge =  0 Multiplicity = 1

 SCF Done:  E(RB3LYP) =  -495.573660544     A.U. after   14 cycles
 SCF Done:  E(RB3LYP) =  -495.576026413     A.U. after   13 cycles
 SCF Done:  E(RB3LYP) =  -495.576407543     A.U. after   12 cycles
 SCF Done:  E(RB3LYP) =  -495.576536514     A.U. after   11 cycles
 SCF Done:  E(RB3LYP) =  -495.576594377     A.U. after   11 cycles
 SCF Done:  E(RB3LYP) =  -495.576642335     A.U. after   12 cycles
 SCF Done:  E(RB3LYP) =  -495.576654716     A.U. after   11 cycles
 SCF Done:  E(RB3LYP) =  -495.576660624     A.U. after   10 cycles
 SCF Done:  E(RB3LYP) =  -495.576663018     A.U. after    9 cycles
 SCF Done:  E(RB3LYP) =  -495.576668386     A.U. after    9 cycles
 SCF Done:  E(RB3LYP) =  -495.576682266     A.U. after   10 cycles
 SCF Done:  E(RB3LYP) =  -495.576690205     A.U. after   10 cycles
 SCF Done:  E(RB3LYP) =  -495.576693017     A.U. after   10 cycles
 SCF Done:  E(RB3LYP) =  -495.576693196     A.U. after    8 cycles
 SCF Done:  E(RB3LYP) =  -495.576693234     A.U. after    7 cycles
 Optimization completed.
    -- Stationary point found.
 Normal termination of Gaussian 16 at Tue Dec  8 19:12:11 2020.

 --------------------------------------------------------------------
 #N Geom=AllCheck Guess=TCheck SCRF=Check GenChk RB3LYP/6-31G(d) Freq
 --------------------------------------------------------------------

 Structure from the checkpoint file:  "JID_1049.chk"
 ------------------------------
 CID_87554375_JID_1049_neutraal
 ------------------------------
 Charge =  0 Multiplicity = 1

 SCF Done:  E(RB3LYP) =  -495.576693234     A.U. after    1 cycles

  Exact polarizability: 125.024  11.292  98.266 -11.177   0.679  61.817
 Approx polarizability: 180.978  22.267 168.065 -24.975   2.258  94.760

                      1                      2                      3
                      A                      A                      A
 Frequencies --     31.7693                52.9154                57.6962
 Red. masses --      3.7178                 4.3690                 1.2263
 Frc consts  --      0.0022                 0.0072                 0.0024
 IR Inten    --      0.1356                 0.5585                 0.0411

                      4                      5                      6
                      A                      A                      A
 Frequencies --     88.8737               222.4101               267.6982
 Red. masses --      2.6528                 4.9912                 4.9353
 Frc consts  --      0.0123                 0.1455                 0.2084
 IR Inten    --      0.7768                 1.0435                 0.4935

                      7                      8                      9
                      A                      A                      A
 Frequencies --    292.7122               337.6856               380.9713
 Red. masses --      4.4346                 5.5099                 1.8652
 Frc consts  --      0.2239                 0.3702                 0.1595
 IR Inten    --      0.1073                 4.3256                 1.5268

                     10                     11                     12
                      A                      A                      A
 Frequencies --    390.0662               402.0379               497.1849
 Red. masses --      2.6090                 1.2653                 3.9255
 Frc consts  --      0.2339                 0.1205                 0.5717
 IR Inten    --      0.0160                94.6587                 9.6734

                     13                     14                     15
                      A                      A                      A
 Frequencies --    525.7689               594.6135               662.0303
 Red. masses --      2.7111                 4.9951                 3.3970
 Frc consts  --      0.4416                 1.0405                 0.8772
 IR Inten    --     30.4590                14.7744                32.4103

                     16                     17                     18
                      A                      A                      A
 Frequencies --    688.5894               760.2329               805.9724
 Red. masses --      6.6616                 3.9876                 2.0057
 Frc consts  --      1.8610                 1.3579                 0.7676
 IR Inten    --      1.2311                 0.5143                 7.5161

                     19                     20                     21
                      A                      A                      A
 Frequencies --    842.4692               853.8762               895.7755
 Red. masses --      3.4117                 2.0825                 1.2457
 Frc consts  --      1.4267                 0.8946                 0.5889
 IR Inten    --      1.9704                10.1927                 0.2335

                     22                     23                     24
                      A                      A                      A
 Frequencies --    938.2674               979.9489               985.3283
 Red. masses --      2.0028                 1.3499                 3.4482
 Frc consts  --      1.0388                 0.7638                 1.9724
 IR Inten    --     13.9780                 5.9366                97.0309

                     25                     26                     27
                      A                      A                      A
 Frequencies --    994.6365              1015.1099              1053.9259
 Red. masses --      1.4415                 7.3404                 1.6055
 Frc consts  --      0.8402                 4.4565                 1.0507
 IR Inten    --      0.1568                 6.0896                 5.1059

                     28                     29                     30
                      A                      A                      A
 Frequencies --   1061.9228              1104.1919              1121.6295
 Red. masses --      1.7554                 1.9883                 1.5281
 Frc consts  --      1.1663                 1.4283                 1.1326
 IR Inten    --     48.9402                 2.4611                 0.5527

                     31                     32                     33
                      A                      A                      A
 Frequencies --   1202.8970              1236.2716              1257.6215
 Red. masses --      1.2929                 2.5546                 1.3017
 Frc consts  --      1.1023                 2.3004                 1.2130
 IR Inten    --     24.4541                 0.8915                 3.3464

                     34                     35                     36
                      A                      A                      A
 Frequencies --   1284.0698              1306.6534              1343.1707
 Red. masses --      2.9369                 3.5664                 1.7865
 Frc consts  --      2.8531                 3.5876                 1.8989
 IR Inten    --     26.2821                 2.9429                 7.1457

                     37                     38                     39
                      A                      A                      A
 Frequencies --   1385.0017              1411.0618              1432.0138
 Red. masses --      1.2890                 1.3687                 1.2395
 Frc consts  --      1.4568                 1.6056                 1.4976
 IR Inten    --      2.8706                41.2259                13.5788

                     40                     41                     42
                      A                      A                      A
 Frequencies --   1462.6497              1500.1596              1503.7355
 Red. masses --      2.0667                 1.0926                 1.0564
 Frc consts  --      2.6050                 1.4487                 1.4074
 IR Inten    --     20.3170                 9.1269                 5.7845

                     43                     44                     45
                      A                      A                      A
 Frequencies --   1515.2145              1545.0228              1623.4044
 Red. masses --      1.0886                 2.1353                 6.8002
 Frc consts  --      1.4726                 3.0032                10.5591
 IR Inten    --      9.0283                 3.3969                15.1764

                     46                     47                     48
                      A                      A                      A
 Frequencies --   1656.6654              1738.8943              3049.1576
 Red. masses --      5.3680                 7.0282                 1.0625
 Frc consts  --      8.6802                12.5211                 5.8202
 IR Inten    --     62.3794                 3.7560                17.7623

                     49                     50                     51
                      A                      A                      A
 Frequencies --   3061.7544              3104.6838              3120.0897
 Red. masses --      1.0364                 1.1000                 1.0996
 Frc consts  --      5.7243                 6.2472                 6.3068
 IR Inten    --      7.2563                 7.2389                 7.6062

                     52                     53                     54
                      A                      A                      A
 Frequencies --   3151.8808              3168.9596              3173.1479
 Red. masses --      1.1036                 1.0875                 1.0895
 Frc consts  --      6.4595                 6.4347                 6.4636
 IR Inten    --     11.2963                26.1096                24.6569

                     55                     56                     57
                      A                      A                      A
 Frequencies --   3195.3650              3205.2483              3761.2935
 Red. masses --      1.0940                 1.0939                 1.0677
 Frc consts  --      6.5814                 6.6213                 8.8993
 IR Inten    --     22.7558                 7.1132                74.2794

 - Thermochemistry -
 -------------------
 Temperature   298.150 Kelvin.  Pressure   1.00000 Atm.
 Atom     1 has atomic number  6 and mass  12.00000

 Molecular mass:   150.07931 amu.
 Principal axes and moments of inertia in atomic units:
                           1         2         3
     Eigenvalues --   677.232863072.038563296.25679
           X            0.99998   0.00169   0.00529
           Y           -0.00154   0.99963  -0.02732
           Z           -0.00534   0.02731   0.99961
 This molecule is an asymmetric top.
 Rotational symmetry number  1.
 Warning -- assumption of classical behavior for rotation
           may cause significant error
 Rotational temperatures (Kelvin)      0.12789     0.02819     0.02628
 Rotational constants (GHZ):           2.66488     0.58747     0.54751
 Zero-point vibrational energy     450408.4 (Joules/Mol)
                                  107.65018 (Kcal/Mol)
 Warning -- explicit consideration of  14 degrees of freedom as
           vibrations may cause significant error
 Vibrational temperatures:     45.71    76.13    83.01   127.87   320.00
          (Kelvin)            385.16   421.15   485.85   548.13   561.22
                              578.44   715.34   756.46   855.52   952.51
                              990.73  1093.81  1159.61  1212.13  1228.54
                             1288.82  1349.96  1409.93  1417.67  1431.06
                             1460.52  1516.36  1527.87  1588.69  1613.77
                             1730.70  1778.72  1809.44  1847.49  1879.98
                             1932.52  1992.71  2030.20  2060.35  2104.43
                             2158.40  2163.54  2180.06  2222.94  2335.72
                             2383.57  2501.88  4387.06  4405.18  4466.95
                             4489.11  4534.85  4559.43  4565.45  4597.42
                             4611.64  5411.66

 Zero-point correction=                           0.171551 (Hartree/Particle)
 Thermal correction to Energy=                    0.182038
 Thermal correction to Enthalpy=                  0.182982
 Thermal correction to Gibbs Free Energy=         0.133802
 Sum of electronic and zero-point Energies=           -495.405142
 Sum of electronic and thermal Energies=              -495.394656
 Sum of electronic and thermal Enthalpies=            -495.393712
 Sum of electronic and thermal Free Energies=         -495.442891

                     E (Thermal)             CV                S
                      KCal/Mol        Cal/Mol-Kelvin    Cal/Mol-Kelvin
 Total                  114.230             38.357            103.507
 Electronic               0.000              0.000              0.000
 Translational            0.889              2.981             40.928
 Rotational               0.889              2.981             30.307
 Vibrational            112.453             32.395             32.273
 Vibration     1          0.594              1.983              5.716
 Vibration     2          0.596              1.976              4.705
 Vibration     3          0.596              1.974              4.534
 Vibration     4          0.602              1.957              3.685
 Vibration     5          0.648              1.807              1.939
 Vibration     6          0.673              1.732              1.611
 Vibration     7          0.688              1.687              1.458
 Vibration     8          0.718              1.600              1.223
 Vibration     9          0.751              1.511              1.035
 Vibration    10          0.758              1.491              1.000
 Vibration    11          0.768              1.466              0.955
 Vibration    12          0.853              1.256              0.665
 Vibration    13          0.881              1.193              0.597
 Vibration    14          0.952              1.043              0.459

 Optimization completed.
    -- Stationary point found.
 Normal termination of Gaussian 16 at Tue Dec  8 19:15:55 2020.

 ----------------------------------------------------------------------
 # B3LYP/6-311++G(d,p) empiricaldispersion=gd3bj scf=xqc pop=npa geom=c
 heck
 ----------------------------------------------------------------------

 --------------------------------------
 CID_87554375_JID_1049_Energie_neutraal
 --------------------------------------
 Structure from the checkpoint file:  "JID_1049.chk"
 Charge =  0 Multiplicity = 1

 SCF Done:  E(RB3LYP) =  -495.720350785     A.U. after   14 cycles
 Normal termination of Gaussian 16 at Tue Dec  8 19:17:09 2020.

 ----------------------------------------------------------------------
 # B3LYP/6-311++G(d,p) empiricaldispersion=gd3bj scf=xqc pop=npa geom=c
 heck
 ----------------------------------------------------------------------

 ------------------------------------
 CID_87554375_JID_1049_Energie_kation
 ------------------------------------
 Structure from the checkpoint file:  "JID_1049.chk"
 Charge =  1 Multiplicity = 2

 SCF Done:  E(UB3LYP) =  -495.389807661     A.U. after   30 cycles
 Normal termination of Gaussian 16 at Tue Dec  8 19:20:31 2020.
 Gaussian 16:  ES64L-G16RevA.03 25-Dec-2016

 ----------------------------------------------------------------------
 # B3LYP/6-311++G(d,p) empiricaldispersion=gd3bj scf=xqc pop=npa geom=c
 heck
 ----------------------------------------------------------------------

 -----------------------------------
 CID_87554375_JID_1049_Energie_anion
 -----------------------------------
 Structure from the checkpoint file:  "JID_1049.chk"
 Charge = -1 Multiplicity = 2

                         Standard orientation:
 ---------------------------------------------------------------------
 Center     Atomic      Atomic             Coordinates (Angstroms)
 Number     Number       Type             X           Y           Z
 ---------------------------------------------------------------------
      1          6           0       -1.785485    0.923300   -1.276488
      2          6           0       -1.734905    0.383487    0.125946
      3          7           0       -2.588434   -0.437113    0.617483
      4          8           0       -3.587446   -0.754675   -0.328157
      5          6           0       -0.603496    0.785598    1.040887
      6          6           0        0.735554    0.300358    0.522271
      7          6           0        1.782555    1.178315    0.238022
      8          6           0        2.987906    0.666236   -0.245437
      9          7           0        3.211191   -0.634450   -0.461551
     10          6           0        2.200218   -1.471653   -0.188884
     11          6           0        0.960258   -1.061510    0.294518
     12          1           0       -2.707067    1.495890   -1.430190
     13          1           0       -1.801597    0.102100   -2.000731
     14          1           0       -0.923920    1.562093   -1.484380
     15          1           0       -4.151537   -1.363318    0.173155
     16          1           0       -0.581870    1.878570    1.138340
     17          1           0       -0.798841    0.366428    2.033506
     18          1           0        1.666014    2.247767    0.392382
     19          1           0        3.814586    1.337764   -0.471675
     20          1           0        2.394223   -2.527458   -0.369780
     21          1           0        0.174651   -1.786284    0.488099
 ---------------------------------------------------------------------

 SCF Done:  E(UB3LYP) =  -495.709824732     A.U. after   33 cycles
 SCF Done:  E(UB3LYP) =  -495.709824732     a.u. after    1 cycles

 The electronic state is 2-A.
 Alpha  occ. eigenvalues --  -19.04307 -14.23587 -14.17475 -10.09527 -10.08102
 Alpha  occ. eigenvalues --  -10.08033 -10.06567 -10.06383 -10.06031 -10.05445
 Alpha  occ. eigenvalues --  -10.05306  -0.96246  -0.81625  -0.76122  -0.69510
 Alpha  occ. eigenvalues --   -0.63690  -0.61891  -0.59400  -0.50859  -0.48973
 Alpha  occ. eigenvalues --   -0.43550  -0.38706  -0.38620  -0.36655  -0.36291
 Alpha  occ. eigenvalues --   -0.34748  -0.32721  -0.30635  -0.29865  -0.28228
 Alpha  occ. eigenvalues --   -0.27716  -0.27051  -0.26398  -0.25776  -0.23517
 Alpha  occ. eigenvalues --   -0.16716  -0.15976  -0.14573  -0.13949  -0.13552
 Alpha  occ. eigenvalues --    0.05005
 Alpha virt. eigenvalues --    0.07174   0.07626   0.08921   0.09442   0.09649
 Alpha virt. eigenvalues --    0.09868   0.11308   0.11557   0.12180   0.13038
 Alpha virt. eigenvalues --    0.13202   0.13575   0.15648   0.16160   0.16938

  Beta  occ. eigenvalues --  -19.04254 -14.23502 -14.17217 -10.09486 -10.08081
  Beta  occ. eigenvalues --  -10.08004 -10.06577 -10.06157 -10.06012 -10.05424
  Beta  occ. eigenvalues --  -10.05297  -0.96114  -0.81278  -0.75964  -0.69165
  Beta  occ. eigenvalues --   -0.63533  -0.61774  -0.59292  -0.50783  -0.48648
  Beta  occ. eigenvalues --   -0.43431  -0.38580  -0.38496  -0.36522  -0.36177
  Beta  occ. eigenvalues --   -0.34611  -0.32584  -0.30590  -0.29755  -0.28065
  Beta  occ. eigenvalues --   -0.27364  -0.26876  -0.26202  -0.25466  -0.23427
  Beta  occ. eigenvalues --   -0.16460  -0.15081  -0.14171  -0.13600  -0.13272
  Beta virt. eigenvalues --    0.07612   0.08455   0.08905   0.09141   0.09746
  Beta virt. eigenvalues --    0.09825   0.10408   0.11666   0.11912   0.12595
  Beta virt. eigenvalues --    0.13136   0.13515   0.13598   0.15567   0.16170

 Mulliken charges and spin densities:
               1          2
     1  C    0.140260  -0.925806
     2  C   -0.145207   0.501997
     3  N   -0.279834   0.096526
     4  O   -0.060306  -0.034419
     5  C    2.037873  -3.036692
     6  C    0.093562   0.835365
     7  C   -0.186492   0.292007
     8  C    0.368076  -0.908759
     9  N   -0.152667   0.135670
    10  C   -0.294222  -0.365107
    11  C   -1.531724   1.632154
    12  H   -0.120315   0.302886
    13  H    0.087503   0.098532
    14  H    0.124758   0.029807
    15  H   -0.188096   0.462346
    16  H   -0.245840   0.425109
    17  H   -0.134892   0.330116
    18  H   -0.598622   0.762062
    19  H    0.009967   0.123583
    20  H    0.084652   0.045038
    21  H   -0.008435   0.197585
 Sum of Mulliken charges =  -1.00000   1.00000

 Dipole moment (field-independent basis, Debye):
    X=              1.3080    Y=             -0.4065    Z=             -1.7413  Tot=              2.2155
 Quadrupole moment (field-independent basis, Debye-Ang):
   XX=           -131.4032   YY=            -91.0059   ZZ=            -87.9043
   XY=             -2.4625   XZ=              0.6753   YZ=             -2.7292

 Summary of Natural Population Analysis:

                                       Natural Population
                Natural  -----------------------------------------------
    Atom  No    Charge         Core      Valence    Rydberg      Total
 -----------------------------------------------------------------------
      C    1   -0.31930      0.99961     2.31353    0.00616     3.31930
      C    2    0.12560      0.99961     1.85779    0.01699     2.87440
      N    3   -0.08542      0.99958     2.57188    0.01395     3.58542
      O    4   -0.29320      0.99990     3.28613    0.00716     4.29320
      C    5   -0.21514      0.99955     2.20498    0.01061     3.21514
      C    6    0.03568      0.99950     1.95441    0.01042     2.96432
      C    7   -0.12461      0.99950     2.11565    0.00947     3.12461
      C    8    0.02498      0.99960     1.95862    0.01680     2.97502
      N    9   -0.21297      0.99972     2.70132    0.01193     3.71297
      C   10    0.02745      0.99959     1.95869    0.01427     2.97255
      C   11   -0.12403      0.99950     2.11565    0.00889     3.12403
      H   12    0.11297      0.00000     0.38584    0.00118     0.38703
      H   13    0.11263      0.00000     0.38646    0.00091     0.38737
      H   14    0.10492      0.00000     0.39422    0.00086     0.39508
      H   15    0.23538      0.00000     0.25444    0.01018     0.26462
      H   16    0.10501      0.00000     0.39305    0.00195     0.39499
      H   17    0.11781      0.00000     0.37967    0.00252     0.38219
      H   18    0.10022      0.00000     0.39834    0.00144     0.39978
      H   19    0.08388      0.00000     0.41477    0.00134     0.41612
      H   20    0.08350      0.00000     0.41526    0.00124     0.41650
      H   21    0.10464      0.00000     0.39416    0.00121     0.39536
 =======================================================================
   * Total *    0.00000     10.99566    28.85486    0.14948    40.00000

 Normal termination of Gaussian 16 at Tue Dec  8 19:24:19 2020.
