 Gaussian 16, Revision A.03,

 -----------------------------------------------------------
 # opt freq B3LYP/6-31G(d) empiricaldispersion=gd3bj scf=xqc
 -----------------------------------------------------------

 ------------------------------
 CID_70496019_JID_1654_neutraal
 ------------------------------
 Symbolic Z-matrix:
 Charge =  0 Multiplicity = 1

 SCF Done:  E(RB3LYP) =  -832.229454290     A.U. after   15 cycles
 SCF Done:  E(RB3LYP) =  -832.232807523     A.U. after   13 cycles
 SCF Done:  E(RB3LYP) =  -832.233095488     A.U. after   11 cycles
 SCF Done:  E(RB3LYP) =  -832.233107302     A.U. after   10 cycles
 SCF Done:  E(RB3LYP) =  -832.233109076     A.U. after    9 cycles
 Optimization completed.
    -- Stationary point found.
 Normal termination of Gaussian 16 at Tue Dec  8 20:33:49 2020.

 --------------------------------------------------------------------
 #N Geom=AllCheck Guess=TCheck SCRF=Check GenChk RB3LYP/6-31G(d) Freq
 --------------------------------------------------------------------

 Structure from the checkpoint file:  "JID_1654.chk"
 ------------------------------
 CID_70496019_JID_1654_neutraal
 ------------------------------
 Charge =  0 Multiplicity = 1

 SCF Done:  E(RB3LYP) =  -832.233109076     A.U. after    1 cycles

  Exact polarizability: 213.524   3.021 102.313   0.007   0.000  39.844
 Approx polarizability: 390.586  11.728 186.458   0.025   0.002  63.310

                      1                      2                      3
                      A                      A                      A
 Frequencies --     64.5964               164.8194               238.3924
 Red. masses --      8.2583                 5.7369                 8.6617
 Frc consts  --      0.0203                 0.0918                 0.2900
 IR Inten    --      2.3675                 0.0001                 1.0770

                      4                      5                      6
                      A                      A                      A
 Frequencies --    251.0761               392.2425               393.6482
 Red. masses --      4.9702                10.0270                 3.6536
 Frc consts  --      0.1846                 0.9089                 0.3336
 IR Inten    --      0.0285                 1.4894                10.9578

                      7                      8                      9
                      A                      A                      A
 Frequencies --    448.1465               461.7586               537.8574
 Red. masses --      6.4777                 3.2387                 8.5836
 Frc consts  --      0.7665                 0.4069                 1.4630
 IR Inten    --      3.1361                 1.1507                 7.3507

                     10                     11                     12
                      A                      A                      A
 Frequencies --    551.7277               625.6705               683.4482
 Red. masses --      4.1344                 7.8402                 1.6494
 Frc consts  --      0.7415                 1.8083                 0.4539
 IR Inten    --      1.4776                13.5370                13.6971

                     13                     14                     15
                      A                      A                      A
 Frequencies --    701.5211               703.8692               785.1919
 Red. masses --      8.2706                 2.7800                 2.8171
 Frc consts  --      2.3981                 0.8115                 1.0233
 IR Inten    --      4.8128                52.1941                13.1841

                     16                     17                     18
                      A                      A                      A
 Frequencies --    794.6822               816.3185               894.9598
 Red. masses --      6.3559                 1.6889                 6.3391
 Frc consts  --      2.3649                 0.6631                 2.9915
 IR Inten    --      6.7509                34.6501                 0.7340

                     19                     20                     21
                      A                      A                      A
 Frequencies --    937.4275               939.9847               981.1457
 Red. masses --      1.3463                 5.0323                 1.4376
 Frc consts  --      0.6970                 2.6197                 0.8154
 IR Inten    --      0.5857                20.7335                 2.0569

                     22                     23                     24
                      A                      A                      A
 Frequencies --    992.8138              1073.3493              1148.7705
 Red. masses --      1.3707                 2.3697                 1.9245
 Frc consts  --      0.7960                 1.6085                 1.4964
 IR Inten    --      2.1213                 8.9161                48.3179

                     25                     26                     27
                      A                      A                      A
 Frequencies --   1181.8840              1205.2471              1276.7238
 Red. masses --      1.8677                 5.3969                 2.7411
 Frc consts  --      1.5371                 4.6190                 2.6325
 IR Inten    --    118.6791                12.2674               233.5931

                     28                     29                     30
                      A                      A                      A
 Frequencies --   1290.9242              1330.9388              1366.4622
 Red. masses --      1.8320                 2.0186                 5.7770
 Frc consts  --      1.7988                 2.1068                 6.3554
 IR Inten    --      7.5622                 2.7297                25.1981

                     31                     32                     33
                      A                      A                      A
 Frequencies --   1401.0911              1480.9858              1493.9099
 Red. masses --      1.8027                 3.9179                 2.1201
 Frc consts  --      2.0850                 5.0630                 2.7878
 IR Inten    --     24.9102                91.9462                34.6858

                     34                     35                     36
                      A                      A                      A
 Frequencies --   1520.0897              1620.8861              1638.7312
 Red. masses --      2.5614                 5.0346                 5.8094
 Frc consts  --      3.4871                 7.7932                 9.1918
 IR Inten    --      3.6601               222.2825                15.9779

                     37                     38                     39
                      A                      A                      A
 Frequencies --   1665.2477              3173.4595              3192.1320
 Red. masses --      6.9482                 1.0915                 1.0891
 Frc consts  --     11.3523                 6.4764                 6.5386
 IR Inten    --    246.3209                11.1530                 9.9005

                     40                     41                     42
                      A                      A                      A
 Frequencies --   3201.3020              3222.4307              3574.3172
 Red. masses --      1.0907                 1.0965                 1.0776
 Frc consts  --      6.5856                 6.7085                 8.1113
 IR Inten    --      8.4280                12.3921                30.9095

 - Thermochemistry -
 -------------------
 Temperature   298.150 Kelvin.  Pressure   1.00000 Atm.
 Atom     1 has atomic number  6 and mass  12.00000

 Molecular mass:   163.02042 amu.
 Principal axes and moments of inertia in atomic units:
                           1         2         3
     Eigenvalues --   635.375742878.296063513.67169
           X            0.99996  -0.00860  -0.00000
           Y            0.00860   0.99996  -0.00001
           Z            0.00000   0.00001   1.00000
 This molecule is an asymmetric top.
 Rotational symmetry number  1.
 Warning -- assumption of classical behavior for rotation
           may cause significant error
 Rotational temperatures (Kelvin)      0.13632     0.03009     0.02465
 Rotational constants (GHZ):           2.84043     0.62702     0.51363
 Zero-point vibrational energy     301579.7 (Joules/Mol)
                                   72.07927 (Kcal/Mol)
 Warning -- explicit consideration of  10 degrees of freedom as
           vibrations may cause significant error
 Vibrational temperatures:     92.94   237.14   342.99   361.24   564.35
          (Kelvin)            566.37   644.78   664.37   773.86   793.81
                              900.20   983.33  1009.33  1012.71  1129.72
                             1143.37  1174.50  1287.65  1348.75  1352.43
                             1411.65  1428.44  1544.31  1652.82  1700.47
                             1734.08  1836.92  1857.35  1914.92  1966.03
                             2015.86  2130.81  2149.40  2187.07  2332.09
                             2357.77  2395.92  4565.90  4592.77  4605.96
                             4636.36  5142.65

 Zero-point correction=                           0.114866 (Hartree/Particle)
 Thermal correction to Energy=                    0.122754
 Thermal correction to Enthalpy=                  0.123698
 Thermal correction to Gibbs Free Energy=         0.081251
 Sum of electronic and zero-point Energies=           -832.118243
 Sum of electronic and thermal Energies=              -832.110355
 Sum of electronic and thermal Enthalpies=            -832.109411
 Sum of electronic and thermal Free Energies=         -832.151858

                     E (Thermal)             CV                S
                      KCal/Mol        Cal/Mol-Kelvin    Cal/Mol-Kelvin
 Total                   77.029             30.965             89.337
 Electronic               0.000              0.000              0.000
 Translational            0.889              2.981             41.175
 Rotational               0.889              2.981             30.242
 Vibrational             75.252             25.003             17.920
 Vibration     1          0.597              1.971              4.312
 Vibration     2          0.623              1.886              2.494
 Vibration     3          0.656              1.782              1.815
 Vibration     4          0.663              1.761              1.723
 Vibration     5          0.760              1.487              0.992
 Vibration     6          0.761              1.484              0.986
 Vibration     7          0.807              1.365              0.801
 Vibration     8          0.819              1.335              0.761
 Vibration     9          0.893              1.166              0.570
 Vibration    10          0.907              1.136              0.541

 Optimization completed.
    -- Stationary point found.
 Normal termination of Gaussian 16 at Tue Dec  8 20:36:52 2020.

 ----------------------------------------------------------------------
 # B3LYP/6-311++G(d,p) empiricaldispersion=gd3bj scf=xqc pop=npa geom=c
 heck
 ----------------------------------------------------------------------

 --------------------------------------
 CID_70496019_JID_1654_Energie_neutraal
 --------------------------------------
 Structure from the checkpoint file:  "JID_1654.chk"
 Charge =  0 Multiplicity = 1

 SCF Done:  E(RB3LYP) =  -832.369468978     A.U. after   17 cycles
 Normal termination of Gaussian 16 at Tue Dec  8 20:38:41 2020.

 ----------------------------------------------------------------------
 # B3LYP/6-311++G(d,p) empiricaldispersion=gd3bj scf=xqc pop=npa geom=c
 heck
 ----------------------------------------------------------------------

 ------------------------------------
 CID_70496019_JID_1654_Energie_kation
 ------------------------------------
 Structure from the checkpoint file:  "JID_1654.chk"
 Charge =  1 Multiplicity = 2

 SCF Done:  E(UB3LYP) =  -832.068469021     A.U. after   29 cycles
 Normal termination of Gaussian 16 at Tue Dec  8 20:44:00 2020.
 Gaussian 16:  ES64L-G16RevA.03 25-Dec-2016

 ----------------------------------------------------------------------
 # B3LYP/6-311++G(d,p) empiricaldispersion=gd3bj scf=xqc pop=npa geom=c
 heck
 ----------------------------------------------------------------------

 -----------------------------------
 CID_70496019_JID_1654_Energie_anion
 -----------------------------------
 Structure from the checkpoint file:  "JID_1654.chk"
 Charge = -1 Multiplicity = 2

                         Standard orientation:
 ---------------------------------------------------------------------
 Center     Atomic      Atomic             Coordinates (Angstroms)
 Number     Number       Type             X           Y           Z
 ---------------------------------------------------------------------
      1          6           0        2.928927   -1.091462   -0.000134
      2          6           0        1.621836   -1.546936    0.000096
      3          6           0        0.600932   -0.583294    0.000192
      4          6           0        0.956558    0.781427    0.000042
      5          6           0       -0.136521    1.722043    0.000092
      6          7           0       -1.393942    1.396139    0.000241
      7          6           0       -1.759681    0.056747    0.000541
      8         16           0       -3.344831   -0.442367   -0.000411
      9          7           0       -0.737052   -0.883299    0.000434
     10          7           0        2.230191    1.214857   -0.000197
     11          6           0        3.186969    0.294111   -0.000272
     12          1           0        3.756143   -1.794014   -0.000212
     13          1           0        1.385912   -2.607271    0.000208
     14          1           0        0.114669    2.782661    0.000018
     15          1           0       -1.039204   -1.851605    0.000346
     16          1           0        4.211279    0.658407   -0.000468
 ---------------------------------------------------------------------

 SCF Done:  E(UB3LYP) =  -832.419899244     A.U. after   22 cycles

 The electronic state is 2-A.
 Alpha  occ. eigenvalues --  -88.64251 -14.23170 -14.16848 -14.15615 -10.12623
 Alpha  occ. eigenvalues --  -10.10241 -10.07414 -10.07348 -10.05603 -10.05458
 Alpha  occ. eigenvalues --  -10.05103  -7.73071  -5.69439  -5.68968  -5.68609
 Alpha  occ. eigenvalues --   -0.86681  -0.80939  -0.76668  -0.67798  -0.65515
 Alpha  occ. eigenvalues --   -0.58333  -0.53567  -0.51713  -0.48932  -0.42358
 Alpha  occ. eigenvalues --   -0.42001  -0.38371  -0.35571  -0.33083  -0.31764
 Alpha  occ. eigenvalues --   -0.30483  -0.27748  -0.26571  -0.25746  -0.22202
 Alpha  occ. eigenvalues --   -0.21442  -0.15921  -0.15236  -0.13945  -0.11449
 Alpha  occ. eigenvalues --   -0.07714  -0.06983   0.01075
 Alpha virt. eigenvalues --    0.08023   0.09589   0.10025   0.10420   0.10876
 Alpha virt. eigenvalues --    0.12072   0.13308   0.15097   0.15202   0.15355
 Alpha virt. eigenvalues --    0.16786   0.16828   0.17700   0.18226   0.19017

  Beta  occ. eigenvalues --  -88.64208 -14.23039 -14.16404 -14.15437 -10.12449
  Beta  occ. eigenvalues --  -10.10245 -10.07480 -10.07411 -10.05268 -10.05176
  Beta  occ. eigenvalues --  -10.04875  -7.73032  -5.69423  -5.68827  -5.68586
  Beta  occ. eigenvalues --   -0.86359  -0.80380  -0.76118  -0.67294  -0.65101
  Beta  occ. eigenvalues --   -0.58125  -0.52846  -0.51429  -0.48610  -0.42046
  Beta  occ. eigenvalues --   -0.41783  -0.38102  -0.35365  -0.32815  -0.30899
  Beta  occ. eigenvalues --   -0.30237  -0.27564  -0.26348  -0.24496  -0.21959
  Beta  occ. eigenvalues --   -0.19771  -0.14755  -0.13490  -0.13371  -0.11141
  Beta  occ. eigenvalues --   -0.06861  -0.06860
  Beta virt. eigenvalues --    0.07088   0.08001   0.09573   0.10495   0.10857
  Beta virt. eigenvalues --    0.11951   0.12064   0.13310   0.15205   0.15300
  Beta virt. eigenvalues --    0.15343   0.16805   0.17255   0.18121   0.18239

 Mulliken charges and spin densities:
               1          2
     1  C   -0.089736   0.214201
     2  C   -0.757718   0.069281
     3  C    0.734108   0.030499
     4  C   -0.533154  -0.000228
     5  C   -0.072206   0.272480
     6  N   -0.098218   0.069651
     7  C    0.201878   0.097252
     8  S   -0.870510   0.088128
     9  N   -0.106950   0.059071
    10  N   -0.062497   0.202461
    11  C   -0.147918  -0.048402
    12  H    0.120556  -0.012486
    13  H    0.104262  -0.014000
    14  H    0.170491  -0.026004
    15  H    0.261490  -0.003248
    16  H    0.146123   0.001346
 Sum of Mulliken charges =  -1.00000   1.00000

 Dipole moment (field-independent basis, Debye):
    X=              5.6828    Y=             -3.3940    Z=              0.0010  Tot=              6.6192
 Quadrupole moment (field-independent basis, Debye-Ang):
   XX=           -119.4379   YY=            -81.6282   ZZ=            -78.7818
   XY=             -2.8044   XZ=             -0.0013   YZ=             -0.0006

 Summary of Natural Population Analysis:

                                       Natural Population
                Natural  -----------------------------------------------
    Atom  No    Charge         Core      Valence    Rydberg      Total
 -----------------------------------------------------------------------
      C    1   -0.07091      0.99958     2.06267    0.00867     3.07091
      C    2   -0.08428      0.99954     2.07617    0.00856     3.08428
      C    3    0.08844      0.99947     1.90230    0.00979     2.91156
      C    4    0.03265      0.99948     1.95557    0.01230     2.96735
      C    5    0.14775      0.99959     1.83690    0.01577     2.85225
      N    6   -0.23400      0.99966     2.72081    0.01353     3.73400
      C    7    0.15274      0.99967     1.82745    0.02013     2.84726
      S    8   -0.13163      4.99954     3.11561    0.01647     8.13163
      N    9   -0.27187      0.99961     2.75960    0.01267     3.77187
      N   10   -0.16083      0.99969     2.64787    0.01327     3.66083
      C   11   -0.00782      0.99962     1.99255    0.01565     3.00782
      H   12    0.09116      0.00000     0.40768    0.00116     0.40884
      H   13    0.09181      0.00000     0.40661    0.00159     0.40819
      H   14    0.07988      0.00000     0.41824    0.00188     0.42012
      H   15    0.19603      0.00000     0.30149    0.00248     0.30397
      H   16    0.08089      0.00000     0.41773    0.00138     0.41911
 =======================================================================
   * Total *    0.00000     14.99545    26.84926    0.15529    42.00000

 Normal termination of Gaussian 16 at Tue Dec  8 20:48:04 2020.
