 Gaussian 16, Revision A.03,

 -----------------------------------------------------------
 # opt freq B3LYP/6-31G(d) empiricaldispersion=gd3bj scf=xqc
 -----------------------------------------------------------

 -------------------------------
 CID_107731055_JID_6287_neutraal
 -------------------------------
 Symbolic Z-matrix:
 Charge =  0 Multiplicity = 1

 SCF Done:  E(RB3LYP) =  -785.054892837     A.U. after   13 cycles
 SCF Done:  E(RB3LYP) =  -785.059503443     A.U. after   11 cycles
 SCF Done:  E(RB3LYP) =  -785.060493928     A.U. after   11 cycles
 SCF Done:  E(RB3LYP) =  -785.061056668     A.U. after   12 cycles
 SCF Done:  E(RB3LYP) =  -785.061173685     A.U. after   10 cycles
 SCF Done:  E(RB3LYP) =  -785.061314728     A.U. after   11 cycles
 SCF Done:  E(RB3LYP) =  -785.061380837     A.U. after   11 cycles
 SCF Done:  E(RB3LYP) =  -785.061333256     A.U. after   11 cycles
 SCF Done:  E(RB3LYP) =  -785.061599509     A.U. after   10 cycles
 SCF Done:  E(RB3LYP) =  -785.053736781     A.U. after   13 cycles
 SCF Done:  E(RB3LYP) =  -785.063510186     A.U. after   10 cycles
 SCF Done:  E(RB3LYP) =  -785.063532476     A.U. after   10 cycles
 SCF Done:  E(RB3LYP) =  -785.063540044     A.U. after    9 cycles
 SCF Done:  E(RB3LYP) =  -785.063541479     A.U. after    8 cycles
 SCF Done:  E(RB3LYP) =  -785.063541663     A.U. after    7 cycles
 Optimization completed.
    -- Stationary point found.
 Normal termination of Gaussian 16 at Thu Dec 10 22:04:05 2020.

 --------------------------------------------------------------------
 #N Geom=AllCheck Guess=TCheck SCRF=Check GenChk RB3LYP/6-31G(d) Freq
 --------------------------------------------------------------------

 Structure from the checkpoint file:  "JID_6287.chk"
 -------------------------------
 CID_107731055_JID_6287_neutraal
 -------------------------------
 Charge =  0 Multiplicity = 1

 SCF Done:  E(RB3LYP) =  -785.063541663     A.U. after    1 cycles

  Exact polarizability: 174.911   7.060 139.961  14.266  -5.114  89.913
 Approx polarizability: 229.517  14.298 229.488  27.959 -11.721 139.126

                      1                      2                      3
                      A                      A                      A
 Frequencies --     21.3894                26.8477                42.5883
 Red. masses --      5.7209                 5.0235                 3.6168
 Frc consts  --      0.0015                 0.0021                 0.0039
 IR Inten    --      0.0889                 0.1153                 0.1810

                      4                      5                      6
                      A                      A                      A
 Frequencies --     66.5803                71.7812               115.5377
 Red. masses --      5.4070                 3.8243                 4.2853
 Frc consts  --      0.0141                 0.0116                 0.0337
 IR Inten    --      1.7799                 2.2962                 3.3414

                      7                      8                      9
                      A                      A                      A
 Frequencies --    171.2119               193.0658               199.4377
 Red. masses --      8.3257                 2.8495                 2.7989
 Frc consts  --      0.1438                 0.0626                 0.0656
 IR Inten    --      2.0590                 5.0617                 9.8976

                     10                     11                     12
                      A                      A                      A
 Frequencies --    246.7165               255.3581               284.2742
 Red. masses --      2.0558                 1.4318                 3.3378
 Frc consts  --      0.0737                 0.0550                 0.1589
 IR Inten    --     19.8340                51.0032                 4.3690

                     13                     14                     15
                      A                      A                      A
 Frequencies --    290.4713               294.8121               301.0842
 Red. masses --      2.2391                 3.4294                 2.7923
 Frc consts  --      0.1113                 0.1756                 0.1491
 IR Inten    --     22.1995                15.9166                13.5471

                     16                     17                     18
                      A                      A                      A
 Frequencies --    318.6384               328.5297               376.1624
 Red. masses --      2.4004                 2.1517                 2.1213
 Frc consts  --      0.1436                 0.1368                 0.1769
 IR Inten    --     32.6984                38.1785                 1.8772

                     19                     20                     21
                      A                      A                      A
 Frequencies --    396.6693               464.4138               508.4653
 Red. masses --      5.0649                 2.1538                 5.1378
 Frc consts  --      0.4695                 0.2737                 0.7826
 IR Inten    --      1.5366                 3.4621                 8.3129

                     22                     23                     24
                      A                      A                      A
 Frequencies --    521.6476               532.2774               549.6248
 Red. masses --      2.2477                 1.5322                 3.8515
 Frc consts  --      0.3604                 0.2558                 0.6855
 IR Inten    --     84.7647               130.7293                14.9927

                     25                     26                     27
                      A                      A                      A
 Frequencies --    572.0714               595.9605               608.2245
 Red. masses --      3.1531                 1.2491                 3.0184
 Frc consts  --      0.6080                 0.2614                 0.6579
 IR Inten    --      6.6456                11.0649                 8.4712

                     28                     29                     30
                      A                      A                      A
 Frequencies --    630.0766               696.0509               710.3860
 Red. masses --      3.5409                 6.0762                 6.2319
 Frc consts  --      0.8282                 1.7345                 1.8529
 IR Inten    --      2.5770                19.7511                 9.2795

                     31                     32                     33
                      A                      A                      A
 Frequencies --    719.4245               761.5338               785.7448
 Red. masses --      1.2620                 1.7300                 3.5810
 Frc consts  --      0.3848                 0.5911                 1.3026
 IR Inten    --     44.6927                45.4259                 7.8778

                     34                     35                     36
                      A                      A                      A
 Frequencies --    818.0740               822.0014               889.1703
 Red. masses --      1.9011                 1.9518                 1.8900
 Frc consts  --      0.7496                 0.7770                 0.8804
 IR Inten    --     27.9745                27.9163                 3.3144

                     37                     38                     39
                      A                      A                      A
 Frequencies --    926.1689               934.7069               953.9216
 Red. masses --      2.0564                 1.2926                 2.6939
 Frc consts  --      1.0393                 0.6654                 1.4443
 IR Inten    --     26.5508                 0.6585                34.6878

                     40                     41                     42
                      A                      A                      A
 Frequencies --    991.6296              1007.0477              1032.7386
 Red. masses --      2.2432                 1.9898                 1.6139
 Frc consts  --      1.2996                 1.1890                 1.0142
 IR Inten    --      2.1690                14.3169                 7.3812

                     43                     44                     45
                      A                      A                      A
 Frequencies --   1080.6717              1091.9218              1106.7661
 Red. masses --      2.5151                 2.9137                 2.4089
 Frc consts  --      1.7306                 2.0468                 1.7385
 IR Inten    --     38.4269               145.6626                 4.8891

                     46                     47                     48
                      A                      A                      A
 Frequencies --   1117.7630              1156.0080              1177.7889
 Red. masses --      1.8065                 3.0285                 1.5195
 Frc consts  --      1.3298                 2.3845                 1.2419
 IR Inten    --     11.8051                38.6275                33.4558

                     49                     50                     51
                      A                      A                      A
 Frequencies --   1195.6859              1221.0894              1225.2988
 Red. masses --      1.1960                 1.8443                 1.3919
 Frc consts  --      1.0074                 1.6202                 1.2313
 IR Inten    --     19.7745               155.1502                 7.8066

                     52                     53                     54
                      A                      A                      A
 Frequencies --   1235.8159              1247.0234              1268.6664
 Red. masses --      1.6282                 1.3585                 1.9215
 Frc consts  --      1.4651                 1.2447                 1.8221
 IR Inten    --    187.4891                11.7613                44.4595

                     55                     56                     57
                      A                      A                      A
 Frequencies --   1305.4457              1320.0557              1328.1510
 Red. masses --      1.4715                 2.5076                 1.3013
 Frc consts  --      1.4775                 2.5745                 1.3525
 IR Inten    --     18.8283                90.1487                 4.5379

                     58                     59                     60
                      A                      A                      A
 Frequencies --   1341.8358              1385.9742              1393.0173
 Red. masses --      1.3224                 1.3537                 1.5198
 Frc consts  --      1.4028                 1.5321                 1.7376
 IR Inten    --     10.8757                14.0754                 1.2364

                     61                     62                     63
                      A                      A                      A
 Frequencies --   1397.9685              1409.5275              1415.4009
 Red. masses --      2.1792                 1.1854                 1.3417
 Frc consts  --      2.5093                 1.3876                 1.5837
 IR Inten    --     25.1604                33.2391                30.1328

                     64                     65                     66
                      A                      A                      A
 Frequencies --   1420.3701              1424.6848              1441.9169
 Red. masses --      2.2719                 1.4298                 1.2867
 Frc consts  --      2.7005                 1.7099                 1.5762
 IR Inten    --     31.8243                 5.2039                41.2176

                     67                     68                     69
                      A                      A                      A
 Frequencies --   1504.0508              1509.2351              1513.1590
 Red. masses --      1.1036                 1.1461                 1.2482
 Frc consts  --      1.4709                 1.5381                 1.6838
 IR Inten    --     18.1712                22.2775                29.2662

                     70                     71                     72
                      A                      A                      A
 Frequencies --   1520.6061              1530.3729              1539.9151
 Red. masses --      2.3823                 1.1485                 1.0862
 Frc consts  --      3.2454                 1.5848                 1.5176
 IR Inten    --     70.3537                17.2911                 1.5320

                     73                     74                     75
                      A                      A                      A
 Frequencies --   1542.9525              1562.1480              1668.9348
 Red. masses --      1.2197                 3.7445                 6.3022
 Frc consts  --      1.7108                 5.3838                10.3423
 IR Inten    --     20.9906                90.7574                65.5311

                     76                     77                     78
                      A                      A                      A
 Frequencies --   1684.6277              2957.6884              2993.7373
 Red. masses --      6.5955                 1.0724                 1.0724
 Frc consts  --     11.0283                 5.5271                 5.6628
 IR Inten    --     74.7961                56.5310                61.3088

                     79                     80                     81
                      A                      A                      A
 Frequencies --   3028.0803              3035.0652              3038.9120
 Red. masses --      1.0654                 1.0633                 1.0641
 Frc consts  --      5.7557                 5.7709                 5.7900
 IR Inten    --     25.0697                21.1756                54.8443

                     82                     83                     84
                      A                      A                      A
 Frequencies --   3065.3684              3074.0625              3083.8518
 Red. masses --      1.1011                 1.0878                 1.0944
 Frc consts  --      6.0962                 6.0563                 6.1320
 IR Inten    --     20.1942                22.9525                53.1645

                     85                     86                     87
                      A                      A                      A
 Frequencies --   3084.1515              3102.8126              3179.4211
 Red. masses --      1.1012                 1.0933                 1.0890
 Frc consts  --      6.1716                 6.2017                 6.4857
 IR Inten    --     75.5623                45.8560                15.0364

                     88                     89                     90
                      A                      A                      A
 Frequencies --   3225.5512              3496.3036              3680.7087
 Red. masses --      1.0928                 1.0739                 1.0666
 Frc consts  --      6.6987                 7.7345                 8.5132
 IR Inten    --      5.4592                 1.0721                63.4915

                     91                     92                     93
                      A                      A                      A
 Frequencies --   3684.3975              3689.4705              3753.8679
 Red. masses --      1.0647                 1.0648                 1.0660
 Frc consts  --      8.5157                 8.5395                 8.8504
 IR Inten    --      3.0700               109.7503                 7.0731

 - Thermochemistry -
 -------------------
 Temperature   298.150 Kelvin.  Pressure   1.00000 Atm.
 Atom     1 has atomic number  6 and mass  12.00000

 Molecular mass:   227.11576 amu.
 Principal axes and moments of inertia in atomic units:
                           1         2         3
     Eigenvalues --  1562.097318919.709469772.95689
           X            1.00000  -0.00140   0.00195
           Y            0.00140   1.00000  -0.00093
           Z           -0.00195   0.00093   1.00000
 This molecule is an asymmetric top.
 Rotational symmetry number  1.
 Warning -- assumption of classical behavior for rotation
           may cause significant error
 Rotational temperatures (Kelvin)      0.05545     0.00971     0.00886
 Rotational constants (GHZ):           1.15533     0.20233     0.18467
 Zero-point vibrational energy     732657.8 (Joules/Mol)
                                  175.10941 (Kcal/Mol)
 Warning -- explicit consideration of  27 degrees of freedom as
           vibrations may cause significant error
 Vibrational temperatures:     30.77    38.63    61.28    95.79   103.28
          (Kelvin)            166.23   246.34   277.78   286.95   354.97
                              367.40   409.01   417.92   424.17   433.19
                              458.45   472.68   541.21   570.72   668.19
                              731.57   750.53   765.83   790.79   823.08
                              857.45   875.10   906.54  1001.46  1022.09
                             1035.09  1095.68  1130.51  1177.03  1182.68
                             1279.32  1332.55  1344.83  1372.48  1426.73
                             1448.92  1485.88  1554.85  1571.03  1592.39
                             1608.21  1663.24  1694.58  1720.33  1756.88
                             1762.93  1778.06  1794.19  1825.33  1878.25
                             1899.27  1910.91  1930.60  1994.11  2004.24
                             2011.36  2028.00  2036.45  2043.60  2049.80
                             2074.60  2163.99  2171.45  2177.10  2187.81
                             2201.87  2215.59  2219.96  2247.58  2401.22
                             2423.80  4255.45  4307.32  4356.73  4366.78
                             4372.32  4410.38  4422.89  4436.97  4437.41
                             4464.26  4574.48  4640.85  5030.40  5295.72
                             5301.03  5308.33  5400.98

 Zero-point correction=                           0.279055 (Hartree/Particle)
 Thermal correction to Energy=                    0.295693
 Thermal correction to Enthalpy=                  0.296637
 Thermal correction to Gibbs Free Energy=         0.233145
 Sum of electronic and zero-point Energies=           -784.784487
 Sum of electronic and thermal Energies=              -784.767849
 Sum of electronic and thermal Enthalpies=            -784.766905
 Sum of electronic and thermal Free Energies=         -784.830396

                     E (Thermal)             CV                S
                      KCal/Mol        Cal/Mol-Kelvin    Cal/Mol-Kelvin
 Total                  185.550             62.786            133.630
 Electronic               0.000              0.000              0.000
 Translational            0.889              2.981             42.163
 Rotational               0.889              2.981             33.276
 Vibrational            183.773             56.824             58.191
 Vibration     1          0.593              1.985              6.501
 Vibration     2          0.593              1.984              6.050
 Vibration     3          0.595              1.980              5.135
 Vibration     4          0.598              1.970              4.252
 Vibration     5          0.598              1.967              4.104
 Vibration     6          0.608              1.937              3.174
 Vibration     7          0.626              1.878              2.422
 Vibration     8          0.635              1.849              2.198
 Vibration     9          0.638              1.841              2.138
 Vibration    10          0.661              1.768              1.754
 Vibration    11          0.666              1.754              1.693
 Vibration    12          0.683              1.703              1.508
 Vibration    13          0.686              1.691              1.471
 Vibration    14          0.689              1.683              1.446
 Vibration    15          0.693              1.672              1.411
 Vibration    16          0.705              1.638              1.317
 Vibration    17          0.712              1.618              1.267
 Vibration    18          0.747              1.521              1.055
 Vibration    19          0.763              1.477              0.975
 Vibration    20          0.822              1.329              0.753
 Vibration    21          0.864              1.231              0.637
 Vibration    22          0.877              1.202              0.606
 Vibration    23          0.887              1.179              0.582
 Vibration    24          0.905              1.141              0.545
 Vibration    25          0.928              1.092              0.500
 Vibration    26          0.954              1.040              0.457
 Vibration    27          0.967              1.014              0.436

                           ! Non-Optimized Parameters !
 Normal termination of Gaussian 16 at Thu Dec 10 22:13:46 2020.

 ----------------------------------------------------------------------
 # B3LYP/6-311++G(d,p) empiricaldispersion=gd3bj scf=xqc pop=npa geom=c
 heck
 ----------------------------------------------------------------------

 ---------------------------------------
 CID_107731055_JID_6287_Energie_neutraal
 ---------------------------------------
 Structure from the checkpoint file:  "JID_6287.chk"
 Charge =  0 Multiplicity = 1

 SCF Done:  E(RB3LYP) =  -785.324214371     A.U. after   14 cycles
 Normal termination of Gaussian 16 at Thu Dec 10 22:18:15 2020.

 ----------------------------------------------------------------------
 # B3LYP/6-311++G(d,p) empiricaldispersion=gd3bj scf=xqc pop=npa geom=c
 heck
 ----------------------------------------------------------------------

 -------------------------------------
 CID_107731055_JID_6287_Energie_kation
 -------------------------------------
 Structure from the checkpoint file:  "JID_6287.chk"
 Charge =  1 Multiplicity = 2

 SCF Done:  E(UB3LYP) =  -785.035591175     A.U. after   27 cycles
 Normal termination of Gaussian 16 at Thu Dec 10 22:29:11 2020.
 Gaussian 16:  ES64L-G16RevA.03 25-Dec-2016

 ----------------------------------------------------------------------
 # B3LYP/6-311++G(d,p) empiricaldispersion=gd3bj scf=xqc pop=npa geom=c
 heck
 ----------------------------------------------------------------------

 ------------------------------------
 CID_107731055_JID_6287_Energie_anion
 ------------------------------------
 Structure from the checkpoint file:  "JID_6287.chk"
 Charge = -1 Multiplicity = 2

                         Standard orientation:
 ---------------------------------------------------------------------
 Center     Atomic      Atomic             Coordinates (Angstroms)
 Number     Number       Type             X           Y           Z
 ---------------------------------------------------------------------
      1          6           0       -1.169096   -1.304566    0.775135
      2          6           0       -2.383335   -1.889555    0.414030
      3          6           0       -3.390691   -1.077950   -0.107012
      4          6           0       -3.164529    0.295271   -0.232528
      5          6           0       -1.932724    0.863003    0.096445
      6          6           0       -0.909076    0.060593    0.621978
      7          6           0        0.442622    0.644123    0.940460
      8          7           0        1.240167    0.774897   -0.281623
      9          6           0        2.568590    1.346352   -0.085603
     10          6           0        3.516622    0.601853    0.878008
     11          6           0        3.725348   -0.882363    0.545092
     12          6           0        4.309884   -1.137670   -0.846895
     13          8           0        5.577730   -0.520204   -1.042371
     14          8           0       -1.742387    2.200535   -0.064607
     15          8           0       -4.175097    1.111755   -0.766717
     16          8           0       -4.590503   -1.606807   -0.475618
     17          1           0       -0.383387   -1.934461    1.186000
     18          1           0       -2.560666   -2.953385    0.524767
     19          1           0        0.333648    1.648858    1.365447
     20          1           0        0.918757    0.017440    1.715451
     21          1           0        1.306563   -0.135296   -0.732903
     22          1           0        3.032131    1.427135   -1.077861
     23          1           0        2.436721    2.375764    0.272809
     24          1           0        4.488289    1.115777    0.881007
     25          1           0        3.139435    0.684368    1.904298
     26          1           0        4.395763   -1.325841    1.290924
     27          1           0        2.768886   -1.418930    0.622148
     28          1           0        4.482608   -2.209635   -0.984683
     29          1           0        3.598237   -0.824884   -1.628310
     30          1           0        5.436968    0.438450   -1.052284
     31          1           0       -2.515893    2.531803   -0.554994
     32          1           0       -4.721989    1.437333   -0.030739
     33          1           0       -5.076860   -0.895539   -0.929865
 ---------------------------------------------------------------------

 SCF Done:  E(UB3LYP) =  -785.322750706     A.U. after   33 cycles
 SCF Done:  E(UB3LYP) =  -785.322750706     a.u. after    1 cycles

 The electronic state is 2-A.
 Alpha  occ. eigenvalues --  -19.05226 -19.04861 -19.04640 -19.04413 -14.20579
 Alpha  occ. eigenvalues --  -10.13856 -10.13656 -10.13530 -10.12175 -10.10550
 Alpha  occ. eigenvalues --  -10.10283 -10.09045 -10.08498 -10.08181 -10.07625
 Alpha  occ. eigenvalues --  -10.07108  -0.97595  -0.96256  -0.94493  -0.93470
 Alpha  occ. eigenvalues --   -0.81828  -0.75327  -0.70678  -0.66492  -0.64033
 Alpha  occ. eigenvalues --   -0.62603  -0.58283  -0.54724  -0.53290  -0.49909
 Alpha  occ. eigenvalues --   -0.48689  -0.46125  -0.45693  -0.43823  -0.42379
 Alpha  occ. eigenvalues --   -0.40168  -0.39316  -0.37580  -0.37098  -0.35158
 Alpha  occ. eigenvalues --   -0.34491  -0.34135  -0.33792  -0.32150  -0.31481
 Alpha  occ. eigenvalues --   -0.30194  -0.29667  -0.29439  -0.28213  -0.27173
 Alpha  occ. eigenvalues --   -0.26830  -0.26325  -0.26138  -0.25391  -0.24386
 Alpha  occ. eigenvalues --   -0.21939  -0.21882  -0.19985  -0.13565  -0.13296
 Alpha  occ. eigenvalues --   -0.12127   0.03741
 Alpha virt. eigenvalues --    0.04973   0.06412   0.07113   0.08408   0.08619
 Alpha virt. eigenvalues --    0.09286   0.09523   0.09925   0.10139   0.10245
 Alpha virt. eigenvalues --    0.10593   0.10950   0.11445   0.12454   0.13146

  Beta  occ. eigenvalues --  -19.05184 -19.04818 -19.04506 -19.04384 -14.20577
  Beta  occ. eigenvalues --  -10.13848 -10.13654 -10.13526 -10.12157 -10.10534
  Beta  occ. eigenvalues --  -10.10273 -10.09042 -10.08482 -10.08179 -10.07626
  Beta  occ. eigenvalues --  -10.07109  -0.97459  -0.96163  -0.94430  -0.93230
  Beta  occ. eigenvalues --   -0.81818  -0.75283  -0.70652  -0.66460  -0.63966
  Beta  occ. eigenvalues --   -0.62565  -0.58250  -0.54689  -0.53213  -0.49873
  Beta  occ. eigenvalues --   -0.48650  -0.46026  -0.45612  -0.43782  -0.42281
  Beta  occ. eigenvalues --   -0.40127  -0.39293  -0.37548  -0.37067  -0.35126
  Beta  occ. eigenvalues --   -0.34470  -0.34080  -0.33761  -0.32130  -0.31440
  Beta  occ. eigenvalues --   -0.30168  -0.29610  -0.29391  -0.28186  -0.27143
  Beta  occ. eigenvalues --   -0.26795  -0.26283  -0.26114  -0.25345  -0.24368
  Beta  occ. eigenvalues --   -0.21910  -0.21773  -0.19956  -0.13545  -0.13230
  Beta  occ. eigenvalues --   -0.12111
  Beta virt. eigenvalues --    0.05604   0.06508   0.07141   0.07311   0.08383
  Beta virt. eigenvalues --    0.08840   0.09341   0.09764   0.10113   0.10162
  Beta virt. eigenvalues --    0.10337   0.10803   0.11176   0.12180   0.12554

 Mulliken charges and spin densities:
               1          2
     1  C   -1.024103   0.521799
     2  C    0.007459  -0.160721
     3  C    1.537955  -1.579061
     4  C   -1.147314   0.654154
     5  C   -0.603490   0.479673
     6  C    1.613920  -0.306114
     7  C   -0.131796  -0.844404
     8  N    0.109237  -0.002589
     9  C    0.113302  -0.391639
    10  C   -0.104853  -0.109489
    11  C   -0.405287   0.174419
    12  C    0.161792  -0.615708
    13  O   -0.240965   0.003262
    14  O   -0.266219   0.010874
    15  O   -0.271362  -0.120247
    16  O   -0.285630   0.006214
    17  H    0.057276   0.047940
    18  H    0.148322   0.024074
    19  H    0.063544   0.117943
    20  H    0.046306   0.045413
    21  H    0.165981   0.008758
    22  H   -0.083871   0.247281
    23  H    0.012517   0.152033
    24  H   -0.177868   0.342714
    25  H    0.105455   0.040490
    26  H    0.054123   0.111563
    27  H    0.161747  -0.009221
    28  H    0.134106   0.026062
    29  H    0.083933   0.082309
    30  H    0.047996   0.202590
    31  H   -0.059368   0.366749
    32  H   -0.786949   1.132629
    33  H   -0.035896   0.340249
 Sum of Mulliken charges =  -1.00000   1.00000

 Dipole moment (field-independent basis, Debye):
    X=              6.9223    Y=             -4.6662    Z=              1.5004  Tot=              8.4819
 Quadrupole moment (field-independent basis, Debye-Ang):
   XX=           -230.3004   YY=           -128.4524   ZZ=           -117.7972
   XY=             10.2219   XZ=              5.2833   YZ=             -0.4903

 Summary of Natural Population Analysis:

                                       Natural Population
                Natural  -----------------------------------------------
    Atom  No    Charge         Core      Valence    Rydberg      Total
 -----------------------------------------------------------------------
      C    1   -0.09168      0.99954     2.08436    0.00778     3.09168
      C    2   -0.14379      0.99953     2.13385    0.01041     3.14379
      C    3    0.14964      0.99935     1.83666    0.01436     2.85036
      C    4    0.08929      0.99929     1.89814    0.01328     2.91071
      C    5    0.15976      0.99930     1.82635    0.01459     2.84024
      C    6   -0.06050      0.99947     2.05045    0.01058     3.06050
      C    7   -0.09375      0.99959     2.08363    0.01052     3.09375
      N    8   -0.33230      0.99975     2.82174    0.01081     3.83230
      C    9   -0.09120      0.99963     2.07847    0.01310     3.09120
      C   10   -0.20758      0.99962     2.19826    0.00969     3.20758
      C   11   -0.20757      0.99962     2.20010    0.00785     3.20757
      C   12   -0.01143      0.99960     1.99953    0.01230     3.01143
      O   13   -0.36966      0.99990     3.36290    0.00686     4.36966
      O   14   -0.33652      0.99988     3.32994    0.00670     4.33652
      O   15   -0.37417      0.99989     3.36510    0.00918     4.37417
      O   16   -0.34117      0.99988     3.33478    0.00651     4.34117
      H   17    0.09574      0.00000     0.40326    0.00100     0.40426
      H   18    0.10265      0.00000     0.39617    0.00118     0.39735
      H   19    0.10222      0.00000     0.39640    0.00138     0.39778
      H   20    0.07800      0.00000     0.41985    0.00215     0.42200
      H   21    0.16818      0.00000     0.32885    0.00297     0.33182
      H   22    0.09095      0.00000     0.40796    0.00109     0.40905
      H   23    0.09526      0.00000     0.40377    0.00097     0.40474
      H   24    0.09805      0.00000     0.40050    0.00146     0.40195
      H   25    0.09948      0.00000     0.39957    0.00095     0.40052
      H   26    0.09944      0.00000     0.39951    0.00106     0.40056
      H   27    0.09731      0.00000     0.40126    0.00142     0.40269
      H   28    0.08519      0.00000     0.41361    0.00121     0.41481
      H   29    0.07532      0.00000     0.42333    0.00135     0.42468
      H   30    0.22918      0.00000     0.26713    0.00369     0.27082
      H   31    0.24515      0.00000     0.25092    0.00393     0.25485
      H   32    0.25552      0.00000     0.17828    0.06620     0.24448
      H   33    0.24499      0.00000     0.25107    0.00394     0.25501
 =======================================================================
   * Total *    0.00000     15.99384    44.74570    0.26046    61.00000

 Normal termination of Gaussian 16 at Thu Dec 10 22:44:20 2020.
