 Gaussian 16, Revision A.03,

 ----------------------------------------------------------------------
 # opt=(cartesian,calcfc,maxcycle=500) freq B3LYP/6-31G(d) empiricaldis
 persion=gd3bj scf=xqc
 ----------------------------------------------------------------------

 ------------------------------
 CID_89058348_JID_5061_neutraal
 ------------------------------
 Symbolic Z-matrix:
 Charge =  0 Multiplicity = 1

 SCF Done:  E(RB3LYP) =  -4574.53059058     A.U. after   14 cycles
 SCF Done:  E(RB3LYP) =  -4574.53528438     A.U. after   12 cycles
 SCF Done:  E(RB3LYP) =  -4574.54035461     A.U. after   12 cycles
 SCF Done:  E(RB3LYP) =  -4574.54043788     A.U. after   12 cycles
 SCF Done:  E(RB3LYP) =  -4574.54048971     A.U. after   12 cycles
 SCF Done:  E(RB3LYP) =  -4574.54016976     A.U. after   12 cycles
 SCF Done:  E(RB3LYP) =  -4574.54123156     A.U. after   12 cycles
 SCF Done:  E(RB3LYP) =  -4574.54157888     A.U. after   12 cycles
 SCF Done:  E(RB3LYP) =  -4574.54166872     A.U. after   12 cycles
 SCF Done:  E(RB3LYP) =  -4574.54189563     A.U. after   12 cycles
 SCF Done:  E(RB3LYP) =  -4574.54647575     A.U. after    8 cycles
 SCF Done:  E(RB3LYP) =  -4574.54647583     A.U. after    7 cycles
 SCF Done:  E(RB3LYP) =  -4574.54647585     A.U. after    6 cycles
 SCF Done:  E(RB3LYP) =  -4574.54647579     A.U. after    8 cycles
 SCF Done:  E(RB3LYP) =  -4574.54647586     A.U. after    6 cycles
 Optimization completed.
    -- Stationary point found.
 Normal termination of Gaussian 16 at Sat Feb 27 20:03:35 2021.

 --------------------------------------------------------------------
 #N Geom=AllCheck Guess=TCheck SCRF=Check GenChk RB3LYP/6-31G(d) Freq
 --------------------------------------------------------------------

 Structure from the checkpoint file:  "JID_5061.chk"
 ------------------------------
 CID_89058348_JID_5061_neutraal
 ------------------------------
 Charge =  0 Multiplicity = 1

 SCF Done:  E(RB3LYP) =  -4574.54647586     A.U. after    1 cycles

  Exact polarizability: 311.803 -28.417 257.877   5.090  -2.493 171.257
 Approx polarizability: 491.106 -56.927 440.106   8.837  -5.592 358.061

                      1                      2                      3
                      A                      A                      A
 Frequencies --     15.5480                22.3047                29.0358
 Red. masses --     11.9005                 8.7237                16.6529
 Frc consts  --      0.0017                 0.0026                 0.0083
 IR Inten    --      0.1630                 0.1656                 0.1082

                      4                      5                      6
                      A                      A                      A
 Frequencies --     35.9337                36.4420                48.3994
 Red. masses --     12.1748                12.7197                15.1933
 Frc consts  --      0.0093                 0.0100                 0.0210
 IR Inten    --      0.2532                 0.2034                 0.3035

                      7                      8                      9
                      A                      A                      A
 Frequencies --     51.2032                60.5053                68.9504
 Red. masses --      8.1525                26.4647                 2.9375
 Frc consts  --      0.0126                 0.0571                 0.0082
 IR Inten    --      2.6680                 0.0685                 4.6046

                     10                     11                     12
                      A                      A                      A
 Frequencies --     82.1160               104.3017               111.2661
 Red. masses --      5.9177                11.5598                 8.0407
 Frc consts  --      0.0235                 0.0741                 0.0587
 IR Inten    --      1.1778                 1.8767                 0.8223

                     13                     14                     15
                      A                      A                      A
 Frequencies --    123.0464               142.2385               157.1952
 Red. masses --      5.8678                 3.3738                13.9297
 Frc consts  --      0.0523                 0.0402                 0.2028
 IR Inten    --      0.3853                 1.0705                 0.4567

                     16                     17                     18
                      A                      A                      A
 Frequencies --    172.5959               178.1090               219.3495
 Red. masses --     14.7759                 9.1526                24.5135
 Frc consts  --      0.2593                 0.1711                 0.6949
 IR Inten    --      1.6763                 0.6214                 0.5040

                     19                     20                     21
                      A                      A                      A
 Frequencies --    225.8595               241.1054               252.9188
 Red. masses --      6.5106                14.3405                20.5470
 Frc consts  --      0.1957                 0.4912                 0.7744
 IR Inten    --      1.3289                 5.2922                 0.9072

                     22                     23                     24
                      A                      A                      A
 Frequencies --    271.2927               277.8109               292.5736
 Red. masses --      2.7636                 1.5186                24.7027
 Frc consts  --      0.1198                 0.0691                 1.2458
 IR Inten    --     42.4989                76.6571                 4.6603

                     25                     26                     27
                      A                      A                      A
 Frequencies --    350.4376               378.3271               393.5866
 Red. masses --      7.4577                31.8568                28.7768
 Frc consts  --      0.5396                 2.6865                 2.6265
 IR Inten    --      0.7050                 0.1590                 3.9340

                     28                     29                     30
                      A                      A                      A
 Frequencies --    412.7719               415.4908               430.0841
 Red. masses --      1.5109                 6.2893                20.4618
 Frc consts  --      0.1517                 0.6397                 2.2300
 IR Inten    --      9.9369                 2.0497                 4.5292

                     31                     32                     33
                      A                      A                      A
 Frequencies --    444.2044               446.8580               449.5022
 Red. masses --      6.3328                 8.6279                31.2968
 Frc consts  --      0.7362                 1.0151                 3.7257
 IR Inten    --      9.9621                16.9709                 1.3255

                     34                     35                     36
                      A                      A                      A
 Frequencies --    459.1099               465.3320               478.4125
 Red. masses --     10.9655                30.7162                20.3281
 Frc consts  --      1.3618                 3.9187                 2.7413
 IR Inten    --      5.7407                 0.6840                 3.7309

                     37                     38                     39
                      A                      A                      A
 Frequencies --    482.9720               712.2100               765.3901
 Red. masses --     10.7438                 4.3366                 1.1611
 Frc consts  --      1.4766                 1.2960                 0.4008
 IR Inten    --      8.5822                 5.3018                 2.7657

                     40                     41                     42
                      A                      A                      A
 Frequencies --    868.3670               918.6713              1025.4870
 Red. masses --      1.2435                 1.0547                 2.7913
 Frc consts  --      0.5525                 0.5245                 1.7295
 IR Inten    --      2.9125                 8.1256                27.9795

                     43                     44                     45
                      A                      A                      A
 Frequencies --   1055.5558              1087.4562              1093.7518
 Red. masses --      3.3085                 1.3312                 4.6508
 Frc consts  --      2.1719                 0.9275                 3.2780
 IR Inten    --      8.3410                 0.6008                64.8335

                     46                     47                     48
                      A                      A                      A
 Frequencies --   1219.3842              1235.0693              1297.8042
 Red. masses --      1.2803                 1.1506                 1.2456
 Frc consts  --      1.1216                 1.0341                 1.2361
 IR Inten    --      2.7164                28.5108                41.3524

                     49                     50                     51
                      A                      A                      A
 Frequencies --   1309.4951              1335.8632              1378.5836
 Red. masses --      1.1930                 1.0766                 1.4118
 Frc consts  --      1.2053                 1.1320                 1.5808
 IR Inten    --      3.3136                 2.5151                25.3030

                     52                     53                     54
                      A                      A                      A
 Frequencies --   1483.6663              1495.8689              1526.6441
 Red. masses --      1.4603                 1.0950                 1.0878
 Frc consts  --      1.8940                 1.4436                 1.4937
 IR Inten    --     20.4197                 3.9594                 4.6037

                     55                     56                     57
                      A                      A                      A
 Frequencies --   1558.8431              2560.3969              2978.3125
 Red. masses --      1.0886                 1.0388                 1.0545
 Frc consts  --      1.5586                 4.0124                 5.5111
 IR Inten    --      3.4412                70.5344                58.7645

                     58                     59                     60
                      A                      A                      A
 Frequencies --   3004.2966              3059.7185              3069.8103
 Red. masses --      1.1078                 1.0589                 1.0597
 Frc consts  --      5.8909                 5.8409                 5.8839
 IR Inten    --     57.7656                 4.4623                20.7300

                     61                     62                     63
                      A                      A                      A
 Frequencies --   3103.2716              3123.5009              3756.2052
 Red. masses --      1.1040                 1.1067                 1.0665
 Frc consts  --      6.2639                 6.3613                 8.8653
 IR Inten    --      1.9629                18.6618                18.3757

 - Thermochemistry -
 -------------------
 Temperature   298.150 Kelvin.  Pressure   1.00000 Atm.
 Atom     1 has atomic number 16 and mass  31.97207

 Molecular mass:   411.75030 amu.
 Principal axes and moments of inertia in atomic units:
                           1         2         3
     Eigenvalues --  7390.07720********************
           X            0.99964   0.02641   0.00354
           Y           -0.02642   0.99965   0.00226
           Z           -0.00348  -0.00235   0.99999
 This molecule is an asymmetric top.
 Rotational symmetry number  1.
 Warning -- assumption of classical behavior for rotation
           may cause significant error
 Rotational temperatures (Kelvin)      0.01172     0.00730     0.00503
 Rotational constants (GHZ):           0.24421     0.15220     0.10491
 Zero-point vibrational energy     328080.7 (Joules/Mol)
                                   78.41318 (Kcal/Mol)
 Warning -- explicit consideration of  37 degrees of freedom as
           vibrations may cause significant error
 Vibrational temperatures:     22.37    32.09    41.78    51.70    52.43
          (Kelvin)             69.64    73.67    87.05    99.20   118.15
                              150.07   160.09   177.04   204.65   226.17
                              248.33   256.26   315.59   324.96   346.90
                              363.89   390.33   399.71   420.95   504.20
                              544.33   566.28   593.89   597.80   618.80
                              639.11   642.93   646.73   660.56   669.51
                              688.33   694.89  1024.71  1101.23  1249.39
                             1321.76  1475.45  1518.71  1564.61  1573.66
                             1754.42  1776.99  1867.25  1884.07  1922.01
                             1983.47  2134.66  2152.22  2196.50  2242.83
                             3683.84  4285.13  4322.51  4402.25  4416.77
                             4464.92  4494.02  5404.34

 Zero-point correction=                           0.124959 (Hartree/Particle)
 Thermal correction to Energy=                    0.148417
 Thermal correction to Enthalpy=                  0.149361
 Thermal correction to Gibbs Free Energy=         0.065553
 Sum of electronic and zero-point Energies=          -4574.421517
 Sum of electronic and thermal Energies=             -4574.398059
 Sum of electronic and thermal Enthalpies=           -4574.397115
 Sum of electronic and thermal Free Energies=        -4574.480923

                     E (Thermal)             CV                S
                      KCal/Mol        Cal/Mol-Kelvin    Cal/Mol-Kelvin
 Total                   93.133             74.581            176.389
 Electronic               0.000              0.000              0.000
 Translational            0.889              2.981             43.937
 Rotational               0.889              2.981             35.665
 Vibrational             91.356             68.619             96.787
 Vibration     1          0.593              1.986              7.134
 Vibration     2          0.593              1.985              6.418
 Vibration     3          0.593              1.984              5.894
 Vibration     4          0.594              1.982              5.472
 Vibration     5          0.594              1.982              5.444
 Vibration     6          0.595              1.978              4.882
 Vibration     7          0.595              1.977              4.770
 Vibration     8          0.597              1.973              4.441
 Vibration     9          0.598              1.969              4.183
 Vibration    10          0.600              1.961              3.840
 Vibration    11          0.605              1.946              3.372
 Vibration    12          0.607              1.940              3.247
 Vibration    13          0.610              1.930              3.052
 Vibration    14          0.616              1.911              2.774
 Vibration    15          0.621              1.895              2.583
 Vibration    16          0.626              1.876              2.407
 Vibration    17          0.629              1.869              2.348
 Vibration    18          0.647              1.812              1.964
 Vibration    19          0.650              1.802              1.912
 Vibration    20          0.658              1.777              1.795
 Vibration    21          0.664              1.758              1.710
 Vibration    22          0.675              1.726              1.588
 Vibration    23          0.679              1.715              1.547
 Vibration    24          0.688              1.688              1.459
 Vibration    25          0.727              1.574              1.164
 Vibration    26          0.749              1.516              1.046
 Vibration    27          0.761              1.484              0.987
 Vibration    28          0.777              1.443              0.917
 Vibration    29          0.779              1.437              0.907
 Vibration    30          0.791              1.405              0.858
 Vibration    31          0.804              1.374              0.813
 Vibration    32          0.806              1.368              0.805
 Vibration    33          0.808              1.362              0.797
 Vibration    34          0.817              1.341              0.769
 Vibration    35          0.823              1.327              0.751
 Vibration    36          0.835              1.298              0.714
 Vibration    37          0.839              1.288              0.702

 Normal termination of Gaussian 16 at Sat Feb 27 20:11:33 2021.

 ----------------------------------------------------------------------
 # B3LYP/6-311++G(d,p) empiricaldispersion=gd3bj scf=xqc pop=npa geom=c
 heck
 ----------------------------------------------------------------------

 --------------------------------------
 CID_89058348_JID_5061_Energie_neutraal
 --------------------------------------
 Structure from the checkpoint file:  "JID_5061.chk"
 Charge =  0 Multiplicity = 1

 SCF Done:  E(RB3LYP) =  -4574.91632713     A.U. after   15 cycles
 Normal termination of Gaussian 16 at Sat Feb 27 20:15:41 2021.

 ----------------------------------------------------------------------
 # B3LYP/6-311++G(d,p) empiricaldispersion=gd3bj scf=xqc pop=npa geom=c
 heck
 ----------------------------------------------------------------------

 ------------------------------------
 CID_89058348_JID_5061_Energie_kation
 ------------------------------------
 Structure from the checkpoint file:  "JID_5061.chk"
 Charge =  1 Multiplicity = 2

 SCF Done:  E(UB3LYP) =  -4574.61139901     A.U. after   32 cycles
 Normal termination of Gaussian 16 at Sat Feb 27 20:27:39 2021.
 Gaussian 16:  ES64L-G16RevA.03 25-Dec-2016

 ----------------------------------------------------------------------
 # B3LYP/6-311++G(d,p) empiricaldispersion=gd3bj scf=xqc pop=npa geom=c
 heck
 ----------------------------------------------------------------------

 -----------------------------------
 CID_89058348_JID_5061_Energie_anion
 -----------------------------------
 Structure from the checkpoint file:  "JID_5061.chk"
 Charge = -1 Multiplicity = 2

                         Standard orientation:
 ---------------------------------------------------------------------
 Center     Atomic      Atomic             Coordinates (Angstroms)
 Number     Number       Type             X           Y           Z
 ---------------------------------------------------------------------
      1         16           0       -1.543714   -0.307481   -1.151472
      2         16           0       -0.762315   -0.925210    0.673179
      3         16           0       -0.100797   -2.906488    0.383159
      4         16           0        1.654977   -2.742855   -0.744189
      5         16           0        3.241716   -2.393880    0.574265
      6         16           0        3.094048   -0.392959    1.210911
      7         16           0        3.598087    0.810467   -0.421647
      8         16           0        1.807370    1.428360   -1.332922
      9         16           0        1.297555    3.233795   -0.394539
     10         16           0       -0.088398    2.795679    1.123712
     11         16           0       -1.990518    3.176967    0.349382
     12          8           0       -6.318148   -0.669338    0.883024
     13          6           0       -4.164829   -0.540927   -0.100163
     14          6           0       -3.214960   -1.081985   -1.162286
     15          6           0       -5.512824   -1.252963   -0.130162
     16          1           0       -4.329614    0.532208   -0.248611
     17          1           0       -3.726030   -0.666984    0.895533
     18          1           0       -3.585762   -0.883227   -2.175231
     19          1           0       -3.074064   -2.164399   -1.072074
     20          1           0       -5.974138   -1.140535   -1.125738
     21          1           0       -5.365301   -2.332042    0.042723
     22          1           0       -7.176090   -1.119532    0.882358
     23          1           0       -2.196302    1.962161   -0.224900
 ---------------------------------------------------------------------

 SCF Done:  E(UB3LYP) =  -4574.95992265     A.U. after   33 cycles
 SCF Done:  E(UB3LYP) =  -4574.95993453     a.u. after    3 cycles

 The electronic state is 2-A.
 Alpha  occ. eigenvalues --  -88.78610 -88.78365 -88.78050 -88.77605 -88.76808
 Alpha  occ. eigenvalues --  -88.76489 -88.75900 -88.75510 -88.75504 -88.74924
 Alpha  occ. eigenvalues --  -88.74915 -19.06686 -10.15718 -10.12604 -10.09800
 Alpha  occ. eigenvalues --   -7.86957  -7.86770  -7.86472  -7.86088  -7.85249
 Alpha  occ. eigenvalues --   -7.84844  -7.84346  -7.83926  -7.83922  -7.83561
 Alpha  occ. eigenvalues --   -7.83389  -5.83404  -5.83195  -5.82995  -5.82940
 Alpha  occ. eigenvalues --   -5.82830  -5.82540  -5.82511  -5.82267  -5.82101
 Alpha  occ. eigenvalues --   -5.82101  -5.81730  -5.81700  -5.81442  -5.81324
 Alpha  occ. eigenvalues --   -5.81311  -5.80906  -5.80812  -5.80570  -5.80390
 Alpha  occ. eigenvalues --   -5.80382  -5.80376  -5.80116  -5.79973  -5.79971
 Alpha  occ. eigenvalues --   -5.79967  -5.79845  -5.79659  -5.79561  -5.79431
 Alpha  occ. eigenvalues --   -5.79256  -5.79255  -5.78954  -5.78717  -0.96746
 Alpha  occ. eigenvalues --   -0.75065  -0.73182  -0.71588  -0.70338  -0.68319
 Alpha  occ. eigenvalues --   -0.66051  -0.63391  -0.60594  -0.57906  -0.54782
 Alpha  occ. eigenvalues --   -0.52821  -0.50705  -0.47753  -0.45536  -0.44844
 Alpha  occ. eigenvalues --   -0.42065  -0.36610  -0.35975  -0.33951  -0.32605
 Alpha  occ. eigenvalues --   -0.31965  -0.31010  -0.29737  -0.28907  -0.28616
 Alpha  occ. eigenvalues --   -0.27850  -0.27328  -0.26471  -0.26231  -0.25172
 Alpha  occ. eigenvalues --   -0.24316  -0.23891  -0.23568  -0.22104  -0.18152
 Alpha  occ. eigenvalues --   -0.17568  -0.17443  -0.16674  -0.15943  -0.15433
 Alpha  occ. eigenvalues --   -0.14435  -0.13283  -0.12738  -0.12689  -0.11704
 Alpha  occ. eigenvalues --    0.00606
 Alpha virt. eigenvalues --    0.03251   0.04170   0.04518   0.04902   0.05375
 Alpha virt. eigenvalues --    0.06555   0.07024   0.07515   0.08234   0.08348
 Alpha virt. eigenvalues --    0.09051   0.09620   0.10143   0.10594   0.11109

  Beta  occ. eigenvalues --  -88.78620 -88.78327 -88.77987 -88.77596 -88.76724
  Beta  occ. eigenvalues --  -88.76442 -88.75800 -88.75424 -88.75406 -88.74884
  Beta  occ. eigenvalues --  -88.74774 -19.06685 -10.15718 -10.12605 -10.09799
  Beta  occ. eigenvalues --   -7.86965  -7.86732  -7.86405  -7.86078  -7.85167
  Beta  occ. eigenvalues --   -7.84793  -7.84239  -7.83837  -7.83820  -7.83522
  Beta  occ. eigenvalues --   -7.83240  -5.83415  -5.83131  -5.83009  -5.82888
  Beta  occ. eigenvalues --   -5.82769  -5.82497  -5.82400  -5.82283  -5.82093
  Beta  occ. eigenvalues --   -5.82075  -5.81682  -5.81585  -5.81429  -5.81308
  Beta  occ. eigenvalues --   -5.81150  -5.80785  -5.80756  -5.80506  -5.80334
  Beta  occ. eigenvalues --   -5.80334  -5.80149  -5.80081  -5.79874  -5.79781
  Beta  occ. eigenvalues --   -5.79744  -5.79695  -5.79573  -5.79523  -5.79201
  Beta  occ. eigenvalues --   -5.79198  -5.79105  -5.78927  -5.78575  -0.96745
  Beta  occ. eigenvalues --   -0.74936  -0.72965  -0.71049  -0.69998  -0.67992
  Beta  occ. eigenvalues --   -0.65666  -0.63084  -0.60270  -0.57601  -0.54543
  Beta  occ. eigenvalues --   -0.52656  -0.50437  -0.47502  -0.45419  -0.44485
  Beta  occ. eigenvalues --   -0.42059  -0.36581  -0.35966  -0.33795  -0.32453
  Beta  occ. eigenvalues --   -0.31823  -0.30895  -0.29602  -0.28698  -0.28500
  Beta  occ. eigenvalues --   -0.27689  -0.27176  -0.26297  -0.25798  -0.24776
  Beta  occ. eigenvalues --   -0.24090  -0.23439  -0.22953  -0.22103  -0.17900
  Beta  occ. eigenvalues --   -0.17327  -0.17239  -0.16458  -0.15718  -0.15153
  Beta  occ. eigenvalues --   -0.14224  -0.13047  -0.12411  -0.12184  -0.11366
  Beta virt. eigenvalues --    0.03651   0.04190   0.04711   0.05044   0.05352
  Beta virt. eigenvalues --    0.06440   0.06582   0.07611   0.07901   0.08348
  Beta virt. eigenvalues --    0.08623   0.09208   0.09706   0.10247   0.10651

 Mulliken charges and spin densities:
               1          2
     1  S    0.209572   0.039899
     2  S    0.153775   0.013399
     3  S   -0.141991   0.083960
     4  S   -0.038684   0.004970
     5  S   -0.148827   0.113455
     6  S    0.023950   0.112875
     7  S   -0.273440   0.190443
     8  S   -0.001175   0.147635
     9  S   -0.286449   0.165449
    10  S    0.035298   0.073127
    11  S    0.026088   0.049198
    12  O   -0.245376   0.000471
    13  C    0.065855  -0.002603
    14  C   -0.677577  -0.016091
    15  C   -0.534158   0.008341
    16  H    0.131733   0.017969
    17  H    0.116516  -0.003197
    18  H    0.180584   0.001195
    19  H    0.118719   0.000369
    20  H    0.136810  -0.000086
    21  H    0.147030   0.000106
    22  H    0.233356  -0.000123
    23  H   -0.231607  -0.000760
 Sum of Mulliken charges =  -1.00000   1.00000

 Dipole moment (field-independent basis, Debye):
    X=             -8.0350    Y=             -4.6925    Z=             -1.7781  Tot=              9.4733
 Quadrupole moment (field-independent basis, Debye-Ang):
   XX=           -197.6030   YY=           -213.5702   ZZ=           -186.3454
   XY=             15.3835   XZ=              8.4496   YZ=              0.6154

 Summary of Natural Population Analysis:

                                       Natural Population
                Natural  -----------------------------------------------
    Atom  No    Charge         Core      Valence    Rydberg      Total
 -----------------------------------------------------------------------
      S    1    0.05887      4.99966     2.91532    0.02614     7.94113
      S    2    0.01328      4.99982     2.96026    0.02664     7.98672
      S    3   -0.01977      4.99981     2.99535    0.02461     8.01977
      S    4   -0.02505      4.99981     2.99834    0.02690     8.02505
      S    5    0.00255      4.99981     2.97175    0.02589     7.99745
      S    6    0.01139      4.99981     2.96166    0.02714     7.98861
      S    7    0.01067      4.99981     2.96429    0.02523     7.98933
      S    8    0.02456      4.99982     2.94869    0.02694     7.97544
      S    9    0.00597      4.99981     2.96927    0.02495     7.99403
      S   10   -0.01159      4.99983     2.98488    0.02688     8.01159
      S   11   -0.07445      4.99967     3.05377    0.02101     8.07445
      O   12   -0.36519      0.99989     3.35896    0.00634     4.36519
      C   13   -0.21189      0.99962     2.20203    0.01024     3.21189
      C   14   -0.25521      0.99959     2.24706    0.00856     3.25521
      C   15   -0.00723      0.99960     1.99726    0.01037     3.00723
      H   16    0.10239      0.00000     0.39546    0.00215     0.39761
      H   17    0.10988      0.00000     0.38862    0.00150     0.39012
      H   18    0.10173      0.00000     0.39690    0.00137     0.39827
      H   19    0.10289      0.00000     0.39530    0.00180     0.39711
      H   20    0.07102      0.00000     0.42745    0.00153     0.42898
      H   21    0.07342      0.00000     0.42508    0.00151     0.42658
      H   22    0.22485      0.00000     0.27260    0.00255     0.27515
      H   23    0.05691      0.00000     0.43876    0.00433     0.44309
 =======================================================================
   * Total *   -0.00000     58.99635    45.66906    0.33459   105.00000

 Normal termination of Gaussian 16 at Sat Feb 27 21:02:11 2021.
