 Gaussian 16, Revision A.03,

 -----------------------------------------------------------
 # opt freq B3LYP/6-31G(d) empiricaldispersion=gd3bj scf=xqc
 -----------------------------------------------------------

 -------------------------------
 CID_107036362_JID_6392_neutraal
 -------------------------------
 Symbolic Z-matrix:
 Charge =  0 Multiplicity = 1

 SCF Done:  E(RB3LYP) =  -1068.35662408     A.U. after   15 cycles
 SCF Done:  E(RB3LYP) =  -1068.35840373     A.U. after   13 cycles
 SCF Done:  E(RB3LYP) =  -1068.35807819     A.U. after   13 cycles
 SCF Done:  E(RB3LYP) =  -1068.35863483     A.U. after   13 cycles
 SCF Done:  E(RB3LYP) =  -1068.35974895     A.U. after   13 cycles
 SCF Done:  E(RB3LYP) =  -1068.36001207     A.U. after   12 cycles
 SCF Done:  E(RB3LYP) =  -1068.36004796     A.U. after   11 cycles
 SCF Done:  E(RB3LYP) =  -1068.36012170     A.U. after   11 cycles
 SCF Done:  E(RB3LYP) =  -1068.36016286     A.U. after   11 cycles
 SCF Done:  E(RB3LYP) =  -1068.36020351     A.U. after   11 cycles
 SCF Done:  E(RB3LYP) =  -1068.36116865     A.U. after    7 cycles
 SCF Done:  E(RB3LYP) =  -1068.36116877     A.U. after    7 cycles
 SCF Done:  E(RB3LYP) =  -1068.36116881     A.U. after    7 cycles
 SCF Done:  E(RB3LYP) =  -1068.36116881     A.U. after    7 cycles
 Optimization completed.
    -- Stationary point found.
 Normal termination of Gaussian 16 at Thu Dec 10 22:53:05 2020.

 --------------------------------------------------------------------
 #N Geom=AllCheck Guess=TCheck SCRF=Check GenChk RB3LYP/6-31G(d) Freq
 --------------------------------------------------------------------

 Structure from the checkpoint file:  "JID_6392.chk"
 -------------------------------
 CID_107036362_JID_6392_neutraal
 -------------------------------
 Charge =  0 Multiplicity = 1

 SCF Done:  E(RB3LYP) =  -1068.36116881     A.U. after    1 cycles

  Exact polarizability: 182.074   3.041 153.437   3.364  -3.558 114.929
 Approx polarizability: 238.547   2.168 230.367  11.339 -13.183 183.297

                      1                      2                      3
                      A                      A                      A
 Frequencies --     23.8325                31.0939                41.8850
 Red. masses --      6.2622                 5.5141                 4.8755
 Frc consts  --      0.0021                 0.0031                 0.0050
 IR Inten    --      1.3019                 0.5582                 0.8843

                      4                      5                      6
                      A                      A                      A
 Frequencies --     59.6846                69.3547                83.3971
 Red. masses --      4.8064                 5.0738                 1.8270
 Frc consts  --      0.0101                 0.0144                 0.0075
 IR Inten    --      0.1025                 1.1073                 2.2424

                      7                      8                      9
                      A                      A                      A
 Frequencies --     89.3298               125.3951               127.2607
 Red. masses --      1.4605                 3.6941                 1.1630
 Frc consts  --      0.0069                 0.0342                 0.0111
 IR Inten    --      0.9317                 1.8513                 0.2962

                     10                     11                     12
                      A                      A                      A
 Frequencies --    172.3974               188.5264               194.8249
 Red. masses --      3.2153                 2.7674                 4.7435
 Frc consts  --      0.0563                 0.0580                 0.1061
 IR Inten    --      3.5776                 1.4618                 2.7550

                     13                     14                     15
                      A                      A                      A
 Frequencies --    244.2891               264.7116               306.2609
 Red. masses --      2.4238                 2.6041                 2.3738
 Frc consts  --      0.0852                 0.1075                 0.1312
 IR Inten    --      9.9928                 5.1536                 2.2969

                     16                     17                     18
                      A                      A                      A
 Frequencies --    315.2825               324.9657               337.0696
 Red. masses --      2.6148                 1.0785                 2.8649
 Frc consts  --      0.1531                 0.0671                 0.1918
 IR Inten    --      1.5716                37.0649                 1.7441

                     19                     20                     21
                      A                      A                      A
 Frequencies --    372.3567               405.2708               476.7380
 Red. masses --      3.2079                 3.0878                 2.6679
 Frc consts  --      0.2621                 0.2988                 0.3573
 IR Inten    --      8.6872                 4.4150                 2.4598

                     22                     23                     24
                      A                      A                      A
 Frequencies --    500.1191               526.9956               579.3199
 Red. masses --      2.5255                 3.5893                 3.4381
 Frc consts  --      0.3722                 0.5873                 0.6798
 IR Inten    --      3.5482                 6.6888                15.5756

                     25                     26                     27
                      A                      A                      A
 Frequencies --    600.7770               621.8528               644.6727
 Red. masses --      3.9472                 2.3543                 4.8345
 Frc consts  --      0.8394                 0.5364                 1.1838
 IR Inten    --      1.6756                 4.8346                 0.6635

                     28                     29                     30
                      A                      A                      A
 Frequencies --    657.3728               675.1984               686.6480
 Red. masses --      4.2134                 3.3551                 4.2433
 Frc consts  --      1.0728                 0.9012                 1.1788
 IR Inten    --      7.5390                 0.3259                 0.9345

                     31                     32                     33
                      A                      A                      A
 Frequencies --    730.5250               764.2201               793.5717
 Red. masses --      1.7936                 1.8028                 1.2534
 Frc consts  --      0.5639                 0.6203                 0.4651
 IR Inten    --      0.3040                23.5522                20.7386

                     34                     35                     36
                      A                      A                      A
 Frequencies --    815.8145               825.0559               846.3412
 Red. masses --      1.8580                 1.5269                 1.8996
 Frc consts  --      0.7286                 0.6124                 0.8017
 IR Inten    --      7.9814                71.6743                21.9768

                     37                     38                     39
                      A                      A                      A
 Frequencies --    878.3941               967.2076               985.4840
 Red. masses --      2.4616                 1.9304                 1.8636
 Frc consts  --      1.1191                 1.0640                 1.0664
 IR Inten    --     21.5133                 7.2741                19.3902

                     40                     41                     42
                      A                      A                      A
 Frequencies --   1002.1431              1012.0994              1016.2236
 Red. masses --      1.7119                 1.5155                 1.6997
 Frc consts  --      1.0130                 0.9147                 1.0342
 IR Inten    --     12.1331                 4.5354                 8.8405

                     43                     44                     45
                      A                      A                      A
 Frequencies --   1033.4721              1058.1152              1067.9919
 Red. masses --      1.9285                 2.8994                 2.3305
 Frc consts  --      1.2136                 1.9126                 1.5662
 IR Inten    --      3.2308                 4.5128                 8.6833

                     46                     47                     48
                      A                      A                      A
 Frequencies --   1077.3925              1077.7188              1094.5276
 Red. masses --      1.4837                 1.4746                 2.5065
 Frc consts  --      1.0147                 1.0091                 1.7691
 IR Inten    --      0.7797                 2.8218                 5.1521

                     49                     50                     51
                      A                      A                      A
 Frequencies --   1149.6165              1164.4620              1183.4451
 Red. masses --      2.9360                 2.4565                 1.4404
 Frc consts  --      2.2862                 1.9625                 1.1886
 IR Inten    --      4.5342                27.3537                 1.5073

                     52                     53                     54
                      A                      A                      A
 Frequencies --   1200.6998              1247.0847              1248.7576
 Red. masses --      1.1630                 1.3163                 2.3714
 Frc consts  --      0.9879                 1.2062                 2.1788
 IR Inten    --      5.1516                 4.4750                 4.6301

                     55                     56                     57
                      A                      A                      A
 Frequencies --   1256.0025              1307.0744              1328.6644
 Red. masses --      1.3121                 1.5678                 1.4846
 Frc consts  --      1.2195                 1.5782                 1.5442
 IR Inten    --      9.5439                33.9253                45.7618

                     58                     59                     60
                      A                      A                      A
 Frequencies --   1344.2558              1355.9103              1396.2830
 Red. masses --      1.3390                 1.6990                 1.3555
 Frc consts  --      1.4256                 1.8403                 1.5570
 IR Inten    --     46.9193                21.4452                28.3657

                     61                     62                     63
                      A                      A                      A
 Frequencies --   1402.3841              1423.3366              1429.6349
 Red. masses --      1.4736                 1.4455                 1.9098
 Frc consts  --      1.7075                 1.7254                 2.2998
 IR Inten    --      2.5905                 0.9755                20.0576

                     64                     65                     66
                      A                      A                      A
 Frequencies --   1439.5786              1445.9581              1454.6200
 Red. masses --      1.6614                 1.3041                 1.6785
 Frc consts  --      2.0286                 1.6065                 2.0925
 IR Inten    --      9.7372                 4.4279                34.3839

                     67                     68                     69
                      A                      A                      A
 Frequencies --   1483.8630              1485.5184              1495.9638
 Red. masses --      2.1547                 1.0889                 1.1158
 Frc consts  --      2.7953                 1.4158                 1.4712
 IR Inten    --     32.4841                 8.9567                 9.9213

                     70                     71                     72
                      A                      A                      A
 Frequencies --   1505.1594              1509.3322              1511.2975
 Red. masses --      1.1794                 1.6154                 1.4699
 Frc consts  --      1.5743                 2.1683                 1.9780
 IR Inten    --     20.1577                 3.1098               107.1270

                     73                     74                     75
                      A                      A                      A
 Frequencies --   1513.4588              1514.2567              1515.9509
 Red. masses --      1.1027                 1.1491                 1.2507
 Frc consts  --      1.4882                 1.5524                 1.6934
 IR Inten    --     14.9178                19.7827                37.7011

                     76                     77                     78
                      A                      A                      A
 Frequencies --   1532.1390              1532.9677              1546.4136
 Red. masses --      1.1841                 1.2876                 1.8834
 Frc consts  --      1.6378                 1.7828                 2.6536
 IR Inten    --     15.3349                10.1873                 6.7779

                     79                     80                     81
                      A                      A                      A
 Frequencies --   1613.6961              1768.4646              2687.4888
 Red. masses --      5.2615                 7.8658                 1.0380
 Frc consts  --      8.0724                14.4940                 4.4173
 IR Inten    --     39.1496               390.1807                 3.8361

                     82                     83                     84
                      A                      A                      A
 Frequencies --   3038.9554              3044.6074              3046.0850
 Red. masses --      1.0700                 1.0441                 1.0564
 Frc consts  --      5.8222                 5.7022                 5.7750
 IR Inten    --     14.5310                 7.7350                41.2353

                     85                     86                     87
                      A                      A                      A
 Frequencies --   3050.5449              3084.0831              3093.1401
 Red. masses --      1.0377                 1.0740                 1.0906
 Frc consts  --      5.6896                 6.0188                 6.1475
 IR Inten    --     29.5883                16.8982                 4.6851

                     88                     89                     90
                      A                      A                      A
 Frequencies --   3094.4208              3099.7002              3101.8375
 Red. masses --      1.0908                 1.0709                 1.1013
 Frc consts  --      6.1540                 6.0623                 6.2429
 IR Inten    --     26.4936                30.3475                19.6986

                     91                     92                     93
                      A                      A                      A
 Frequencies --   3104.4655              3126.1445              3135.5401
 Red. masses --      1.0613                 1.0994                 1.0967
 Frc consts  --      6.0265                 6.3302                 6.3528
 IR Inten    --     21.0848                32.1267                15.4402

                     94                     95                     96
                      A                      A                      A
 Frequencies --   3143.2573              3144.1397              3149.2895
 Red. masses --      1.1005                 1.0985                 1.1047
 Frc consts  --      6.4061                 6.3984                 6.4556
 IR Inten    --      8.7692                18.8629                 8.2575

                     97                     98                     99
                      A                      A                      A
 Frequencies --   3168.7156              3265.2658              3503.3712
 Red. masses --      1.1048                 1.0972                 1.0764
 Frc consts  --      6.5356                 6.8922                 7.7836
 IR Inten    --      5.5735                 3.9993               196.4494

 - Thermochemistry -
 -------------------
 Temperature   298.150 Kelvin.  Pressure   1.00000 Atm.
 Atom     1 has atomic number  6 and mass  12.00000

 Molecular mass:   241.12488 amu.
 Principal axes and moments of inertia in atomic units:
                           1         2         3
     Eigenvalues --  2147.510137507.759208593.17333
           X            0.99998  -0.00246  -0.00620
           Y            0.00236   0.99988  -0.01559
           Z            0.00624   0.01557   0.99986
 This molecule is an asymmetric top.
 Rotational symmetry number  1.
 Warning -- assumption of classical behavior for rotation
           may cause significant error
 Rotational temperatures (Kelvin)      0.04033     0.01154     0.01008
 Rotational constants (GHZ):           0.84039     0.24038     0.21002
 Zero-point vibrational energy     784633.5 (Joules/Mol)
                                  187.53192 (Kcal/Mol)
 Warning -- explicit consideration of  25 degrees of freedom as
           vibrations may cause significant error
 Vibrational temperatures:     34.29    44.74    60.26    85.87    99.79
          (Kelvin)            119.99   128.53   180.42   183.10   248.04
                              271.25   280.31   351.48   380.86   440.64
                              453.62   467.55   484.97   535.74   583.09
                              685.92   719.56   758.23   833.51   864.38
                              894.71   927.54   945.81   971.46   987.93
                             1051.06  1099.54  1141.77  1173.78  1187.07
                             1217.70  1263.81  1391.60  1417.89  1441.86
                             1456.19  1462.12  1486.94  1522.39  1536.60
                             1550.13  1550.60  1574.78  1654.04  1675.40
                             1702.71  1727.54  1794.28  1796.68  1807.11
                             1880.59  1911.65  1934.08  1950.85  2008.94
                             2017.72  2047.86  2056.93  2071.23  2080.41
                             2092.87  2134.95  2137.33  2152.36  2165.59
                             2171.59  2174.42  2177.53  2178.68  2181.12
                             2204.41  2205.60  2224.94  2321.75  2544.43
                             3866.70  4372.38  4380.51  4382.64  4389.05
                             4437.31  4450.34  4452.18  4459.78  4462.85
                             4466.63  4497.82  4511.34  4522.45  4523.72
                             4531.13  4559.08  4697.99  5040.57

 Zero-point correction=                           0.298851 (Hartree/Particle)
 Thermal correction to Energy=                    0.316559
 Thermal correction to Enthalpy=                  0.317503
 Thermal correction to Gibbs Free Energy=         0.250919
 Sum of electronic and zero-point Energies=          -1068.062318
 Sum of electronic and thermal Energies=             -1068.044610
 Sum of electronic and thermal Enthalpies=           -1068.043666
 Sum of electronic and thermal Free Energies=        -1068.110250

                     E (Thermal)             CV                S
                      KCal/Mol        Cal/Mol-Kelvin    Cal/Mol-Kelvin
 Total                  198.644             64.461            140.138
 Electronic               0.000              0.000              0.000
 Translational            0.889              2.981             42.342
 Rotational               0.889              2.981             33.293
 Vibrational            196.866             58.499             64.503
 Vibration     1          0.593              1.985              6.286
 Vibration     2          0.594              1.983              5.758
 Vibration     3          0.595              1.980              5.168
 Vibration     4          0.597              1.974              4.468
 Vibration     5          0.598              1.969              4.172
 Vibration     6          0.600              1.961              3.809
 Vibration     7          0.602              1.957              3.675
 Vibration     8          0.610              1.928              3.015
 Vibration     9          0.611              1.926              2.987
 Vibration    10          0.626              1.876              2.409
 Vibration    11          0.633              1.856              2.242
 Vibration    12          0.635              1.847              2.181
 Vibration    13          0.660              1.772              1.771
 Vibration    14          0.671              1.738              1.630
 Vibration    15          0.697              1.662              1.382
 Vibration    16          0.703              1.644              1.334
 Vibration    17          0.709              1.626              1.285
 Vibration    18          0.718              1.601              1.226
 Vibration    19          0.744              1.529              1.070
 Vibration    20          0.770              1.459              0.943
 Vibration    21          0.833              1.302              0.719
 Vibration    22          0.856              1.250              0.658
 Vibration    23          0.882              1.190              0.594
 Vibration    24          0.936              1.076              0.487
 Vibration    25          0.959              1.030              0.448

 Optimization completed.
    -- Stationary point found.
 Normal termination of Gaussian 16 at Thu Dec 10 23:06:15 2020.

 ----------------------------------------------------------------------
 # B3LYP/6-311++G(d,p) empiricaldispersion=gd3bj scf=xqc pop=npa geom=c
 heck
 ----------------------------------------------------------------------

 ---------------------------------------
 CID_107036362_JID_6392_Energie_neutraal
 ---------------------------------------
 Structure from the checkpoint file:  "JID_6392.chk"
 Charge =  0 Multiplicity = 1

 SCF Done:  E(RB3LYP) =  -1068.57920929     A.U. after   16 cycles
 Normal termination of Gaussian 16 at Thu Dec 10 23:12:18 2020.

 ----------------------------------------------------------------------
 # B3LYP/6-311++G(d,p) empiricaldispersion=gd3bj scf=xqc pop=npa geom=c
 heck
 ----------------------------------------------------------------------

 -------------------------------------
 CID_107036362_JID_6392_Energie_kation
 -------------------------------------
 Structure from the checkpoint file:  "JID_6392.chk"
 Charge =  1 Multiplicity = 2

 SCF Done:  E(UB3LYP) =  -1068.27969362     A.U. after   33 cycles
 SCF Done:  E(UB3LYP) =  -1068.27971319     a.u. after    3 cycles
 Normal termination of Gaussian 16 at Thu Dec 10 23:58:29 2020.
 Gaussian 16:  ES64L-G16RevA.03 25-Dec-2016

 ----------------------------------------------------------------------
 # B3LYP/6-311++G(d,p) empiricaldispersion=gd3bj scf=xqc pop=npa geom=c
 heck
 ----------------------------------------------------------------------

 ------------------------------------
 CID_107036362_JID_6392_Energie_anion
 ------------------------------------
 Structure from the checkpoint file:  "JID_6392.chk"
 Charge = -1 Multiplicity = 2

                         Standard orientation:
 ---------------------------------------------------------------------
 Center     Atomic      Atomic             Coordinates (Angstroms)
 Number     Number       Type             X           Y           Z
 ---------------------------------------------------------------------
      1          6           0        3.359960   -2.551695    0.139162
      2          6           0        3.128652   -1.091444   -0.079478
      3          6           0        4.006619   -0.020874   -0.066357
      4          6           0        3.220401    1.122904   -0.342066
      5          7           0        1.941366    0.783505   -0.515850
      6          7           0        1.901119   -0.569106   -0.362605
      7          6           0        0.613724   -1.245724   -0.385891
      8          6           0       -0.087362   -1.264847    0.978977
      9          6           0       -0.219895    0.134866    1.603923
     10          7           0       -0.761351    1.132236    0.690775
     11          6           0       -2.051507    1.260261    0.273159
     12          8           0       -2.347412    1.940468   -0.707482
     13          6           0       -3.145095    0.562849    1.083557
     14          6           0       -4.270251    0.088390    0.167218
     15         16           0       -3.722783   -1.180112   -1.055363
     16          6           0        3.648209    2.553073   -0.454345
     17          1           0        2.790125   -2.936011    0.994058
     18          1           0        4.419556   -2.732178    0.335858
     19          1           0        3.076837   -3.146237   -0.738243
     20          1           0        5.072776   -0.064980    0.106587
     21          1           0       -0.003943   -0.722151   -1.118325
     22          1           0        0.766431   -2.265744   -0.748442
     23          1           0       -1.079572   -1.707087    0.827357
     24          1           0        0.460372   -1.912054    1.676387
     25          1           0       -0.826741    0.085340    2.512290
     26          1           0        0.767308    0.495497    1.904581
     27          1           0       -0.070537    1.520540    0.049786
     28          1           0       -2.761496   -0.275247    1.669010
     29          1           0       -3.547534    1.299180    1.794457
     30          1           0       -5.064959   -0.388203    0.746829
     31          1           0       -4.692458    0.931102   -0.381179
     32          1           0       -3.028047   -0.316829   -1.825235
     33          1           0        4.373742    2.690867   -1.264723
     34          1           0        2.781417    3.186870   -0.659517
     35          1           0        4.121893    2.902378    0.470731
 ---------------------------------------------------------------------

 SCF Done:  E(UB3LYP) =  -1068.57036371     A.U. after   33 cycles
 SCF Done:  E(UB3LYP) =  -1068.57036371     a.u. after    1 cycles

 The electronic state is 2-A.
 Alpha  occ. eigenvalues --  -88.75484 -18.99659 -14.29084 -14.23842 -14.23316
 Alpha  occ. eigenvalues --  -10.18261 -10.12357 -10.12125 -10.11951 -10.11722
 Alpha  occ. eigenvalues --  -10.10678 -10.09660 -10.08516 -10.08395 -10.08249
 Alpha  occ. eigenvalues --  -10.06704  -7.84178  -5.80541  -5.80205  -5.79573
 Alpha  occ. eigenvalues --   -0.95508  -0.94686  -0.83174  -0.76469  -0.72255
 Alpha  occ. eigenvalues --   -0.71355  -0.68188  -0.64167  -0.63433  -0.61505
 Alpha  occ. eigenvalues --   -0.59085  -0.54997  -0.52747  -0.49680  -0.47078
 Alpha  occ. eigenvalues --   -0.44757  -0.42140  -0.41608  -0.39731  -0.38377
 Alpha  occ. eigenvalues --   -0.38078  -0.36971  -0.35342  -0.34712  -0.33821
 Alpha  occ. eigenvalues --   -0.33551  -0.33118  -0.32164  -0.31663  -0.30947
 Alpha  occ. eigenvalues --   -0.30484  -0.29990  -0.28699  -0.28612  -0.27943
 Alpha  occ. eigenvalues --   -0.26766  -0.26655  -0.26465  -0.24141  -0.20797
 Alpha  occ. eigenvalues --   -0.17104  -0.16331  -0.15683  -0.15219  -0.15121
 Alpha  occ. eigenvalues --    0.03856
 Alpha virt. eigenvalues --    0.05538   0.06492   0.07214   0.07504   0.08077
 Alpha virt. eigenvalues --    0.08663   0.08914   0.09349   0.09749   0.10115
 Alpha virt. eigenvalues --    0.10390   0.10517   0.10944   0.11535   0.12027

  Beta  occ. eigenvalues --  -88.75480 -18.99656 -14.29084 -14.23841 -14.23312
  Beta  occ. eigenvalues --  -10.18262 -10.12345 -10.12122 -10.11937 -10.11704
  Beta  occ. eigenvalues --  -10.10677 -10.09638 -10.08506 -10.08368 -10.08184
  Beta  occ. eigenvalues --  -10.06690  -7.84174  -5.80535  -5.80202  -5.79568
  Beta  occ. eigenvalues --   -0.95504  -0.94680  -0.83166  -0.76457  -0.72231
  Beta  occ. eigenvalues --   -0.71328  -0.68158  -0.64143  -0.63404  -0.61426
  Beta  occ. eigenvalues --   -0.59056  -0.54967  -0.52701  -0.49656  -0.47049
  Beta  occ. eigenvalues --   -0.44725  -0.42106  -0.41573  -0.39694  -0.38343
  Beta  occ. eigenvalues --   -0.38057  -0.36937  -0.35322  -0.34690  -0.33779
  Beta  occ. eigenvalues --   -0.33521  -0.33077  -0.32147  -0.31631  -0.30913
  Beta  occ. eigenvalues --   -0.30443  -0.29959  -0.28674  -0.28585  -0.27912
  Beta  occ. eigenvalues --   -0.26741  -0.26623  -0.26439  -0.24118  -0.20787
  Beta  occ. eigenvalues --   -0.17090  -0.16317  -0.15665  -0.15197  -0.15106
  Beta virt. eigenvalues --    0.06002   0.06297   0.06992   0.07761   0.07966
  Beta virt. eigenvalues --    0.08486   0.09073   0.09250   0.09517   0.09846
  Beta virt. eigenvalues --    0.10434   0.10649   0.10718   0.11187   0.11850

 Mulliken charges and spin densities:
               1          2
     1  C    3.252736  -3.795678
     2  C   -2.076353   2.180911
     3  C   -0.340917   0.131071
     4  C    0.588879  -0.627449
     5  N   -0.097639   0.075180
     6  N    0.238782   0.033542
     7  C   -0.900269   0.334036
     8  C    0.759164  -0.732868
     9  C   -0.015900  -0.425866
    10  N   -0.070670  -0.009053
    11  C   -0.240044  -0.318390
    12  O   -0.301397   0.008232
    13  C    0.290091   0.161311
    14  C   -0.337846  -0.500376
    15  S    0.164132  -0.143005
    16  C   -0.040269  -0.714887
    17  H   -0.304753   0.470746
    18  H   -0.522336   0.691133
    19  H   -0.343303   0.527872
    20  H   -0.517506   0.692888
    21  H    0.172895   0.052040
    22  H   -0.157542   0.333872
    23  H   -0.016453   0.121373
    24  H   -0.424511   0.635647
    25  H   -0.593809   0.812136
    26  H    0.199168  -0.002228
    27  H    0.472316  -0.060218
    28  H    0.008126   0.101698
    29  H   -0.088586   0.275602
    30  H   -0.206742   0.437749
    31  H    0.222540  -0.004805
    32  H    0.017104   0.031256
    33  H    0.040968   0.099798
    34  H    0.101032   0.036918
    35  H    0.068910   0.089810
 Sum of Mulliken charges =  -1.00000   1.00000

 Dipole moment (field-independent basis, Debye):
    X=             -2.4050    Y=              4.5457    Z=             -2.3177  Tot=              5.6408
 Quadrupole moment (field-independent basis, Debye-Ang):
   XX=           -190.8860   YY=           -160.4341   ZZ=           -145.3331
   XY=             17.0582   XZ=             -2.8703   YZ=              8.1710

 Summary of Natural Population Analysis:

                                       Natural Population
                Natural  -----------------------------------------------
    Atom  No    Charge         Core      Valence    Rydberg      Total
 -----------------------------------------------------------------------
      C    1   -0.30465      0.99963     2.29929    0.00573     3.30465
      C    2    0.09990      0.99953     1.88846    0.01210     2.90010
      C    3   -0.16362      0.99945     2.15539    0.00878     3.16362
      C    4    0.07739      0.99960     1.90862    0.01439     2.92261
      N    5   -0.18103      0.99969     2.66988    0.01147     3.68103
      N    6   -0.11617      0.99961     2.60299    0.01357     3.61617
      C    7   -0.08559      0.99960     2.07471    0.01128     3.08559
      C    8   -0.20260      0.99961     2.19418    0.00881     3.20260
      C    9   -0.09410      0.99961     2.08247    0.01202     3.09410
      N   10   -0.32346      0.99966     2.81435    0.00945     3.82346
      C   11    0.34350      0.99967     1.63307    0.02377     2.65650
      O   12   -0.33463      0.99988     3.32925    0.00550     4.33463
      C   13   -0.24211      0.99957     2.23286    0.00967     3.24211
      C   14   -0.24148      0.99959     2.23068    0.01121     3.24148
      S   15   -0.03471      4.99966     3.01990    0.01514     8.03471
      C   16   -0.29719      0.99963     2.29322    0.00434     3.29719
      H   17    0.11217      0.00000     0.38511    0.00272     0.38783
      H   18    0.11267      0.00000     0.38559    0.00175     0.38733
      H   19    0.10862      0.00000     0.38974    0.00164     0.39138
      H   20    0.10867      0.00000     0.39047    0.00086     0.39133
      H   21    0.10639      0.00000     0.39191    0.00170     0.39361
      H   22    0.10682      0.00000     0.39204    0.00114     0.39318
      H   23    0.10545      0.00000     0.39303    0.00152     0.39455
      H   24    0.10417      0.00000     0.39365    0.00218     0.39583
      H   25    0.10178      0.00000     0.39677    0.00145     0.39822
      H   26    0.10512      0.00000     0.39344    0.00144     0.39488
      H   27    0.21045      0.00000     0.28676    0.00280     0.28955
      H   28    0.10783      0.00000     0.39039    0.00178     0.39217
      H   29    0.11294      0.00000     0.38579    0.00127     0.38706
      H   30    0.10520      0.00000     0.39361    0.00118     0.39480
      H   31    0.11022      0.00000     0.38857    0.00121     0.38978
      H   32    0.06845      0.00000     0.42860    0.00295     0.43155
      H   33    0.10250      0.00000     0.39653    0.00097     0.39750
      H   34    0.10800      0.00000     0.39111    0.00089     0.39200
      H   35    0.10313      0.00000     0.39587    0.00100     0.39687
 =======================================================================
   * Total *    0.00000     19.99400    44.79830    0.20770    65.00000

 Normal termination of Gaussian 16 at Fri Dec 11 00:14:42 2020.
