 Gaussian 16, Revision A.03,

 -----------------------------------------------------------
 # opt freq B3LYP/6-31G(d) empiricaldispersion=gd3bj scf=xqc
 -----------------------------------------------------------

 -------------------------------
 CID_64367944_JID_10540_neutraal
 -------------------------------
 Symbolic Z-matrix:
 Charge =  0 Multiplicity = 1

 SCF Done:  E(RB3LYP) =  -1269.09459116     A.U. after   15 cycles
 SCF Done:  E(RB3LYP) =  -1269.09671105     A.U. after   14 cycles
 SCF Done:  E(RB3LYP) =  -1269.09674450     A.U. after   14 cycles
 SCF Done:  E(RB3LYP) =  -1269.09838252     A.U. after   13 cycles
 SCF Done:  E(RB3LYP) =  -1269.09848772     A.U. after   13 cycles
 SCF Done:  E(RB3LYP) =  -1269.09878927     A.U. after   13 cycles
 SCF Done:  E(RB3LYP) =  -1269.09894292     A.U. after   12 cycles
 SCF Done:  E(RB3LYP) =  -1269.09905864     A.U. after   13 cycles
 SCF Done:  E(RB3LYP) =  -1269.09915529     A.U. after   13 cycles
 SCF Done:  E(RB3LYP) =  -1269.09927829     A.U. after   13 cycles
 SCF Done:  E(RB3LYP) =  -1269.09998002     A.U. after   13 cycles
 SCF Done:  E(RB3LYP) =  -1269.10073322     A.U. after   12 cycles
 SCF Done:  E(RB3LYP) =  -1269.10077297     A.U. after   11 cycles
 SCF Done:  E(RB3LYP) =  -1269.10077801     A.U. after   11 cycles
 SCF Done:  E(RB3LYP) =  -1269.10077963     A.U. after    8 cycles
 SCF Done:  E(RB3LYP) =  -1269.10077982     A.U. after    8 cycles
 Optimization completed.
    -- Stationary point found.
 Normal termination of Gaussian 16 at Mon Dec 14 13:56:25 2020.

 --------------------------------------------------------------------
 #N Geom=AllCheck Guess=TCheck SCRF=Check GenChk RB3LYP/6-31G(d) Freq
 --------------------------------------------------------------------

 Structure from the checkpoint file:  "JID_10540.chk"
 -------------------------------
 CID_64367944_JID_10540_neutraal
 -------------------------------
 Charge =  0 Multiplicity = 1

 SCF Done:  E(RB3LYP) =  -1269.10077982     A.U. after    1 cycles

  Exact polarizability: 276.764   9.788 173.664  21.728 -13.598 111.647
 Approx polarizability: 388.137  -0.870 336.392  44.909 -51.495 199.687

                      1                      2                      3
                      A                      A                      A
 Frequencies --     24.2591                36.8543                53.8757
 Red. masses --      6.7117                 6.8826                 7.0853
 Frc consts  --      0.0023                 0.0055                 0.0121
 IR Inten    --      0.0586                 3.7561                 0.7823

                      4                      5                      6
                      A                      A                      A
 Frequencies --     86.0739               106.1391               119.8926
 Red. masses --      6.0187                 6.0757                 4.5927
 Frc consts  --      0.0263                 0.0403                 0.0389
 IR Inten    --      1.2227                 1.4373                 1.0062

                      7                      8                      9
                      A                      A                      A
 Frequencies --    140.5260               143.8566               181.9882
 Red. masses --      1.1506                 4.9848                 5.1609
 Frc consts  --      0.0134                 0.0608                 0.1007
 IR Inten    --      0.2045                 1.6382                 4.5263

                     10                     11                     12
                      A                      A                      A
 Frequencies --    203.5197               231.1692               251.0343
 Red. masses --      8.9321                 5.5004                 3.8171
 Frc consts  --      0.2180                 0.1732                 0.1417
 IR Inten    --      1.1029                 1.3468                 1.4080

                     13                     14                     15
                      A                      A                      A
 Frequencies --    253.6889               289.4699               307.5302
 Red. masses --      4.3447                 6.2507                 4.8872
 Frc consts  --      0.1647                 0.3086                 0.2723
 IR Inten    --      0.7774                 1.6754                 3.7006

                     16                     17                     18
                      A                      A                      A
 Frequencies --    356.1816               416.9689               428.0815
 Red. masses --      8.8025                 6.7358                 4.3719
 Frc consts  --      0.6580                 0.6900                 0.4720
 IR Inten    --      6.4486                 1.2762                 5.2344

                     19                     20                     21
                      A                      A                      A
 Frequencies --    462.7777               503.2940               519.7603
 Red. masses --      9.6852                 5.0941                 5.0961
 Frc consts  --      1.2221                 0.7603                 0.8111
 IR Inten    --      2.9931                 5.1309                 1.8011

                     22                     23                     24
                      A                      A                      A
 Frequencies --    545.7144               547.9981               601.2339
 Red. masses --      4.6629                 4.4961                 6.3189
 Frc consts  --      0.8182                 0.7955                 1.3458
 IR Inten    --      4.3054                 0.8087                 4.5673

                     25                     26                     27
                      A                      A                      A
 Frequencies --    606.7998               614.3697               638.6741
 Red. masses --      1.9503                 2.9075                 5.1516
 Frc consts  --      0.4231                 0.6466                 1.2381
 IR Inten    --     47.7042                10.5195                36.1043

                     28                     29                     30
                      A                      A                      A
 Frequencies --    662.0974               681.4855               700.0067
 Red. masses --      6.8202                 7.7028                 5.0627
 Frc consts  --      1.7615                 2.1077                 1.4616
 IR Inten    --      5.3510                 0.3104                30.7832

                     31                     32                     33
                      A                      A                      A
 Frequencies --    720.8789               734.3842               761.7533
 Red. masses --      3.9422                 5.7390                 9.5484
 Frc consts  --      1.2070                 1.8236                 3.2644
 IR Inten    --     35.7953                12.3355                 1.4039

                     34                     35                     36
                      A                      A                      A
 Frequencies --    765.9563               771.4441               799.5319
 Red. masses --      1.7025                 1.3283                 4.3749
 Frc consts  --      0.5885                 0.4658                 1.6477
 IR Inten    --     70.0849                23.0733                 8.1562

                     37                     38                     39
                      A                      A                      A
 Frequencies --    804.3703               889.0427               901.1438
 Red. masses --      2.7679                 7.1717                 1.3969
 Frc consts  --      1.0551                 3.3398                 0.6683
 IR Inten    --      5.7755                38.6513                 0.1499

                     40                     41                     42
                      A                      A                      A
 Frequencies --    930.3071               961.4888               972.8463
 Red. masses --      1.2867                 6.5132                 1.3609
 Frc consts  --      0.6561                 3.5476                 0.7589
 IR Inten    --      1.2744                40.9409                 1.5820

                     43                     44                     45
                      A                      A                      A
 Frequencies --   1000.7456              1023.9118              1067.5957
 Red. masses --      1.2925                 1.8166                 5.8852
 Frc consts  --      0.7626                 1.1221                 3.9521
 IR Inten    --      0.1078                10.1253                11.5898

                     46                     47                     48
                      A                      A                      A
 Frequencies --   1075.1281              1080.0286              1096.4304
 Red. masses --      3.3734                 1.4570                 3.2046
 Frc consts  --      2.2974                 1.0014                 2.2698
 IR Inten    --     11.9936                 1.6491                 8.2068

                     49                     50                     51
                      A                      A                      A
 Frequencies --   1109.6591              1143.2225              1154.8528
 Red. masses --      5.3691                 2.4151                 2.0936
 Frc consts  --      3.8952                 1.8597                 1.6451
 IR Inten    --     25.1164                85.2037                 5.9059

                     52                     53                     54
                      A                      A                      A
 Frequencies --   1167.3655              1200.2491              1226.9357
 Red. masses --      6.0747                 1.0928                 1.7289
 Frc consts  --      4.8774                 0.9275                 1.5334
 IR Inten    --     20.5482                 0.1939               147.5545

                     55                     56                     57
                      A                      A                      A
 Frequencies --   1245.3537              1300.1850              1319.0317
 Red. masses --      1.6041                 1.4695                 3.1164
 Frc consts  --      1.4658                 1.4636                 3.1946
 IR Inten    --      0.7316                 8.1638                58.6857

                     58                     59                     60
                      A                      A                      A
 Frequencies --   1345.8014              1354.7337              1399.8824
 Red. masses --      8.3544                 8.4904                 2.6358
 Frc consts  --      8.9151                 9.1809                 3.0433
 IR Inten    --      1.8957                26.5561               100.0507

                     61                     62                     63
                      A                      A                      A
 Frequencies --   1420.2468              1436.4618              1474.4274
 Red. masses --      2.7105                 1.3238                 2.8535
 Frc consts  --      3.2213                 1.6094                 3.6549
 IR Inten    --     59.5255                 4.4549                11.3050

                     64                     65                     66
                      A                      A                      A
 Frequencies --   1484.4302              1505.6171              1509.3862
 Red. masses --      2.1992                 2.5629                 1.0424
 Frc consts  --      2.8552                 3.4230                 1.3993
 IR Inten    --     23.8175                99.6898                10.4145

                     67                     68                     69
                      A                      A                      A
 Frequencies --   1511.5973              1521.7060              1526.3222
 Red. masses --      5.5098                 2.3584                 2.9340
 Frc consts  --      7.4175                 3.2175                 4.0271
 IR Inten    --    126.2246                 3.7432                52.4595

                     70                     71                     72
                      A                      A                      A
 Frequencies --   1547.5873              1624.9787              1650.8733
 Red. masses --      3.6473                 5.7460                 5.6096
 Frc consts  --      5.1468                 8.9395                 9.0076
 IR Inten    --     19.4674                 0.8464                16.5869

                     73                     74                     75
                      A                      A                      A
 Frequencies --   1654.5707              1818.6585              3047.0190
 Red. masses --      6.0744                 9.8730                 1.0398
 Frc consts  --      9.7977                19.2399                 5.6878
 IR Inten    --      8.9538               252.1569                21.7487

                     76                     77                     78
                      A                      A                      A
 Frequencies --   3097.4834              3165.9760              3195.7209
 Red. masses --      1.1018                 1.0978                 1.0863
 Frc consts  --      6.2285                 6.4831                 6.5362
 IR Inten    --     12.9126                 1.6165                 2.7112

                     79                     80                     81
                      A                      A                      A
 Frequencies --   3208.9011              3218.2861              3224.4525
 Red. masses --      1.0907                 1.0954                 1.0903
 Frc consts  --      6.6172                 6.6844                 6.6788
 IR Inten    --     11.4325                13.1723                11.2753

                     82                     83                     84
                      A                      A                      A
 Frequencies --   3231.1844              3261.8493              3689.2041
 Red. masses --      1.0937                 1.0965                 1.0639
 Frc consts  --      6.7278                 6.8733                 8.5310
 IR Inten    --      6.7152                 2.7664                54.1453

 - Thermochemistry -
 -------------------
 Temperature   298.150 Kelvin.  Pressure   1.00000 Atm.
 Atom     1 has atomic number  6 and mass  12.00000

 Molecular mass:   286.05245 amu.
 Principal axes and moments of inertia in atomic units:
                           1         2         3
     Eigenvalues --  2463.412649178.14240**********
           X            0.99990   0.01405  -0.00017
           Y           -0.01405   0.99989   0.00462
           Z            0.00023  -0.00462   0.99999
 This molecule is an asymmetric top.
 Rotational symmetry number  1.
 Warning -- assumption of classical behavior for rotation
           may cause significant error
 Rotational temperatures (Kelvin)      0.03516     0.00944     0.00850
 Rotational constants (GHZ):           0.73262     0.19663     0.17721
 Zero-point vibrational energy     574605.4 (Joules/Mol)
                                  137.33399 (Kcal/Mol)
 Warning -- explicit consideration of  26 degrees of freedom as
           vibrations may cause significant error
 Vibrational temperatures:     34.90    53.03    77.52   123.84   152.71
          (Kelvin)            172.50   202.19   206.98   261.84   292.82
                              332.60   361.18   365.00   416.48   442.47
                              512.47   599.93   615.91   665.83   724.13
                              747.82   785.16   788.45   865.04   873.05
                              883.94   918.91   952.61   980.51  1007.15
                             1037.18  1056.62  1095.99  1102.04  1109.94
                             1150.35  1157.31  1279.13  1296.54  1338.50
                             1383.37  1399.71  1439.85  1473.18  1536.03
                             1546.87  1553.92  1577.52  1596.55  1644.84
                             1661.58  1679.58  1726.89  1765.29  1791.79
                             1870.68  1897.79  1936.31  1949.16  2014.12
                             2043.42  2066.75  2121.37  2135.76  2166.25
                             2171.67  2174.85  2189.40  2196.04  2226.63
                             2337.98  2375.24  2380.56  2616.64  4383.98
                             4456.59  4555.13  4597.93  4616.89  4630.40
                             4639.27  4648.95  4693.07  5307.94

 Zero-point correction=                           0.218856 (Hartree/Particle)
 Thermal correction to Energy=                    0.235484
 Thermal correction to Enthalpy=                  0.236429
 Thermal correction to Gibbs Free Energy=         0.173082
 Sum of electronic and zero-point Energies=          -1268.881924
 Sum of electronic and thermal Energies=             -1268.865296
 Sum of electronic and thermal Enthalpies=           -1268.864351
 Sum of electronic and thermal Free Energies=        -1268.927698

                     E (Thermal)             CV                S
                      KCal/Mol        Cal/Mol-Kelvin    Cal/Mol-Kelvin
 Total                  147.769             63.322            133.325
 Electronic               0.000              0.000              0.000
 Translational            0.889              2.981             42.851
 Rotational               0.889              2.981             33.798
 Vibrational            145.991             57.361             56.676
 Vibration     1          0.593              1.985              6.251
 Vibration     2          0.594              1.982              5.421
 Vibration     3          0.596              1.976              4.670
 Vibration     4          0.601              1.959              3.747
 Vibration     5          0.605              1.944              3.338
 Vibration     6          0.609              1.933              3.102
 Vibration     7          0.615              1.913              2.797
 Vibration     8          0.616              1.909              2.752
 Vibration     9          0.630              1.864              2.308
 Vibration    10          0.639              1.835              2.101
 Vibration    11          0.653              1.793              1.870
 Vibration    12          0.663              1.761              1.723
 Vibration    13          0.665              1.757              1.705
 Vibration    14          0.686              1.693              1.477
 Vibration    15          0.697              1.659              1.376
 Vibration    16          0.732              1.563              1.139
 Vibration    17          0.780              1.433              0.902
 Vibration    18          0.790              1.409              0.865
 Vibration    19          0.820              1.333              0.758
 Vibration    20          0.859              1.243              0.650
 Vibration    21          0.875              1.206              0.611
 Vibration    22          0.901              1.149              0.553
 Vibration    23          0.903              1.144              0.548
 Vibration    24          0.959              1.029              0.448
 Vibration    25          0.966              1.017              0.438
 Vibration    26          0.974              1.001              0.426

                           ! Non-Optimized Parameters !
 Normal termination of Gaussian 16 at Mon Dec 14 14:10:11 2020.

 ----------------------------------------------------------------------
 # B3LYP/6-311++G(d,p) empiricaldispersion=gd3bj scf=xqc pop=npa geom=c
 heck
 ----------------------------------------------------------------------

 ---------------------------------------
 CID_64367944_JID_10540_Energie_neutraal
 ---------------------------------------
 Structure from the checkpoint file:  "JID_10540.chk"
 Charge =  0 Multiplicity = 1

 SCF Done:  E(RB3LYP) =  -1269.36180279     A.U. after   18 cycles
 Normal termination of Gaussian 16 at Mon Dec 14 14:15:45 2020.

 ----------------------------------------------------------------------
 # B3LYP/6-311++G(d,p) empiricaldispersion=gd3bj scf=xqc pop=npa geom=c
 heck
 ----------------------------------------------------------------------

 -------------------------------------
 CID_64367944_JID_10540_Energie_kation
 -------------------------------------
 Structure from the checkpoint file:  "JID_10540.chk"
 Charge =  1 Multiplicity = 2

 SCF Done:  E(UB3LYP) =  -1269.06778995     A.U. after   27 cycles
 Normal termination of Gaussian 16 at Mon Dec 14 14:27:47 2020.
 Gaussian 16:  ES64L-G16RevA.03 25-Dec-2016

 ----------------------------------------------------------------------
 # B3LYP/6-311++G(d,p) empiricaldispersion=gd3bj scf=xqc pop=npa geom=c
 heck
 ----------------------------------------------------------------------

 ------------------------------------
 CID_64367944_JID_10540_Energie_anion
 ------------------------------------
 Structure from the checkpoint file:  "JID_10540.chk"
 Charge = -1 Multiplicity = 2

                         Standard orientation:
 ---------------------------------------------------------------------
 Center     Atomic      Atomic             Coordinates (Angstroms)
 Number     Number       Type             X           Y           Z
 ---------------------------------------------------------------------
      1          6           0        5.448360    0.389246   -0.445347
      2          6           0        4.150185   -0.225140   -0.061115
      3          7           0        3.979819   -1.312928    0.676361
      4          7           0        2.643332   -1.561962    0.808834
      5          6           0        2.007371   -0.611761    0.144022
      6          7           0        2.922676    0.265959   -0.429630
      7          6           0        2.505723    1.351468   -1.177221
      8          6           0        1.162901    1.516942   -1.325601
      9          7           0        0.222301    0.679899   -0.781848
     10          6           0        0.618169   -0.345677   -0.073803
     11         16           0       -0.512692   -1.472243    0.685508
     12          6           0       -2.099126   -0.889299    0.091849
     13          6           0       -2.874087   -1.861494   -0.551228
     14          6           0       -4.147224   -1.561470   -1.032710
     15          6           0       -4.646628   -0.266501   -0.910294
     16          6           0       -3.874484    0.710421   -0.289666
     17          6           0       -2.612991    0.415116    0.242043
     18          6           0       -1.932056    1.561431    0.913950
     19          8           0       -2.150451    2.725455    0.645717
     20          8           0       -1.101702    1.202327    1.917655
     21          1           0        5.575616    0.420450   -1.534492
     22          1           0        6.253594   -0.211765   -0.018949
     23          1           0        5.540242    1.414484   -0.065927
     24          1           0        3.264081    2.000691   -1.593638
     25          1           0        0.775135    2.353564   -1.896626
     26          1           0       -2.463298   -2.857091   -0.683393
     27          1           0       -4.733372   -2.334883   -1.520211
     28          1           0       -5.628430   -0.015219   -1.299724
     29          1           0       -4.235161    1.728629   -0.195602
     30          1           0       -0.741686    2.038308    2.268170
 ---------------------------------------------------------------------

 SCF Done:  E(UB3LYP) =  -1269.38872228     A.U. after   29 cycles

 The electronic state is 2-A.
 Alpha  occ. eigenvalues --  -88.73046 -19.04221 -18.97758 -14.27034 -14.20578
 Alpha  occ. eigenvalues --  -14.19331 -14.17247 -10.17139 -10.12290 -10.11252
 Alpha  occ. eigenvalues --  -10.09898 -10.09339 -10.09273 -10.08885 -10.08779
 Alpha  occ. eigenvalues --  -10.06606 -10.06528 -10.06258 -10.06241 -10.06103
 Alpha  occ. eigenvalues --   -7.81633  -5.78022  -5.77600  -5.77064  -0.98278
 Alpha  occ. eigenvalues --   -0.95030  -0.88929  -0.83999  -0.79781  -0.75110
 Alpha  occ. eigenvalues --   -0.71184  -0.68217  -0.65183  -0.64793  -0.62280
 Alpha  occ. eigenvalues --   -0.60006  -0.54672  -0.53547  -0.52682  -0.49456
 Alpha  occ. eigenvalues --   -0.47647  -0.46457  -0.42164  -0.41171  -0.39296
 Alpha  occ. eigenvalues --   -0.37397  -0.36887  -0.36428  -0.35745  -0.35228
 Alpha  occ. eigenvalues --   -0.33299  -0.33034  -0.32583  -0.32140  -0.31842
 Alpha  occ. eigenvalues --   -0.30947  -0.29448  -0.28240  -0.27116  -0.25730
 Alpha  occ. eigenvalues --   -0.24656  -0.24586  -0.23062  -0.21453  -0.20171
 Alpha  occ. eigenvalues --   -0.19981  -0.16799  -0.16198  -0.15330  -0.14792
 Alpha  occ. eigenvalues --   -0.13984  -0.13321  -0.12321  -0.09523   0.02480
 Alpha virt. eigenvalues --    0.06432   0.06682   0.07813   0.09127   0.09410
 Alpha virt. eigenvalues --    0.09581   0.09742   0.09949   0.11032   0.11388
 Alpha virt. eigenvalues --    0.11625   0.12512   0.13146   0.13507   0.14317

  Beta  occ. eigenvalues --  -88.73058 -19.04201 -18.97590 -14.26863 -14.20473
  Beta  occ. eigenvalues --  -14.19154 -14.17024 -10.17033 -10.12336 -10.11321
  Beta  occ. eigenvalues --  -10.09468 -10.09337 -10.09068 -10.08925 -10.08649
  Beta  occ. eigenvalues --  -10.06568 -10.06470 -10.06266 -10.06130 -10.06038
  Beta  occ. eigenvalues --   -7.81643  -5.78041  -5.77620  -5.77075  -0.98134
  Beta  occ. eigenvalues --   -0.94799  -0.88699  -0.83635  -0.79312  -0.74909
  Beta  occ. eigenvalues --   -0.71051  -0.67946  -0.64860  -0.64577  -0.62130
  Beta  occ. eigenvalues --   -0.59756  -0.54277  -0.53305  -0.52577  -0.49283
  Beta  occ. eigenvalues --   -0.47542  -0.46278  -0.41976  -0.41028  -0.39074
  Beta  occ. eigenvalues --   -0.37011  -0.36702  -0.36295  -0.35604  -0.35021
  Beta  occ. eigenvalues --   -0.33212  -0.32797  -0.32337  -0.32068  -0.31465
  Beta  occ. eigenvalues --   -0.30818  -0.29341  -0.28119  -0.26549  -0.24967
  Beta  occ. eigenvalues --   -0.24428  -0.24316  -0.21861  -0.21311  -0.19962
  Beta  occ. eigenvalues --   -0.19412  -0.16096  -0.15929  -0.14732  -0.14212
  Beta  occ. eigenvalues --   -0.13777  -0.12913  -0.11733  -0.08716
  Beta virt. eigenvalues --    0.06650   0.07239   0.07786   0.08404   0.09105
  Beta virt. eigenvalues --    0.09559   0.09613   0.09792   0.10209   0.11065
  Beta virt. eigenvalues --    0.11409   0.11647   0.12506   0.13117   0.13497

 Mulliken charges and spin densities:
               1          2
     1  C   -0.524314  -0.004874
     2  C    0.377458  -0.002480
     3  N   -0.074529   0.046962
     4  N   -0.144202   0.080321
     5  C   -0.671348  -0.063830
     6  N    0.062263   0.028532
     7  C   -0.199671   0.199935
     8  C    0.041967  -0.053206
     9  N    0.129973   0.107483
    10  C   -0.185897   0.263434
    11  S   -0.824644  -0.016488
    12  C    0.388589   0.176340
    13  C   -0.197759  -0.044087
    14  C   -0.259434   0.090940
    15  C   -0.547893   0.052278
    16  C   -0.066514   0.000297
    17  C    0.632777   0.033680
    18  C   -0.233667   0.061326
    19  O   -0.308953   0.057775
    20  O   -0.041677   0.000952
    21  H    0.148684  -0.002027
    22  H    0.174896  -0.000350
    23  H    0.149301  -0.000553
    24  H    0.123552  -0.014270
    25  H    0.180216   0.004828
    26  H    0.168927   0.007372
    27  H    0.129620  -0.007332
    28  H    0.125025  -0.004503
    29  H    0.183136   0.001736
    30  H    0.264120  -0.000192
 Sum of Mulliken charges =  -1.00000   1.00000

 Dipole moment (field-independent basis, Debye):
    X=              1.0007    Y=              2.4051    Z=             -2.1639  Tot=              3.3865
 Quadrupole moment (field-independent basis, Debye-Ang):
   XX=           -159.1614   YY=           -146.0846   ZZ=           -132.6820
   XY=             21.5144   XZ=             -7.0537   YZ=              6.3684

 Summary of Natural Population Analysis:

                                       Natural Population
                Natural  -----------------------------------------------
    Atom  No    Charge         Core      Valence    Rydberg      Total
 -----------------------------------------------------------------------
      C    1   -0.30532      0.99964     2.30168    0.00399     3.30532
      C    2    0.15418      0.99964     1.83183    0.01435     2.84582
      N    3   -0.14511      0.99969     2.63121    0.01422     3.64511
      N    4   -0.13550      0.99969     2.62231    0.01351     3.63550
      C    5    0.13506      0.99954     1.84687    0.01852     2.86494
      N    6   -0.17256      0.99957     2.66224    0.01074     3.67256
      C    7    0.00295      0.99957     1.98720    0.01027     2.99705
      C    8   -0.00848      0.99958     1.99578    0.01312     3.00848
      N    9   -0.22834      0.99964     2.71320    0.01551     3.72834
      C   10    0.11337      0.99945     1.87037    0.01682     2.88663
      S   11    0.15993      4.99948     2.82098    0.01960     7.84007
      C   12   -0.04472      0.99937     2.03343    0.01192     3.04472
      C   13   -0.11426      0.99951     2.10417    0.01058     3.11426
      C   14   -0.08157      0.99957     2.07265    0.00934     3.08157
      C   15   -0.10126      0.99957     2.09251    0.00918     3.10126
      C   16   -0.08294      0.99954     2.07500    0.00839     3.08294
      C   17   -0.04904      0.99937     2.03691    0.01276     3.04904
      C   18    0.41915      0.99966     1.55631    0.02488     2.58085
      O   19   -0.30699      0.99987     3.30033    0.00678     4.30699
      O   20   -0.34039      0.99987     3.33313    0.00738     4.34039
      H   21    0.10073      0.00000     0.39805    0.00122     0.39927
      H   22    0.11316      0.00000     0.38581    0.00103     0.38684
      H   23    0.10083      0.00000     0.39797    0.00121     0.39917
      H   24    0.09500      0.00000     0.40400    0.00099     0.40500
      H   25    0.09237      0.00000     0.40657    0.00106     0.40763
      H   26    0.10216      0.00000     0.39665    0.00119     0.39784
      H   27    0.09260      0.00000     0.40637    0.00103     0.40740
      H   28    0.09334      0.00000     0.40565    0.00101     0.40666
      H   29    0.10735      0.00000     0.39158    0.00107     0.39265
      H   30    0.23429      0.00000     0.26298    0.00272     0.26571
 =======================================================================
   * Total *   -0.00000     23.99183    49.74376    0.26441    74.00000

 Normal termination of Gaussian 16 at Mon Dec 14 14:40:41 2020.
