 Gaussian 16, Revision A.03,

 -----------------------------------------------------------
 # opt freq B3LYP/6-31G(d) empiricaldispersion=gd3bj scf=xqc
 -----------------------------------------------------------

 -------------------------------
 CID_150800434_JID_2659_neutraal
 -------------------------------
 Symbolic Z-matrix:
 Charge =  0 Multiplicity = 1

 SCF Done:  E(RB3LYP) =  -553.283683871     A.U. after   15 cycles
 SCF Done:  E(RB3LYP) =  -553.286420106     A.U. after   14 cycles
 SCF Done:  E(RB3LYP) =  -553.288365690     A.U. after   14 cycles
 SCF Done:  E(RB3LYP) =  -553.288692471     A.U. after   12 cycles
 SCF Done:  E(RB3LYP) =  -553.288746637     A.U. after   13 cycles
 SCF Done:  E(RB3LYP) =  -553.288910989     A.U. after   13 cycles
 SCF Done:  E(RB3LYP) =  -553.289082186     A.U. after   15 cycles
 SCF Done:  E(RB3LYP) =  -553.288865959     A.U. after   16 cycles
 SCF Done:  E(RB3LYP) =  -553.289179335     A.U. after   16 cycles
 SCF Done:  E(RB3LYP) =  -553.289103523     A.U. after   13 cycles
 SCF Done:  E(RB3LYP) =  -553.289201022     A.U. after   13 cycles
 SCF Done:  E(RB3LYP) =  -553.289225946     A.U. after   13 cycles
 SCF Done:  E(RB3LYP) =  -553.289226789     A.U. after   10 cycles
 SCF Done:  E(RB3LYP) =  -553.289226803     A.U. after   11 cycles
 SCF Done:  E(RB3LYP) =  -553.289227308     A.U. after    9 cycles
 Optimization completed.
    -- Stationary point found.
 Normal termination of Gaussian 16 at Wed Dec  9 18:03:13 2020.

 --------------------------------------------------------------------
 #N Geom=AllCheck Guess=TCheck SCRF=Check GenChk RB3LYP/6-31G(d) Freq
 --------------------------------------------------------------------

 Structure from the checkpoint file:  "JID_2659.chk"
 -------------------------------
 CID_150800434_JID_2659_neutraal
 -------------------------------
 Charge =  0 Multiplicity = 1

 SCF Done:  E(RB3LYP) =  -553.289227308     A.U. after    1 cycles

  Exact polarizability: 136.234  -0.745  98.741 -13.312  -0.919  89.636
 Approx polarizability: 194.798  -3.844 131.230 -39.254  -4.282 155.872

                      1                      2                      3
                      A                      A                      A
 Frequencies --     25.7605                43.7722                58.4856
 Red. masses --      6.8341                 2.2426                 5.1176
 Frc consts  --      0.0027                 0.0025                 0.0103
 IR Inten    --      0.1837                 0.0779                 0.0664

                      4                      5                      6
                      A                      A                      A
 Frequencies --    127.3013               159.1311               180.7879
 Red. masses --      2.8272                 4.0458                 3.4368
 Frc consts  --      0.0270                 0.0604                 0.0662
 IR Inten    --      0.3874                 0.6325                 1.1412

                      7                      8                      9
                      A                      A                      A
 Frequencies --    222.5987               254.9059               283.9512
 Red. masses --      2.0777                 1.6648                 3.1493
 Frc consts  --      0.0607                 0.0637                 0.1496
 IR Inten    --      0.1579                 1.3436                 2.3188

                     10                     11                     12
                      A                      A                      A
 Frequencies --    314.6029               320.6384               352.7743
 Red. masses --      2.6575                 3.8068                 2.7255
 Frc consts  --      0.1550                 0.2306                 0.1998
 IR Inten    --      1.4522                 0.2654                 1.1699

                     13                     14                     15
                      A                      A                      A
 Frequencies --    397.3749               460.7440               515.6410
 Red. masses --      2.1590                 2.8843                 3.4420
 Frc consts  --      0.2009                 0.3607                 0.5392
 IR Inten    --      0.4436                 1.1886                 0.8880

                     16                     17                     18
                      A                      A                      A
 Frequencies --    516.2552               543.1371               623.3863
 Red. masses --      8.2742                 3.0042                 2.0767
 Frc consts  --      1.2993                 0.5222                 0.4755
 IR Inten    --      4.5901                 5.1721                 0.5889

                     19                     20                     21
                      A                      A                      A
 Frequencies --    687.6302               772.4099               810.2845
 Red. masses --      8.1638                 1.6968                 1.7335
 Frc consts  --      2.2743                 0.5965                 0.6706
 IR Inten    --      3.4310                 2.3294                 4.4645

                     22                     23                     24
                      A                      A                      A
 Frequencies --    825.6255               857.2795               881.2519
 Red. masses --      1.6145                 2.4559                 2.0453
 Frc consts  --      0.6484                 1.0634                 0.9359
 IR Inten    --      0.2532                 0.0762                 6.3759

                     25                     26                     27
                      A                      A                      A
 Frequencies --    897.2719               930.2604               954.1890
 Red. masses --      4.4642                 1.8599                 2.0673
 Frc consts  --      2.1176                 0.9483                 1.1090
 IR Inten    --     32.9995                 7.5152                 6.9223

                     28                     29                     30
                      A                      A                      A
 Frequencies --    982.3740              1033.0119              1044.0214
 Red. masses --      2.1336                 1.8178                 1.8558
 Frc consts  --      1.2131                 1.1429                 1.1918
 IR Inten    --     12.5003                 3.0897                 1.1083

                     31                     32                     33
                      A                      A                      A
 Frequencies --   1055.0044              1084.4434              1088.0094
 Red. masses --      2.2787                 1.8617                 2.4297
 Frc consts  --      1.4943                 1.2900                 1.6946
 IR Inten    --     35.2396                 7.9152                19.1067

                     34                     35                     36
                      A                      A                      A
 Frequencies --   1107.2995              1112.0632              1181.0452
 Red. masses --      1.5436                 1.4178                 1.6540
 Frc consts  --      1.1151                 1.0330                 1.3593
 IR Inten    --      9.3202                 5.5511                 1.4816

                     37                     38                     39
                      A                      A                      A
 Frequencies --   1186.1871              1214.8102              1241.7345
 Red. masses --      2.6074                 5.8981                 1.6405
 Frc consts  --      2.1615                 5.1283                 1.4903
 IR Inten    --      9.6011                33.3738                 2.2146

                     40                     41                     42
                      A                      A                      A
 Frequencies --   1278.5413              1290.7791              1312.0772
 Red. masses --      1.3157                 1.2809                 1.2445
 Frc consts  --      1.2672                 1.2574                 1.2623
 IR Inten    --      2.6173                 0.9537                 1.7438

                     43                     44                     45
                      A                      A                      A
 Frequencies --   1327.5656              1360.4363              1373.0558
 Red. masses --      1.2656                 1.2942                 1.2698
 Frc consts  --      1.3141                 1.4112                 1.4105
 IR Inten    --      2.2362                 0.1119                 7.7799

                     46                     47                     48
                      A                      A                      A
 Frequencies --   1380.5341              1392.7901              1399.8176
 Red. masses --      1.3797                 1.5150                 1.4513
 Frc consts  --      1.5493                 1.7315                 1.6756
 IR Inten    --      3.6045                 4.7892                 1.6347

                     49                     50                     51
                      A                      A                      A
 Frequencies --   1403.1529              1424.4714              1435.0997
 Red. masses --      1.4205                 1.4130                 1.4285
 Frc consts  --      1.6478                 1.6893                 1.7334
 IR Inten    --      7.6341                 5.7097                 6.4234

                     52                     53                     54
                      A                      A                      A
 Frequencies --   1441.8421              1511.1044              1517.8780
 Red. masses --      1.2346                 1.0818                 1.0895
 Frc consts  --      1.5122                 1.4554                 1.4790
 IR Inten    --      5.4371                 0.6281                 2.6837

                     55                     56                     57
                      A                      A                      A
 Frequencies --   1523.3666              1527.6250              1529.4104
 Red. masses --      1.0783                 1.0451                 1.0789
 Frc consts  --      1.4744                 1.4370                 1.4868
 IR Inten    --      5.2024                 4.4495                 0.9135

                     58                     59                     60
                      A                      A                      A
 Frequencies --   1537.2427              1544.9687              2194.4340
 Red. masses --      1.0823                 1.0782                13.9857
 Frc consts  --      1.5069                 1.5163                39.6808
 IR Inten    --      3.5058                 6.4617               401.0587

                     61                     62                     63
                      A                      A                      A
 Frequencies --   3023.2660              3027.2509              3028.8537
 Red. masses --      1.0817                 1.0679                 1.0700
 Frc consts  --      5.8253                 5.7661                 5.7835
 IR Inten    --      4.9545                 7.7270                29.5821

                     64                     65                     66
                      A                      A                      A
 Frequencies --   3035.9660              3043.0359              3044.8693
 Red. masses --      1.0682                 1.0627                 1.0792
 Frc consts  --      5.8011                 5.7980                 5.8950
 IR Inten    --     34.8823                24.1507                48.4385

                     67                     68                     69
                      A                      A                      A
 Frequencies --   3051.1184              3055.5841              3076.9815
 Red. masses --      1.0430                 1.0632                 1.0940
 Frc consts  --      5.7209                 5.8488                 6.1027
 IR Inten    --     29.5467                22.1178                18.0457

                     70                     71                     72
                      A                      A                      A
 Frequencies --   3081.3735              3081.9642              3088.2698
 Red. masses --      1.0971                 1.0948                 1.1005
 Frc consts  --      6.1371                 6.1270                 6.1842
 IR Inten    --     80.1309                36.2794                46.0295

                     73                     74                     75
                      A                      A                      A
 Frequencies --   3101.7386              3109.5334              3156.8603
 Red. masses --      1.1036                 1.1012                 1.0980
 Frc consts  --      6.2555                 6.2736                 6.4469
 IR Inten    --     31.2115                65.1977                23.4953

 - Thermochemistry -
 -------------------
 Temperature   298.150 Kelvin.  Pressure   1.00000 Atm.
 Atom     1 has atomic number  6 and mass  12.00000

 Molecular mass:   169.12151 amu.
 Principal axes and moments of inertia in atomic units:
                           1         2         3
     Eigenvalues --  1318.999922917.748843727.15779
           X            0.99990   0.01429   0.00095
           Y           -0.01428   0.99989  -0.00466
           Z           -0.00102   0.00465   0.99999
 This molecule is an asymmetric top.
 Rotational symmetry number  1.
 Warning -- assumption of classical behavior for rotation
           may cause significant error
 Rotational temperatures (Kelvin)      0.06567     0.02969     0.02324
 Rotational constants (GHZ):           1.36826     0.61854     0.48421
 Zero-point vibrational energy     616437.6 (Joules/Mol)
                                  147.33212 (Kcal/Mol)
 Warning -- explicit consideration of  17 degrees of freedom as
           vibrations may cause significant error
 Vibrational temperatures:     37.06    62.98    84.15   183.16   228.95
          (Kelvin)            260.11   320.27   366.75   408.54   452.64
                              461.33   507.56   571.73   662.91   741.89
                              742.78   781.45   896.91   989.35  1111.33
                             1165.82  1187.89  1233.43  1267.92  1290.97
                             1338.44  1372.87  1413.42  1486.27  1502.11
                             1517.92  1560.27  1565.40  1593.16  1600.01
                             1699.26  1706.66  1747.84  1786.58  1839.54
                             1857.14  1887.79  1910.07  1957.36  1975.52
                             1986.28  2003.91  2014.03  2018.82  2049.50
                             2064.79  2074.49  2174.14  2183.89  2191.78
                             2197.91  2200.48  2211.75  2222.87  3157.30
                             4349.81  4355.54  4357.84  4368.08  4378.25
                             4380.89  4389.88  4396.30  4427.09  4433.41
                             4434.26  4443.33  4462.71  4473.93  4542.02

 Zero-point correction=                           0.234789 (Hartree/Particle)
 Thermal correction to Energy=                    0.247072
 Thermal correction to Enthalpy=                  0.248016
 Thermal correction to Gibbs Free Energy=         0.195027
 Sum of electronic and zero-point Energies=           -553.054439
 Sum of electronic and thermal Energies=              -553.042155
 Sum of electronic and thermal Enthalpies=            -553.041211
 Sum of electronic and thermal Free Energies=         -553.094200

                     E (Thermal)             CV                S
                      KCal/Mol        Cal/Mol-Kelvin    Cal/Mol-Kelvin
 Total                  155.040             45.703            111.524
 Electronic               0.000              0.000              0.000
 Translational            0.889              2.981             41.284
 Rotational               0.889              2.981             31.040
 Vibrational            153.263             39.742             39.200
 Vibration     1          0.593              1.985              6.132
 Vibration     2          0.595              1.980              5.081
 Vibration     3          0.596              1.974              4.508
 Vibration     4          0.611              1.926              2.986
 Vibration     5          0.621              1.892              2.560
 Vibration     6          0.630              1.866              2.320
 Vibration     7          0.648              1.807              1.938
 Vibration     8          0.665              1.755              1.696
 Vibration     9          0.682              1.703              1.510
 Vibration    10          0.702              1.646              1.338
 Vibration    11          0.706              1.634              1.307
 Vibration    12          0.729              1.570              1.154
 Vibration    13          0.764              1.476              0.972
 Vibration    14          0.819              1.337              0.764
 Vibration    15          0.871              1.215              0.620
 Vibration    16          0.871              1.214              0.619
 Vibration    17          0.898              1.155              0.559

 Optimization completed.
    -- Stationary point found.
 Normal termination of Gaussian 16 at Wed Dec  9 18:10:32 2020.

 ----------------------------------------------------------------------
 # B3LYP/6-311++G(d,p) empiricaldispersion=gd3bj scf=xqc pop=npa geom=c
 heck
 ----------------------------------------------------------------------

 ---------------------------------------
 CID_150800434_JID_2659_Energie_neutraal
 ---------------------------------------
 Structure from the checkpoint file:  "JID_2659.chk"
 Charge =  0 Multiplicity = 1

 SCF Done:  E(RB3LYP) =  -553.442194943     A.U. after   15 cycles
 Normal termination of Gaussian 16 at Wed Dec  9 18:13:57 2020.

 ----------------------------------------------------------------------
 # B3LYP/6-311++G(d,p) empiricaldispersion=gd3bj scf=xqc pop=npa geom=c
 heck
 ----------------------------------------------------------------------

 -------------------------------------
 CID_150800434_JID_2659_Energie_kation
 -------------------------------------
 Structure from the checkpoint file:  "JID_2659.chk"
 Charge =  1 Multiplicity = 2

 SCF Done:  E(UB3LYP) =  -553.109736054     A.U. after   25 cycles
 Normal termination of Gaussian 16 at Wed Dec  9 18:21:36 2020.
 Gaussian 16:  ES64L-G16RevA.03 25-Dec-2016

 ----------------------------------------------------------------------
 # B3LYP/6-311++G(d,p) empiricaldispersion=gd3bj scf=xqc pop=npa geom=c
 heck
 ----------------------------------------------------------------------

 ------------------------------------
 CID_150800434_JID_2659_Energie_anion
 ------------------------------------
 Structure from the checkpoint file:  "JID_2659.chk"
 Charge = -1 Multiplicity = 2

                         Standard orientation:
 ---------------------------------------------------------------------
 Center     Atomic      Atomic             Coordinates (Angstroms)
 Number     Number       Type             X           Y           Z
 ---------------------------------------------------------------------
      1          6           0       -0.161678    2.862823   -0.446005
      2          6           0       -1.174567    1.718228   -0.555015
      3          6           0       -1.164532    0.725728    0.628779
      4          6           0       -2.504269   -0.037722    0.742511
      5          6           0       -2.715735   -1.029161   -0.410211
      6          6           0       -1.560059   -2.035707   -0.484819
      7          6           0       -0.200733   -1.324754   -0.564303
      8          6           0       -0.046852   -0.332417    0.587843
      9          8           0        1.209379    0.374358    0.529363
     10          7           0        2.270086   -0.547879    0.861856
     11          7           0        3.164942   -0.417422   -0.002514
     12          7           0        4.076446   -0.370210   -0.690060
     13          1           0       -0.288754    3.570213   -1.273521
     14          1           0        0.864919    2.491403   -0.464251
     15          1           0       -0.298817    3.416812    0.490580
     16          1           0       -2.183657    2.148072   -0.615507
     17          1           0       -1.023191    1.187082   -1.501917
     18          1           0       -1.024862    1.308757    1.548862
     19          1           0       -2.524569   -0.589252    1.693097
     20          1           0       -3.326934    0.686042    0.783025
     21          1           0       -2.790120   -0.483314   -1.359990
     22          1           0       -3.668166   -1.556605   -0.278676
     23          1           0       -1.683508   -2.705042   -1.344135
     24          1           0       -1.579804   -2.671220    0.412286
     25          1           0       -0.106043   -0.791069   -1.517989
     26          1           0        0.615614   -2.053941   -0.521476
     27          1           0       -0.066908   -0.886339    1.537060
 ---------------------------------------------------------------------

 SCF Done:  E(UB3LYP) =  -553.446695373     A.U. after   33 cycles
 SCF Done:  E(UB3LYP) =  -553.446695373     a.u. after    1 cycles

 The electronic state is 2-A.
 Alpha  occ. eigenvalues --  -19.00231 -14.26805 -14.22038 -14.18726 -10.09281
 Alpha  occ. eigenvalues --  -10.06099 -10.06003 -10.05963 -10.05946 -10.05717
 Alpha  occ. eigenvalues --  -10.04638 -10.04497  -0.97144  -0.90016  -0.76307
 Alpha  occ. eigenvalues --   -0.71918  -0.66709  -0.62434  -0.60721  -0.51767
 Alpha  occ. eigenvalues --   -0.49994  -0.48609  -0.42443  -0.41728  -0.38228
 Alpha  occ. eigenvalues --   -0.35051  -0.33904  -0.33362  -0.33229  -0.32134
 Alpha  occ. eigenvalues --   -0.30460  -0.29937  -0.28049  -0.27502  -0.26922
 Alpha  occ. eigenvalues --   -0.26701  -0.25356  -0.24194  -0.23011  -0.21829
 Alpha  occ. eigenvalues --   -0.20789  -0.20360  -0.19855  -0.17332  -0.14002
 Alpha  occ. eigenvalues --   -0.07248   0.04991
 Alpha virt. eigenvalues --    0.06380   0.07866   0.08455   0.09298   0.10185
 Alpha virt. eigenvalues --    0.10800   0.11284   0.12110   0.12816   0.13372
 Alpha virt. eigenvalues --    0.13923   0.14433   0.15073   0.15532   0.16875

  Beta  occ. eigenvalues --  -18.99920 -14.26349 -14.22063 -14.17943 -10.09267
  Beta  occ. eigenvalues --  -10.06092 -10.05991 -10.05953 -10.05930 -10.05707
  Beta  occ. eigenvalues --  -10.04636 -10.04490  -0.96278  -0.89213  -0.75779
  Beta  occ. eigenvalues --   -0.71732  -0.66687  -0.62379  -0.60607  -0.51727
  Beta  occ. eigenvalues --   -0.49798  -0.48554  -0.42382  -0.41114  -0.38115
  Beta  occ. eigenvalues --   -0.34765  -0.33609  -0.32977  -0.32196  -0.31979
  Beta  occ. eigenvalues --   -0.30274  -0.29787  -0.27411  -0.27045  -0.26353
  Beta  occ. eigenvalues --   -0.26033  -0.25025  -0.24159  -0.22933  -0.21748
  Beta  occ. eigenvalues --   -0.20432  -0.20153  -0.19775  -0.16572  -0.13541
  Beta  occ. eigenvalues --   -0.06943
  Beta virt. eigenvalues --    0.06983   0.08098   0.08541   0.09380   0.10451
  Beta virt. eigenvalues --    0.10839   0.11314   0.11838   0.12728   0.12962
  Beta virt. eigenvalues --    0.13558   0.14121   0.14461   0.15070   0.15476

 Mulliken charges and spin densities:
               1          2
     1  C   -0.143008  -0.464040
     2  C   -0.266447  -0.048586
     3  C    0.175953   0.392883
     4  C   -0.138334  -0.383312
     5  C    0.048758  -0.278208
     6  C    0.023767  -0.577633
     7  C   -0.130207   0.120570
     8  C   -0.492488  -0.292062
     9  O    0.083767   0.041636
    10  N   -0.511068   0.153729
    11  N    0.411082   0.012639
    12  N   -0.351570   0.391034
    13  H    0.052888   0.053605
    14  H    0.203628  -0.022030
    15  H    0.055743   0.053408
    16  H   -0.036683   0.172491
    17  H    0.111143   0.014188
    18  H    0.137493   0.087542
    19  H   -0.046448   0.181571
    20  H   -0.063228   0.200751
    21  H    0.112506   0.006003
    22  H   -0.583757   0.766053
    23  H   -0.044809   0.196307
    24  H    0.108668   0.018853
    25  H    0.126945   0.018071
    26  H    0.184649  -0.025636
    27  H   -0.028945   0.210172
 Sum of Mulliken charges =  -1.00000   1.00000

 Dipole moment (field-independent basis, Debye):
    X=             -4.2755    Y=              1.5158    Z=             -0.5243  Tot=              4.5664
 Quadrupole moment (field-independent basis, Debye-Ang):
   XX=           -145.5850   YY=            -96.6883   ZZ=            -90.6741
   XY=             -2.9948   XZ=              2.9818   YZ=              0.5797

 Summary of Natural Population Analysis:

                                       Natural Population
                Natural  -----------------------------------------------
    Atom  No    Charge         Core      Valence    Rydberg      Total
 -----------------------------------------------------------------------
      C    1   -0.28511      0.99966     2.28074    0.00471     3.28511
      C    2   -0.19139      0.99962     2.18227    0.00950     3.19139
      C    3   -0.11647      0.99956     2.10455    0.01236     3.11647
      C    4   -0.18458      0.99961     2.17504    0.00992     3.18458
      C    5   -0.19246      0.99963     2.18413    0.00869     3.19246
      C    6   -0.19023      0.99963     2.18161    0.00899     3.19023
      C    7   -0.20568      0.99960     2.19785    0.00824     3.20568
      C    8    0.07114      0.99950     1.91280    0.01656     2.92886
      O    9   -0.21558      0.99988     3.20574    0.00996     4.21558
      N   10   -0.10362      0.99973     2.58844    0.01545     3.60362
      N   11    0.12781      0.99972     2.35631    0.01617     3.37219
      N   12    0.04981      0.99982     2.43708    0.01329     3.45019
      H   13    0.08955      0.00000     0.40964    0.00081     0.41045
      H   14    0.11396      0.00000     0.38481    0.00122     0.38604
      H   15    0.09120      0.00000     0.40779    0.00102     0.40880
      H   16    0.09026      0.00000     0.40856    0.00118     0.40974
      H   17    0.09501      0.00000     0.40381    0.00118     0.40499
      H   18    0.09874      0.00000     0.39946    0.00180     0.40126
      H   19    0.09495      0.00000     0.40391    0.00114     0.40505
      H   20    0.09580      0.00000     0.40318    0.00102     0.40420
      H   21    0.09218      0.00000     0.40666    0.00117     0.40782
      H   22    0.09842      0.00000     0.40000    0.00157     0.40158
      H   23    0.09584      0.00000     0.40337    0.00079     0.40416
      H   24    0.09238      0.00000     0.40639    0.00123     0.40762
      H   25    0.09454      0.00000     0.40411    0.00135     0.40546
      H   26    0.10808      0.00000     0.39059    0.00134     0.39192
      H   27    0.08544      0.00000     0.41245    0.00210     0.41456
 =======================================================================
   * Total *   -0.00000     11.99596    33.85128    0.15275    46.00000

 Normal termination of Gaussian 16 at Wed Dec  9 18:30:37 2020.
