 Gaussian 16, Revision A.03,

 -----------------------------------------------------------
 # opt freq B3LYP/6-31G(d) empiricaldispersion=gd3bj scf=xqc
 -----------------------------------------------------------

 ------------------------------
 CID_75827856_JID_7423_neutraal
 ------------------------------
 Symbolic Z-matrix:
 Charge =  0 Multiplicity = 1

 SCF Done:  E(RB3LYP) =  -751.405418292     A.U. after   15 cycles
 SCF Done:  E(RB3LYP) =  -751.408866254     A.U. after   12 cycles
 SCF Done:  E(RB3LYP) =  -751.409011130     A.U. after   12 cycles
 SCF Done:  E(RB3LYP) =  -751.409040746     A.U. after   11 cycles
 SCF Done:  E(RB3LYP) =  -751.409378348     A.U. after   11 cycles
 SCF Done:  E(RB3LYP) =  -751.409404156     A.U. after   10 cycles
 SCF Done:  E(RB3LYP) =  -751.409420302     A.U. after   10 cycles
 SCF Done:  E(RB3LYP) =  -751.409427705     A.U. after    9 cycles
 SCF Done:  E(RB3LYP) =  -751.409435964     A.U. after   10 cycles
 SCF Done:  E(RB3LYP) =  -751.409442120     A.U. after   10 cycles
 SCF Done:  E(RB3LYP) =  -751.409448231     A.U. after    7 cycles
 SCF Done:  E(RB3LYP) =  -751.409448449     A.U. after    8 cycles
 SCF Done:  E(RB3LYP) =  -751.409448377     A.U. after    7 cycles
 SCF Done:  E(RB3LYP) =  -751.409448359     A.U. after    6 cycles
 Optimization completed.
    -- Stationary point found.
 Normal termination of Gaussian 16 at Sun Dec 13 12:30:20 2020.

 --------------------------------------------------------------------
 #N Geom=AllCheck Guess=TCheck SCRF=Check GenChk RB3LYP/6-31G(d) Freq
 --------------------------------------------------------------------

 Structure from the checkpoint file:  "JID_7423.chk"
 ------------------------------
 CID_75827856_JID_7423_neutraal
 ------------------------------
 Charge =  0 Multiplicity = 1

 SCF Done:  E(RB3LYP) =  -751.409448359     A.U. after    1 cycles

  Exact polarizability: 211.855   2.268 152.040 -10.783  -0.656 108.559
 Approx polarizability: 259.982  -2.542 249.652 -18.925  -5.370 165.809

                      1                      2                      3
                      A                      A                      A
 Frequencies --     13.7718                26.7972                35.8803
 Red. masses --      4.2811                 4.5171                 4.5329
 Frc consts  --      0.0005                 0.0019                 0.0034
 IR Inten    --      0.0361                 0.0548                 0.3735

                      4                      5                      6
                      A                      A                      A
 Frequencies --     49.7512                65.0642                89.7864
 Red. masses --      2.9420                 4.0103                 5.7559
 Frc consts  --      0.0043                 0.0100                 0.0273
 IR Inten    --      0.3029                 0.8083                 0.5790

                      7                      8                      9
                      A                      A                      A
 Frequencies --    114.0089               120.2741               137.4923
 Red. masses --      2.5534                 2.5338                 3.6846
 Frc consts  --      0.0196                 0.0216                 0.0410
 IR Inten    --      0.8957                 2.2540                 0.4213

                     10                     11                     12
                      A                      A                      A
 Frequencies --    165.8045               179.0200               223.9964
 Red. masses --      2.7007                 2.3534                 1.1742
 Frc consts  --      0.0437                 0.0444                 0.0347
 IR Inten    --      1.1659                 1.2939                 0.2289

                     13                     14                     15
                      A                      A                      A
 Frequencies --    233.7999               247.2955               279.3082
 Red. masses --      2.1600                 4.9988                 1.6671
 Frc consts  --      0.0696                 0.1801                 0.0766
 IR Inten    --      0.2464                 0.6970                 0.1270

                     16                     17                     18
                      A                      A                      A
 Frequencies --    297.1954               327.8754               361.5900
 Red. masses --      2.5823                 2.2794                 2.5696
 Frc consts  --      0.1344                 0.1444                 0.1979
 IR Inten    --      1.2617                 1.6201                 4.9499

                     19                     20                     21
                      A                      A                      A
 Frequencies --    423.2539               429.9569               435.8014
 Red. masses --      3.1249                 3.1897                 3.2663
 Frc consts  --      0.3298                 0.3474                 0.3655
 IR Inten    --      0.0122                 0.7154                 1.8419

                     22                     23                     24
                      A                      A                      A
 Frequencies --    455.2596               519.4282               557.5528
 Red. masses --      3.4278                 2.9085                 3.7154
 Frc consts  --      0.4186                 0.4624                 0.6805
 IR Inten    --      1.7671                 4.4216                12.3053

                     25                     26                     27
                      A                      A                      A
 Frequencies --    605.4767               622.4815               631.2166
 Red. masses --      3.1352                 4.1678                 6.3511
 Frc consts  --      0.6772                 0.9515                 1.4909
 IR Inten    --     38.6771                 7.8611                 0.5081

                     28                     29                     30
                      A                      A                      A
 Frequencies --    664.0373               702.2705               724.8333
 Red. masses --      1.4022                 2.3224                 1.9732
 Frc consts  --      0.3643                 0.6748                 0.6108
 IR Inten    --     50.4917                11.0456                17.7140

                     31                     32                     33
                      A                      A                      A
 Frequencies --    761.9151               766.3409               801.2211
 Red. masses --      2.8381                 1.6001                 1.7258
 Frc consts  --      0.9707                 0.5537                 0.6528
 IR Inten    --     20.4439                57.9366                 6.0780

                     34                     35                     36
                      A                      A                      A
 Frequencies --    819.6159               830.3124               873.9769
 Red. masses --      3.0612                 1.2614                 1.6531
 Frc consts  --      1.2116                 0.5124                 0.7440
 IR Inten    --     19.6654                 0.1655                 1.1277

                     37                     38                     39
                      A                      A                      A
 Frequencies --    878.4983               894.1532               923.2353
 Red. masses --      2.0588                 1.4475                 1.7036
 Frc consts  --      0.9361                 0.6818                 0.8556
 IR Inten    --      0.9610                 6.2125                 1.3853

                     40                     41                     42
                      A                      A                      A
 Frequencies --    942.4334               956.6922               975.6301
 Red. masses --      2.0670                 1.3333                 2.2411
 Frc consts  --      1.0816                 0.7190                 1.2568
 IR Inten    --      0.7792                 0.1488                26.4999

                     43                     44                     45
                      A                      A                      A
 Frequencies --    984.3648              1017.9058              1026.7386
 Red. masses --      1.2369                 5.6929                 1.2907
 Frc consts  --      0.7061                 3.4753                 0.8017
 IR Inten    --      0.4512                 0.2324                 8.2645

                     46                     47                     48
                      A                      A                      A
 Frequencies --   1035.4545              1057.7696              1078.0167
 Red. masses --      1.8118                 2.1102                 2.0740
 Frc consts  --      1.1445                 1.3911                 1.4201
 IR Inten    --      6.7887                 0.7360                45.5628

                     49                     50                     51
                      A                      A                      A
 Frequencies --   1092.2540              1114.6619              1121.9356
 Red. masses --      2.9840                 1.6741                 1.8790
 Frc consts  --      2.0975                 1.2255                 1.3936
 IR Inten    --     82.4348                11.3692                18.9439

                     52                     53                     54
                      A                      A                      A
 Frequencies --   1134.9110              1150.5666              1178.4169
 Red. masses --      1.8895                 2.2023                 2.7945
 Frc consts  --      1.4339                 1.7177                 2.2864
 IR Inten    --      5.2183                 0.5683                10.9917

                     55                     56                     57
                      A                      A                      A
 Frequencies --   1191.1539              1195.3336              1209.9243
 Red. masses --      1.1009                 2.1572                 1.1436
 Frc consts  --      0.9203                 1.8160                 0.9864
 IR Inten    --      3.4777                 2.5491                17.7062

                     58                     59                     60
                      A                      A                      A
 Frequencies --   1260.8449              1278.9313              1290.1233
 Red. masses --      1.2194                 1.2457                 3.5471
 Frc consts  --      1.1422                 1.2005                 3.4784
 IR Inten    --     58.2089                 1.8553               363.6437

                     61                     62                     63
                      A                      A                      A
 Frequencies --   1297.8447              1309.5435              1345.4403
 Red. masses --      1.3432                 1.2504                 1.3021
 Frc consts  --      1.3330                 1.2634                 1.3888
 IR Inten    --     14.8799                 6.9941                24.4516

                     64                     65                     66
                      A                      A                      A
 Frequencies --   1353.0213              1371.4035              1373.8707
 Red. masses --      2.0476                 1.5479                 2.4352
 Frc consts  --      2.2085                 1.7152                 2.7082
 IR Inten    --     24.6926                97.0334                11.4448

                     67                     68                     69
                      A                      A                      A
 Frequencies --   1382.5010              1403.7823              1407.7073
 Red. masses --      1.3264                 1.4239                 1.3460
 Frc consts  --      1.4937                 1.6532                 1.5715
 IR Inten    --      5.8518                 0.5614                 6.4173

                     70                     71                     72
                      A                      A                      A
 Frequencies --   1421.7812              1438.8912              1444.5519
 Red. masses --      1.6960                 1.4092                 1.2376
 Frc consts  --      2.0199                 1.7190                 1.5215
 IR Inten    --     25.9889                39.0523                10.3114

                     73                     74                     75
                      A                      A                      A
 Frequencies --   1446.7989              1505.4822              1507.6959
 Red. masses --      1.2689                 1.7307                 2.2758
 Frc consts  --      1.5649                 2.3111                 3.0480
 IR Inten    --      2.7847               109.9983                 2.5559

                     76                     77                     78
                      A                      A                      A
 Frequencies --   1511.1227              1521.8566              1525.5518
 Red. masses --      1.1266                 1.0634                 1.0915
 Frc consts  --      1.5158                 1.4511                 1.4967
 IR Inten    --      8.6746                 2.1664                38.0551

                     79                     80                     81
                      A                      A                      A
 Frequencies --   1530.5426              1533.4437              1534.2694
 Red. masses --      1.0626                 1.1116                 1.1395
 Frc consts  --      1.4666                 1.5400                 1.5804
 IR Inten    --      4.2155                34.1478                22.2053

                     82                     83                     84
                      A                      A                      A
 Frequencies --   1537.7941              1543.7563              1553.7798
 Red. masses --      1.0642                 1.0657                 1.9056
 Frc consts  --      1.4827                 1.4964                 2.7106
 IR Inten    --     11.3157                 0.9445                51.3623

                     85                     86                     87
                      A                      A                      A
 Frequencies --   1650.0162              1668.0493              1774.6486
 Red. masses --      5.9543                 5.6529                 7.7044
 Frc consts  --      9.5512                 9.2671                14.2960
 IR Inten    --     24.3756                80.2336               344.6078

                     88                     89                     90
                      A                      A                      A
 Frequencies --   3023.4169              3025.4980              3036.4391
 Red. masses --      1.0728                 1.0567                 1.0603
 Frc consts  --      5.7777                 5.6989                 5.7596
 IR Inten    --     29.4521                24.4949                26.3454

                     91                     92                     93
                      A                      A                      A
 Frequencies --   3041.3627              3048.6600              3060.7881
 Red. masses --      1.0626                 1.0369                 1.0381
 Frc consts  --      5.7912                 5.6783                 5.7300
 IR Inten    --     26.7647                19.3290                13.0659

                     94                     95                     96
                      A                      A                      A
 Frequencies --   3066.7528              3074.0422              3076.4830
 Red. masses --      1.0974                 1.1080                 1.0995
 Frc consts  --      6.0807                 6.1690                 6.1315
 IR Inten    --     25.9893                35.7806                47.6861

                     97                     98                     99
                      A                      A                      A
 Frequencies --   3096.9531              3114.4353              3118.4937
 Red. masses --      1.0888                 1.1021                 1.1016
 Frc consts  --      6.1526                 6.2985                 6.3120
 IR Inten    --     27.0625                39.0823                55.2768

                    100                    101                    102
                      A                      A                      A
 Frequencies --   3122.9746              3133.0491              3153.6080
 Red. masses --      1.1021                 1.0998                 1.0894
 Frc consts  --      6.3328                 6.3606                 6.3836
 IR Inten    --     22.3027                39.3699                19.1768

                    103                    104                    105
                      A                      A                      A
 Frequencies --   3187.5109              3195.3725              3210.6196
 Red. masses --      1.0853                 1.0893                 1.0928
 Frc consts  --      6.4967                 6.5531                 6.6367
 IR Inten    --      2.6464                13.7112                30.5456

                    106                    107                    108
                      A                      A                      A
 Frequencies --   3218.5863              3228.8344              3581.9444
 Red. masses --      1.0959                 1.0923                 1.0749
 Frc consts  --      6.6887                 6.7095                 8.1254
 IR Inten    --     12.1416                 7.9746                38.5032

 - Thermochemistry -
 -------------------
 Temperature   298.150 Kelvin.  Pressure   1.00000 Atm.
 Atom     1 has atomic number  6 and mass  12.00000

 Molecular mass:   235.15723 amu.
 Principal axes and moments of inertia in atomic units:
                           1         2         3
     Eigenvalues --  1456.98872********************
           X            0.99997   0.00703  -0.00231
           Y           -0.00693   0.99918   0.03978
           Z            0.00258  -0.03976   0.99921
 This molecule is an asymmetric top.
 Rotational symmetry number  1.
 Warning -- assumption of classical behavior for rotation
           may cause significant error
 Rotational temperatures (Kelvin)      0.05945     0.00726     0.00694
 Rotational constants (GHZ):           1.23868     0.15128     0.14460
 Zero-point vibrational energy     875035.9 (Joules/Mol)
                                  209.13861 (Kcal/Mol)
 Warning -- explicit consideration of  25 degrees of freedom as
           vibrations may cause significant error
 Vibrational temperatures:     19.81    38.56    51.62    71.58    93.61
          (Kelvin)            129.18   164.03   173.05   197.82   238.56
                              257.57   322.28   336.39   355.80   401.86
                              427.60   471.74   520.25   608.97   618.61
                              627.02   655.02   747.34   802.19   871.15
                              895.61   908.18   955.40  1010.41  1042.87
                             1096.23  1102.59  1152.78  1179.24  1194.63
                             1257.46  1263.96  1286.49  1328.33  1355.95
                             1376.47  1403.71  1416.28  1464.54  1477.25
                             1489.79  1521.89  1551.03  1571.51  1603.75
                             1614.22  1632.88  1655.41  1695.48  1713.80
                             1719.82  1740.81  1814.07  1840.10  1856.20
                             1867.31  1884.14  1935.79  1946.70  1973.14
                             1976.69  1989.11  2019.73  2025.38  2045.63
                             2070.24  2078.39  2081.62  2166.05  2169.24
                             2174.17  2189.61  2194.93  2202.11  2206.28
                             2207.47  2212.54  2221.12  2235.54  2374.01
                             2399.95  2553.32  4350.02  4353.02  4368.76
                             4375.84  4386.34  4403.79  4412.37  4422.86
                             4426.37  4455.82  4480.98  4486.82  4493.26
                             4507.76  4537.34  4586.12  4597.43  4619.37
                             4630.83  4645.57  5153.62

 Zero-point correction=                           0.333284 (Hartree/Particle)
 Thermal correction to Energy=                    0.351201
 Thermal correction to Enthalpy=                  0.352145
 Thermal correction to Gibbs Free Energy=         0.284385
 Sum of electronic and zero-point Energies=           -751.076165
 Sum of electronic and thermal Energies=              -751.058248
 Sum of electronic and thermal Enthalpies=            -751.057304
 Sum of electronic and thermal Free Energies=         -751.125064

                     E (Thermal)             CV                S
                      KCal/Mol        Cal/Mol-Kelvin    Cal/Mol-Kelvin
 Total                  220.382             66.283            142.613
 Electronic               0.000              0.000              0.000
 Translational            0.889              2.981             42.267
 Rotational               0.889              2.981             33.739
 Vibrational            218.604             60.321             66.608
 Vibration     1          0.593              1.986              7.375
 Vibration     2          0.593              1.984              6.053
 Vibration     3          0.594              1.982              5.474
 Vibration     4          0.595              1.978              4.827
 Vibration     5          0.597              1.971              4.297
 Vibration     6          0.602              1.956              3.665
 Vibration     7          0.607              1.938              3.199
 Vibration     8          0.609              1.932              3.096
 Vibration     9          0.614              1.916              2.838
 Vibration    10          0.624              1.884              2.483
 Vibration    11          0.629              1.868              2.339
 Vibration    12          0.649              1.805              1.927
 Vibration    13          0.654              1.789              1.850
 Vibration    14          0.661              1.767              1.750
 Vibration    15          0.680              1.712              1.538
 Vibration    16          0.691              1.679              1.433
 Vibration    17          0.711              1.620              1.271
 Vibration    18          0.736              1.551              1.115
 Vibration    19          0.785              1.420              0.881
 Vibration    20          0.791              1.405              0.859
 Vibration    21          0.796              1.392              0.840
 Vibration    22          0.814              1.349              0.780
 Vibration    23          0.874              1.207              0.611
 Vibration    24          0.913              1.123              0.529
 Vibration    25          0.964              1.020              0.440

 Optimization completed.
    -- Stationary point found.
 Normal termination of Gaussian 16 at Sun Dec 13 12:42:01 2020.

 ----------------------------------------------------------------------
 # B3LYP/6-311++G(d,p) empiricaldispersion=gd3bj scf=xqc pop=npa geom=c
 heck
 ----------------------------------------------------------------------

 --------------------------------------
 CID_75827856_JID_7423_Energie_neutraal
 --------------------------------------
 Structure from the checkpoint file:  "JID_7423.chk"
 Charge =  0 Multiplicity = 1

 SCF Done:  E(RB3LYP) =  -751.624025464     A.U. after   14 cycles
 Normal termination of Gaussian 16 at Sun Dec 13 12:48:09 2020.

 ----------------------------------------------------------------------
 # B3LYP/6-311++G(d,p) empiricaldispersion=gd3bj scf=xqc pop=npa geom=c
 heck
 ----------------------------------------------------------------------

 ------------------------------------
 CID_75827856_JID_7423_Energie_kation
 ------------------------------------
 Structure from the checkpoint file:  "JID_7423.chk"
 Charge =  1 Multiplicity = 2

 SCF Done:  E(UB3LYP) =  -751.325888387     A.U. after   33 cycles
 SCF Done:  E(UB3LYP) =  -751.325888387     a.u. after    1 cycles
 Normal termination of Gaussian 16 at Sun Dec 13 13:09:23 2020.
 Gaussian 16:  ES64L-G16RevA.03 25-Dec-2016

 ----------------------------------------------------------------------
 # B3LYP/6-311++G(d,p) empiricaldispersion=gd3bj scf=xqc pop=npa geom=c
 heck
 ----------------------------------------------------------------------

 -----------------------------------
 CID_75827856_JID_7423_Energie_anion
 -----------------------------------
 Structure from the checkpoint file:  "JID_7423.chk"
 Charge = -1 Multiplicity = 2

                         Standard orientation:
 ---------------------------------------------------------------------
 Center     Atomic      Atomic             Coordinates (Angstroms)
 Number     Number       Type             X           Y           Z
 ---------------------------------------------------------------------
      1          6           0       -5.964200   -0.737530   -0.796802
      2          6           0       -4.751229   -1.527265   -0.296918
      3          6           0       -3.403097   -0.838742   -0.559837
      4          6           0       -3.257568    0.554126    0.091184
      5          6           0       -3.441407    0.551810    1.618847
      6          6           0       -1.982853    1.260081   -0.384806
      7          8           0       -2.054250    2.216635   -1.149112
      8          7           0       -0.749782    0.796209    0.004943
      9          6           0       -0.372778   -0.178199    1.010686
     10          6           0        0.968326   -0.794557    0.646370
     11          8           0        1.907553    0.271712    0.585535
     12          6           0        3.191211   -0.006580    0.196547
     13          6           0        3.666465   -1.290485   -0.085404
     14          6           0        5.000282   -1.456652   -0.470373
     15          6           0        5.856227   -0.363557   -0.574202
     16          6           0        5.369369    0.916051   -0.288002
     17          6           0        4.045832    1.098229    0.095140
     18          1           0       -6.087097    0.207802   -0.256964
     19          1           0       -6.887416   -1.312613   -0.666513
     20          1           0       -5.865116   -0.497836   -1.862355
     21          1           0       -4.861140   -1.731490    0.776155
     22          1           0       -4.732896   -2.508246   -0.789289
     23          1           0       -2.599771   -1.504344   -0.219558
     24          1           0       -3.265987   -0.722121   -1.643015
     25          1           0       -4.036844    1.195545   -0.329339
     26          1           0       -2.826279   -0.198728    2.123872
     27          1           0       -3.194585    1.531195    2.042707
     28          1           0       -4.484814    0.338449    1.871840
     29          1           0        0.008466    1.386229   -0.319391
     30          1           0       -0.299270    0.273124    2.010908
     31          1           0       -1.111783   -0.978430    1.059819
     32          1           0        1.268402   -1.528671    1.406841
     33          1           0        0.902325   -1.297438   -0.327632
     34          1           0        3.018827   -2.155858   -0.009437
     35          1           0        5.364507   -2.456568   -0.689313
     36          1           0        6.890197   -0.502712   -0.874318
     37          1           0        6.025101    1.778722   -0.365249
     38          1           0        3.649739    2.083374    0.319664
 ---------------------------------------------------------------------

 SCF Done:  E(UB3LYP) =  -751.616104353     A.U. after   33 cycles
 SCF Done:  E(UB3LYP) =  -751.616104353     a.u. after    1 cycles

 The electronic state is 2-A.
 Alpha  occ. eigenvalues --  -19.07450 -18.99382 -14.24410 -10.17930 -10.15644
 Alpha  occ. eigenvalues --  -10.14401 -10.12582 -10.09922 -10.09679 -10.09362
 Alpha  occ. eigenvalues --  -10.09316 -10.09227 -10.09039 -10.08184 -10.07976
 Alpha  occ. eigenvalues --  -10.07820 -10.07602  -0.99153  -0.94549  -0.83296
 Alpha  occ. eigenvalues --   -0.77548  -0.72803  -0.69438  -0.67154  -0.67004
 Alpha  occ. eigenvalues --   -0.64678  -0.60165  -0.57224  -0.55641  -0.53093
 Alpha  occ. eigenvalues --   -0.51229  -0.49918  -0.47956  -0.45991  -0.42424
 Alpha  occ. eigenvalues --   -0.41342  -0.39963  -0.39268  -0.37520  -0.37356
 Alpha  occ. eigenvalues --   -0.36534  -0.35505  -0.34993  -0.34468  -0.33704
 Alpha  occ. eigenvalues --   -0.33048  -0.32358  -0.31626  -0.30250  -0.29546
 Alpha  occ. eigenvalues --   -0.29175  -0.28525  -0.28051  -0.27490  -0.26905
 Alpha  occ. eigenvalues --   -0.25324  -0.25024  -0.24301  -0.23934  -0.23332
 Alpha  occ. eigenvalues --   -0.17839  -0.16725  -0.16062  -0.14822   0.03717
 Alpha virt. eigenvalues --    0.05274   0.06167   0.06309   0.06725   0.07214
 Alpha virt. eigenvalues --    0.07676   0.07825   0.08515   0.08815   0.08977
 Alpha virt. eigenvalues --    0.09977   0.10145   0.10466   0.10972   0.11385

  Beta  occ. eigenvalues --  -19.07442 -18.99373 -14.24412 -10.17921 -10.15646
  Beta  occ. eigenvalues --  -10.14365 -10.12555 -10.09916 -10.09665 -10.09360
  Beta  occ. eigenvalues --  -10.09313 -10.09211 -10.09032 -10.08169 -10.07953
  Beta  occ. eigenvalues --  -10.07793 -10.07587  -0.99136  -0.94531  -0.83283
  Beta  occ. eigenvalues --   -0.77532  -0.72776  -0.69409  -0.67129  -0.66978
  Beta  occ. eigenvalues --   -0.64649  -0.60123  -0.57170  -0.55597  -0.53066
  Beta  occ. eigenvalues --   -0.51182  -0.49876  -0.47911  -0.45954  -0.42397
  Beta  occ. eigenvalues --   -0.41311  -0.39933  -0.39242  -0.37487  -0.37325
  Beta  occ. eigenvalues --   -0.36504  -0.35475  -0.34971  -0.34439  -0.33669
  Beta  occ. eigenvalues --   -0.33021  -0.32336  -0.31580  -0.30225  -0.29511
  Beta  occ. eigenvalues --   -0.29149  -0.28494  -0.28014  -0.27459  -0.26876
  Beta  occ. eigenvalues --   -0.25285  -0.24993  -0.24279  -0.23908  -0.23298
  Beta  occ. eigenvalues --   -0.17827  -0.16704  -0.16049  -0.14812
  Beta virt. eigenvalues --    0.05624   0.05933   0.06314   0.07039   0.07141
  Beta virt. eigenvalues --    0.07614   0.07682   0.08168   0.08807   0.09237
  Beta virt. eigenvalues --    0.09338   0.10163   0.10301   0.10747   0.11192

 Mulliken charges and spin densities:
               1          2
     1  C   -0.006013  -0.592428
     2  C   -0.050106  -0.173251
     3  C    0.176631  -0.311523
     4  C   -0.315249   0.462947
     5  C    0.375695  -1.016984
     6  C    0.002132  -0.137494
     7  O   -0.319451   0.004156
     8  N   -0.249654   0.084954
     9  C    0.578661  -0.980115
    10  C    0.448114  -0.926982
    11  O   -0.116595   0.035129
    12  C    0.199111  -0.209069
    13  C    1.012189  -0.825047
    14  C   -0.535591   0.323285
    15  C    0.394218  -0.668886
    16  C   -0.009849  -0.109594
    17  C   -1.112882   0.900547
    18  H    0.072727   0.063760
    19  H   -0.130887   0.270234
    20  H    0.103334   0.032891
    21  H   -0.124649   0.277099
    22  H   -0.232730   0.395928
    23  H   -0.282195   0.409706
    24  H    0.058757   0.110397
    25  H    0.194669   0.044519
    26  H   -0.419479   0.592028
    27  H    0.131660   0.017124
    28  H   -0.105063   0.261870
    29  H    0.373275  -0.025032
    30  H    0.049776   0.140126
    31  H    0.099545   0.065794
    32  H   -0.528140   0.736029
    33  H    0.081236   0.114282
    34  H   -0.396105   0.577195
    35  H   -0.404887   0.588670
    36  H   -0.100893   0.242879
    37  H   -0.008475   0.167617
    38  H    0.097163   0.057239
 Sum of Mulliken charges =  -1.00000   1.00000

 Dipole moment (field-independent basis, Debye):
    X=              1.0047    Y=              4.6453    Z=             -0.7133  Tot=              4.8059
 Quadrupole moment (field-independent basis, Debye-Ang):
   XX=           -208.9343   YY=           -155.7775   ZZ=           -142.4586
   XY=              4.9575   XZ=              1.5481   YZ=              9.2178

 Summary of Natural Population Analysis:

                                       Natural Population
                Natural  -----------------------------------------------
    Atom  No    Charge         Core      Valence    Rydberg      Total
 -----------------------------------------------------------------------
      C    1   -0.28851      0.99967     2.28286    0.00599     3.28851
      C    2   -0.19140      0.99964     2.18345    0.00832     3.19140
      C    3   -0.18492      0.99961     2.17598    0.00934     3.18492
      C    4   -0.15237      0.99955     2.14268    0.01013     3.15237
      C    5   -0.28835      0.99965     2.28279    0.00591     3.28835
      C    6    0.35270      0.99963     1.62400    0.02366     2.64730
      O    7   -0.32622      0.99988     3.32096    0.00538     4.32622
      N    8   -0.32246      0.99966     2.81360    0.00921     3.82246
      C    9   -0.09612      0.99960     2.08484    0.01167     3.09612
      C   10   -0.01401      0.99957     2.00168    0.01277     3.01401
      O   11   -0.28283      0.99985     3.27370    0.00928     4.28283
      C   12    0.16216      0.99938     1.82477    0.01369     2.83784
      C   13   -0.14173      0.99952     2.13252    0.00969     3.14173
      C   14   -0.08947      0.99957     2.07927    0.01063     3.08947
      C   15   -0.11901      0.99956     2.10984    0.00961     3.11901
      C   16   -0.09634      0.99957     2.08736    0.00941     3.09634
      C   17   -0.12170      0.99952     2.11313    0.00904     3.12170
      H   18    0.09530      0.00000     0.40388    0.00082     0.40470
      H   19    0.09925      0.00000     0.39999    0.00075     0.40075
      H   20    0.09596      0.00000     0.40324    0.00079     0.40404
      H   21    0.09667      0.00000     0.40194    0.00139     0.40333
      H   22    0.09872      0.00000     0.40010    0.00118     0.40128
      H   23    0.09900      0.00000     0.39931    0.00169     0.40100
      H   24    0.09873      0.00000     0.40011    0.00116     0.40127
      H   25    0.10851      0.00000     0.38952    0.00197     0.39149
      H   26    0.10098      0.00000     0.39772    0.00131     0.39902
      H   27    0.10135      0.00000     0.39777    0.00088     0.39865
      H   28    0.10246      0.00000     0.39672    0.00082     0.39754
      H   29    0.19719      0.00000     0.30007    0.00274     0.30281
      H   30    0.09365      0.00000     0.40482    0.00153     0.40635
      H   31    0.10738      0.00000     0.39041    0.00222     0.39262
      H   32    0.09489      0.00000     0.40230    0.00281     0.40511
      H   33    0.08914      0.00000     0.40891    0.00195     0.41086
      H   34    0.11127      0.00000     0.38679    0.00194     0.38873
      H   35    0.10318      0.00000     0.39560    0.00122     0.39682
      H   36    0.10109      0.00000     0.39801    0.00090     0.39891
      H   37    0.09982      0.00000     0.39942    0.00076     0.40018
      H   38    0.10605      0.00000     0.39300    0.00095     0.39395
 =======================================================================
   * Total *    0.00000     16.99343    46.80304    0.20353    64.00000

 Normal termination of Gaussian 16 at Sun Dec 13 13:30:50 2020.
