 Gaussian 16, Revision A.03,

 -----------------------------------------------------------
 # opt freq B3LYP/6-31G(d) empiricaldispersion=gd3bj scf=xqc
 -----------------------------------------------------------

 ------------------------------
 CID_13190564_JID_4391_neutraal
 ------------------------------
 Symbolic Z-matrix:
 Charge =  0 Multiplicity = 1

 SCF Done:  E(RB3LYP) =  -721.191699334     A.U. after   15 cycles
 SCF Done:  E(RB3LYP) =  -721.193265081     A.U. after   14 cycles
 SCF Done:  E(RB3LYP) =  -721.189857962     A.U. after   14 cycles
 SCF Done:  E(RB3LYP) =  -721.193049144     A.U. after   14 cycles
 SCF Done:  E(RB3LYP) =  -721.195138636     A.U. after   11 cycles
 SCF Done:  E(RB3LYP) =  -721.195507765     A.U. after   13 cycles
 SCF Done:  E(RB3LYP) =  -721.195652770     A.U. after   14 cycles
 SCF Done:  E(RB3LYP) =  -721.196341859     A.U. after   13 cycles
 SCF Done:  E(RB3LYP) =  -721.196446435     A.U. after   11 cycles
 SCF Done:  E(RB3LYP) =  -721.196481440     A.U. after   11 cycles
 SCF Done:  E(RB3LYP) =  -721.196496134     A.U. after   11 cycles
 SCF Done:  E(RB3LYP) =  -721.196498557     A.U. after    9 cycles
 SCF Done:  E(RB3LYP) =  -721.196499328     A.U. after    9 cycles
 SCF Done:  E(RB3LYP) =  -721.196499558     A.U. after    8 cycles
 SCF Done:  E(RB3LYP) =  -721.196499708     A.U. after    8 cycles
 SCF Done:  E(RB3LYP) =  -721.196499756     A.U. after    8 cycles
 Optimization completed.
    -- Stationary point found.
 Normal termination of Gaussian 16 at Thu Dec 10 09:25:35 2020.

 --------------------------------------------------------------------
 #N Geom=AllCheck Guess=TCheck SCRF=Check GenChk RB3LYP/6-31G(d) Freq
 --------------------------------------------------------------------

 Structure from the checkpoint file:  "JID_4391.chk"
 ------------------------------
 CID_13190564_JID_4391_neutraal
 ------------------------------
 Charge =  0 Multiplicity = 1

 SCF Done:  E(RB3LYP) =  -721.196499756     A.U. after    1 cycles

  Exact polarizability: 168.928   0.438 119.261   3.282   3.469  56.156
 Approx polarizability: 241.286   7.095 228.924   1.250  12.612  86.036

                      1                      2                      3
                      A                      A                      A
 Frequencies --     48.1350                58.7199                85.9814
 Red. masses --      7.4588                 8.9880                 5.5279
 Frc consts  --      0.0102                 0.0183                 0.0241
 IR Inten    --      0.9091                 0.2674                 2.0662

                      4                      5                      6
                      A                      A                      A
 Frequencies --    103.0244               165.8642               179.6575
 Red. masses --      4.9173                 3.5047                 4.5465
 Frc consts  --      0.0308                 0.0568                 0.0865
 IR Inten    --      7.4614                13.5966                 2.5379

                      7                      8                      9
                      A                      A                      A
 Frequencies --    220.5177               236.3316               266.4213
 Red. masses --      4.9480                 4.4508                 3.0031
 Frc consts  --      0.1418                 0.1465                 0.1256
 IR Inten    --     11.5586                 6.1122                 1.8397

                     10                     11                     12
                      A                      A                      A
 Frequencies --    328.1336               348.9403               401.1184
 Red. masses --      5.2455                 4.5705                 3.0311
 Frc consts  --      0.3328                 0.3279                 0.2873
 IR Inten    --      6.3638                14.4653                20.4833

                     13                     14                     15
                      A                      A                      A
 Frequencies --    418.7471               436.3546               481.4150
 Red. masses --      3.9574                 1.2526                 1.6207
 Frc consts  --      0.4088                 0.1405                 0.2213
 IR Inten    --     44.3107               112.6141               127.8344

                     16                     17                     18
                      A                      A                      A
 Frequencies --    494.7717               526.0935               565.2686
 Red. masses --      3.0498                 3.5326                 5.0161
 Frc consts  --      0.4399                 0.5761                 0.9443
 IR Inten    --     10.4042                20.6923                 5.4329

                     19                     20                     21
                      A                      A                      A
 Frequencies --    579.1964               599.0013               672.0088
 Red. masses --      4.9792                 4.2309                 4.8420
 Frc consts  --      0.9842                 0.8944                 1.2883
 IR Inten    --      4.5158                 2.6098                 8.8874

                     22                     23                     24
                      A                      A                      A
 Frequencies --    687.7413               724.9700               752.8373
 Red. masses --      1.1398                 4.4085                 4.5350
 Frc consts  --      0.3176                 1.3652                 1.5143
 IR Inten    --    234.8648                17.1735                21.1586

                     25                     26                     27
                      A                      A                      A
 Frequencies --    784.9863               827.3483               841.0540
 Red. masses --      3.6731                 5.4631                 1.8148
 Frc consts  --      1.3336                 2.2033                 0.7563
 IR Inten    --      6.6746                34.0858                 6.3557

                     28                     29                     30
                      A                      A                      A
 Frequencies --    886.2532               895.0697               914.2036
 Red. masses --      1.8265                 1.5373                 2.7008
 Frc consts  --      0.8453                 0.7257                 1.3299
 IR Inten    --     26.1853                22.2275                33.1443

                     31                     32                     33
                      A                      A                      A
 Frequencies --    951.5474               974.5205              1042.0363
 Red. masses --      1.2873                 4.4523                 3.3562
 Frc consts  --      0.6867                 2.4913                 2.1471
 IR Inten    --      0.1808                22.7321                42.1092

                     34                     35                     36
                      A                      A                      A
 Frequencies --   1079.3582              1097.8290              1131.0591
 Red. masses --      3.0657                 1.9599                 1.6076
 Frc consts  --      2.1043                 1.3917                 1.2117
 IR Inten    --     60.1765                69.2304                28.6583

                     37                     38                     39
                      A                      A                      A
 Frequencies --   1134.0929              1159.4940              1239.3239
 Red. masses --      1.8026                 1.2534                 1.5796
 Frc consts  --      1.3660                 0.9928                 1.4295
 IR Inten    --     25.9692                14.6858               107.4849

                     40                     41                     42
                      A                      A                      A
 Frequencies --   1257.4902              1286.4921              1300.7638
 Red. masses --      1.7332                 1.6335                 1.3495
 Frc consts  --      1.6148                 1.5929                 1.3453
 IR Inten    --     69.4694                22.4335                 4.6957

                     43                     44                     45
                      A                      A                      A
 Frequencies --   1333.4226              1395.1517              1397.1229
 Red. masses --      3.0165                 5.8830                10.3351
 Frc consts  --      3.1600                 6.7467                11.8859
 IR Inten    --    196.2417                11.3750               385.6677

                     46                     47                     48
                      A                      A                      A
 Frequencies --   1409.9799              1421.0297              1443.7916
 Red. masses --      1.2907                 1.2248                 1.3498
 Frc consts  --      1.5118                 1.4572                 1.6577
 IR Inten    --      1.4394                10.5852                31.4896

                     49                     50                     51
                      A                      A                      A
 Frequencies --   1484.7976              1526.4511              1541.2127
 Red. masses --      4.0800                 1.0924                 1.1157
 Frc consts  --      5.2996                 1.4996                 1.5615
 IR Inten    --     18.8138                 1.1084                11.0121

                     52                     53                     54
                      A                      A                      A
 Frequencies --   1551.8461              1618.0485              1644.4240
 Red. masses --      3.1915                 9.7706                 6.7561
 Frc consts  --      4.5283                15.0714                10.7640
 IR Inten    --    135.5926               189.6261                87.3539

                     55                     56                     57
                      A                      A                      A
 Frequencies --   1676.2735              1715.0505              3037.9115
 Red. masses --      4.8418                 1.2775                 1.0690
 Frc consts  --      8.0159                 2.2139                 5.8126
 IR Inten    --     13.8625                87.8563                40.1647

                     58                     59                     60
                      A                      A                      A
 Frequencies --   3055.3682              3119.4059              3131.6179
 Red. masses --      1.0635                 1.0994                 1.1015
 Frc consts  --      5.8493                 6.3031                 6.3645
 IR Inten    --     57.5989                13.1745                26.1493

                     61                     62                     63
                      A                      A                      A
 Frequencies --   3218.8840              3238.0327              3265.3241
 Red. masses --      1.0907                 1.0905                 1.0928
 Frc consts  --      6.6585                 6.7368                 6.8648
 IR Inten    --      5.2116                 2.9200                 2.1033

                     64                     65                     66
                      A                      A                      A
 Frequencies --   3510.3183              3653.5020              3722.4341
 Red. masses --      1.0553                 1.0941                 1.0654
 Frc consts  --      7.6619                 8.6044                 8.6977
 IR Inten    --    200.6520                53.6653                27.2434

 - Thermochemistry -
 -------------------
 Temperature   298.150 Kelvin.  Pressure   1.00000 Atm.
 Atom     1 has atomic number  6 and mass  12.00000

 Molecular mass:   198.06406 amu.
 Principal axes and moments of inertia in atomic units:
                           1         2         3
     Eigenvalues --   895.383955546.704296244.91603
           X            0.99999   0.00057   0.00467
           Y           -0.00054   0.99998  -0.00655
           Z           -0.00468   0.00654   0.99997
 This molecule is an asymmetric top.
 Rotational symmetry number  1.
 Warning -- assumption of classical behavior for rotation
           may cause significant error
 Rotational temperatures (Kelvin)      0.09673     0.01562     0.01387
 Rotational constants (GHZ):           2.01561     0.32537     0.28899
 Zero-point vibrational energy     492236.8 (Joules/Mol)
                                  117.64743 (Kcal/Mol)
 Warning -- explicit consideration of  20 degrees of freedom as
           vibrations may cause significant error
 Vibrational temperatures:     69.26    84.48   123.71   148.23   238.64
          (Kelvin)            258.49   317.28   340.03   383.32   472.11
                              502.05   577.12   602.48   627.82   692.65
                              711.87   756.93   813.30   833.33   861.83
                              966.87   989.51  1043.07  1083.17  1129.42
                             1190.37  1210.09  1275.12  1287.81  1315.34
                             1369.06  1402.12  1499.26  1552.96  1579.53
                             1627.34  1631.71  1668.25  1783.11  1809.25
                             1850.98  1871.51  1918.50  2007.31  2010.15
                             2028.65  2044.54  2077.29  2136.29  2196.22
                             2217.46  2232.76  2328.01  2365.96  2411.78
                             2467.58  4370.88  4395.99  4488.13  4505.70
                             4631.26  4658.81  4698.07  5050.57  5256.57
                             5355.75

 Zero-point correction=                           0.187483 (Hartree/Particle)
 Thermal correction to Energy=                    0.200156
 Thermal correction to Enthalpy=                  0.201101
 Thermal correction to Gibbs Free Energy=         0.147908
 Sum of electronic and zero-point Energies=           -721.009017
 Sum of electronic and thermal Energies=              -720.996343
 Sum of electronic and thermal Enthalpies=            -720.995399
 Sum of electronic and thermal Free Energies=         -721.048592

                     E (Thermal)             CV                S
                      KCal/Mol        Cal/Mol-Kelvin    Cal/Mol-Kelvin
 Total                  125.600             48.201            111.953
 Electronic               0.000              0.000              0.000
 Translational            0.889              2.981             41.755
 Rotational               0.889              2.981             31.806
 Vibrational            123.823             42.239             38.392
 Vibration     1          0.595              1.978              4.893
 Vibration     2          0.596              1.974              4.500
 Vibration     3          0.601              1.959              3.749
 Vibration     4          0.605              1.947              3.396
 Vibration     5          0.624              1.884              2.482
 Vibration     6          0.629              1.867              2.332
 Vibration     7          0.647              1.810              1.955
 Vibration     8          0.655              1.785              1.830
 Vibration     9          0.672              1.735              1.619
 Vibration    10          0.711              1.619              1.269
 Vibration    11          0.726              1.577              1.171
 Vibration    12          0.767              1.468              0.959
 Vibration    13          0.782              1.430              0.896
 Vibration    14          0.797              1.391              0.838
 Vibration    15          0.838              1.291              0.706
 Vibration    16          0.850              1.262              0.671
 Vibration    17          0.881              1.192              0.596
 Vibration    18          0.921              1.106              0.513
 Vibration    19          0.936              1.076              0.487
 Vibration    20          0.957              1.034              0.451

 Optimization completed.
    -- Stationary point found.
 Normal termination of Gaussian 16 at Thu Dec 10 09:31:52 2020.

 ----------------------------------------------------------------------
 # B3LYP/6-311++G(d,p) empiricaldispersion=gd3bj scf=xqc pop=npa geom=c
 heck
 ----------------------------------------------------------------------

 --------------------------------------
 CID_13190564_JID_4391_Energie_neutraal
 --------------------------------------
 Structure from the checkpoint file:  "JID_4391.chk"
 Charge =  0 Multiplicity = 1

 SCF Done:  E(RB3LYP) =  -721.418610877     A.U. after   16 cycles
 Normal termination of Gaussian 16 at Thu Dec 10 09:34:47 2020.

 ----------------------------------------------------------------------
 # B3LYP/6-311++G(d,p) empiricaldispersion=gd3bj scf=xqc pop=npa geom=c
 heck
 ----------------------------------------------------------------------

 ------------------------------------
 CID_13190564_JID_4391_Energie_kation
 ------------------------------------
 Structure from the checkpoint file:  "JID_4391.chk"
 Charge =  1 Multiplicity = 2

 SCF Done:  E(UB3LYP) =  -721.115119109     A.U. after   25 cycles
 Normal termination of Gaussian 16 at Thu Dec 10 09:41:22 2020.
 Gaussian 16:  ES64L-G16RevA.03 25-Dec-2016

 ----------------------------------------------------------------------
 # B3LYP/6-311++G(d,p) empiricaldispersion=gd3bj scf=xqc pop=npa geom=c
 heck
 ----------------------------------------------------------------------

 -----------------------------------
 CID_13190564_JID_4391_Energie_anion
 -----------------------------------
 Structure from the checkpoint file:  "JID_4391.chk"
 Charge = -1 Multiplicity = 2

                         Standard orientation:
 ---------------------------------------------------------------------
 Center     Atomic      Atomic             Coordinates (Angstroms)
 Number     Number       Type             X           Y           Z
 ---------------------------------------------------------------------
      1          6           0       -1.643835   -1.420140   -0.161594
      2          6           0       -0.274692   -1.664039   -0.217679
      3          6           0        0.644263   -0.621338   -0.143349
      4          6           0        0.218284    0.725768   -0.014812
      5          6           0       -1.159797    0.965030    0.051102
      6          6           0       -2.054608   -0.097829   -0.022167
      7          7           0       -3.490707    0.195987    0.042586
      8          8           0       -4.273877   -0.752012   -0.025244
      9          8           0       -3.833240    1.373791    0.160934
     10          7           0        1.130035    1.761696    0.089750
     11          8           0        1.983306   -0.918530   -0.278087
     12          6           0        2.825104   -0.642257    0.858626
     13          6           0        4.165070   -0.196521    0.288061
     14          8           0        3.983156    0.850846   -0.664232
     15          1           0       -2.374856   -2.214953   -0.217596
     16          1           0        0.109887   -2.672347   -0.329045
     17          1           0       -1.543638    1.973140    0.150782
     18          1           0        2.075053    1.606466   -0.250207
     19          1           0        0.770230    2.686456   -0.101380
     20          1           0        2.383986    0.148631    1.471526
     21          1           0        2.927158   -1.550064    1.466632
     22          1           0        4.802382    0.200113    1.083159
     23          1           0        4.682596   -1.047922   -0.175403
     24          1           0        3.498419    0.441900   -1.400898
 ---------------------------------------------------------------------

 SCF Done:  E(UB3LYP) =  -721.447972982     A.U. after   24 cycles

 The electronic state is 2-A.
 Alpha  occ. eigenvalues --  -19.05336 -19.03636 -18.92920 -18.92866 -14.30417
 Alpha  occ. eigenvalues --  -14.20166 -10.14491 -10.13074 -10.08454 -10.08395
 Alpha  occ. eigenvalues --  -10.05054 -10.03943 -10.02449 -10.02361  -1.00939
 Alpha  occ. eigenvalues --   -0.96414  -0.93946  -0.83786  -0.80058  -0.71373
 Alpha  occ. eigenvalues --   -0.67231  -0.61954  -0.60085  -0.55104  -0.51351
 Alpha  occ. eigenvalues --   -0.48492  -0.45112  -0.43898  -0.42041  -0.40123
 Alpha  occ. eigenvalues --   -0.37966  -0.36544  -0.35415  -0.34131  -0.33790
 Alpha  occ. eigenvalues --   -0.33396  -0.31912  -0.29785  -0.29422  -0.28430
 Alpha  occ. eigenvalues --   -0.27056  -0.25698  -0.24899  -0.22822  -0.20819
 Alpha  occ. eigenvalues --   -0.18718  -0.18151  -0.12448  -0.11436  -0.10924
 Alpha  occ. eigenvalues --   -0.08745  -0.08296   0.03805
 Alpha virt. eigenvalues --    0.06150   0.07724   0.08583   0.09349   0.10769
 Alpha virt. eigenvalues --    0.11255   0.12286   0.12738   0.13476   0.14076
 Alpha virt. eigenvalues --    0.14591   0.15577   0.15966   0.16291   0.17079

  Beta  occ. eigenvalues --  -19.05335 -19.03628 -18.92442 -18.92346 -14.29750
  Beta  occ. eigenvalues --  -14.20175 -10.14488 -10.13038 -10.08522 -10.08134
  Beta  occ. eigenvalues --  -10.04966 -10.03999 -10.02343 -10.02169  -0.99832
  Beta  occ. eigenvalues --   -0.96373  -0.93878  -0.82839  -0.80067  -0.71131
  Beta  occ. eigenvalues --   -0.67100  -0.61522  -0.59844  -0.54822  -0.50750
  Beta  occ. eigenvalues --   -0.48351  -0.44854  -0.43779  -0.41946  -0.40020
  Beta  occ. eigenvalues --   -0.37885  -0.36095  -0.35251  -0.33859  -0.33641
  Beta  occ. eigenvalues --   -0.31593  -0.30295  -0.29667  -0.28863  -0.28178
  Beta  occ. eigenvalues --   -0.27010  -0.25442  -0.24725  -0.22660  -0.20796
  Beta  occ. eigenvalues --   -0.18365  -0.17997  -0.10536  -0.10434  -0.08877
  Beta  occ. eigenvalues --   -0.08247  -0.07391
  Beta virt. eigenvalues --    0.06083   0.07694   0.08513   0.09244   0.10677
  Beta virt. eigenvalues --    0.10867   0.11207   0.12316   0.13160   0.13429
  Beta virt. eigenvalues --    0.14034   0.14588   0.15539   0.16112   0.16997

 Mulliken charges and spin densities:
               1          2
     1  C   -0.141695   0.128398
     2  C   -0.274582  -0.018632
     3  C   -0.190169   0.209363
     4  C    0.407982  -0.073859
     5  C   -0.285139   0.199212
     6  C   -0.372564  -0.049953
     7  N   -0.250113   0.218346
     8  O   -0.208786   0.201519
     9  O   -0.209564   0.188375
    10  N   -0.386195   0.000699
    11  O   -0.212053   0.001368
    12  C   -0.219424  -0.026266
    13  C   -0.234074  -0.077781
    14  O   -0.260126   0.003844
    15  H    0.213375  -0.007548
    16  H    0.133196   0.009122
    17  H    0.209736  -0.012597
    18  H    0.243775  -0.000460
    19  H    0.244740   0.002533
    20  H    0.189565   0.006972
    21  H    0.092494   0.042404
    22  H    0.124007   0.029502
    23  H    0.122808   0.021269
    24  H    0.262806   0.004169
 Sum of Mulliken charges =  -1.00000   1.00000

 Dipole moment (field-independent basis, Debye):
    X=             13.6511    Y=             -0.7848    Z=              0.0362  Tot=             13.6737
 Quadrupole moment (field-independent basis, Debye-Ang):
   XX=           -158.1434   YY=            -91.8897   ZZ=            -87.3229
   XY=             -0.0032   XZ=              3.0000   YZ=             -1.9696

 Summary of Natural Population Analysis:

                                       Natural Population
                Natural  -----------------------------------------------
    Atom  No    Charge         Core      Valence    Rydberg      Total
 -----------------------------------------------------------------------
      C    1   -0.09320      0.99953     2.08374    0.00993     3.09320
      C    2   -0.13316      0.99953     2.12494    0.00869     3.13316
      C    3    0.16326      0.99935     1.82429    0.01310     2.83674
      C    4    0.04304      0.99947     1.94735    0.01014     2.95696
      C    5   -0.08269      0.99950     2.07375    0.00944     3.08269
      C    6    0.05826      0.99941     1.92731    0.01503     2.94174
      N    7    0.31065      0.99972     2.16343    0.02620     3.18935
      O    8   -0.19293      0.99990     3.18538    0.00765     4.19293
      O    9   -0.20135      0.99990     3.19377    0.00768     4.20135
      N   10   -0.41715      0.99971     2.90771    0.00974     3.91715
      O   11   -0.30855      0.99986     3.29696    0.01173     4.30855
      C   12   -0.02392      0.99958     2.01367    0.01067     3.02392
      C   13   -0.02078      0.99961     2.00927    0.01190     3.02078
      O   14   -0.37311      0.99990     3.36647    0.00674     4.37311
      H   15    0.11306      0.00000     0.38581    0.00113     0.38694
      H   16    0.09627      0.00000     0.40267    0.00106     0.40373
      H   17    0.11083      0.00000     0.38792    0.00125     0.38917
      H   18    0.19335      0.00000     0.30469    0.00196     0.30665
      H   19    0.18366      0.00000     0.31498    0.00136     0.31634
      H   20    0.09500      0.00000     0.40274    0.00225     0.40500
      H   21    0.08222      0.00000     0.41531    0.00247     0.41778
      H   22    0.08623      0.00000     0.41233    0.00144     0.41377
      H   23    0.07611      0.00000     0.42212    0.00177     0.42389
      H   24    0.23489      0.00000     0.26166    0.00345     0.26511
 =======================================================================
   * Total *   -0.00000     13.99497    37.82825    0.17678    52.00000

 Normal termination of Gaussian 16 at Thu Dec 10 09:47:41 2020.
