 Gaussian 16, Revision A.03,

 -----------------------------------------------------------
 # opt freq B3LYP/6-31G(d) empiricaldispersion=gd3bj scf=xqc
 -----------------------------------------------------------

 ------------------------------
 CID_64174739_JID_7403_neutraal
 ------------------------------
 Symbolic Z-matrix:
 Charge =  0 Multiplicity = 1

 SCF Done:  E(RB3LYP) =  -727.908882145     A.U. after   14 cycles
 SCF Done:  E(RB3LYP) =  -727.916049935     A.U. after   12 cycles
 SCF Done:  E(RB3LYP) =  -727.916685542     A.U. after   11 cycles
 SCF Done:  E(RB3LYP) =  -727.916810162     A.U. after   11 cycles
 SCF Done:  E(RB3LYP) =  -727.916868159     A.U. after   11 cycles
 SCF Done:  E(RB3LYP) =  -727.916900450     A.U. after   10 cycles
 SCF Done:  E(RB3LYP) =  -727.916925360     A.U. after   10 cycles
 SCF Done:  E(RB3LYP) =  -727.916931398     A.U. after    9 cycles
 SCF Done:  E(RB3LYP) =  -727.916932144     A.U. after    8 cycles
 SCF Done:  E(RB3LYP) =  -727.916932228     A.U. after    7 cycles
 SCF Done:  E(RB3LYP) =  -727.916932313     A.U. after    7 cycles
 SCF Done:  E(RB3LYP) =  -727.916932350     A.U. after    7 cycles
 SCF Done:  E(RB3LYP) =  -727.916932369     A.U. after    7 cycles
 Optimization completed.
    -- Stationary point found.
 Normal termination of Gaussian 16 at Sun Dec 13 12:26:54 2020.

 --------------------------------------------------------------------
 #N Geom=AllCheck Guess=TCheck SCRF=Check GenChk RB3LYP/6-31G(d) Freq
 --------------------------------------------------------------------

 Structure from the checkpoint file:  "JID_7403.chk"
 ------------------------------
 CID_64174739_JID_7403_neutraal
 ------------------------------
 Charge =  0 Multiplicity = 1

 SCF Done:  E(RB3LYP) =  -727.916932369     A.U. after    1 cycles

  Exact polarizability: 277.235   0.983 147.500   1.136  12.386  86.287
 Approx polarizability: 390.716   2.092 263.700  -2.492  32.368 134.031

                      1                      2                      3
                      A                      A                      A
 Frequencies --     22.3295                51.7714                68.7089
 Red. masses --      4.9226                 4.1256                 4.1606
 Frc consts  --      0.0014                 0.0065                 0.0116
 IR Inten    --      0.5932                 0.3901                 0.0201

                      4                      5                      6
                      A                      A                      A
 Frequencies --    116.6661               177.6499               184.2381
 Red. masses --      4.4866                 3.4010                 3.5834
 Frc consts  --      0.0360                 0.0632                 0.0717
 IR Inten    --      0.2205                 2.7156                 1.1841

                      7                      8                      9
                      A                      A                      A
 Frequencies --    212.2355               250.9115               281.9269
 Red. masses --      5.1862                 2.1205                 4.0606
 Frc consts  --      0.1376                 0.0787                 0.1902
 IR Inten    --      3.1586                 1.1582                 3.5861

                     10                     11                     12
                      A                      A                      A
 Frequencies --    310.6909               347.1499               362.9461
 Red. masses --      3.2644                 1.3529                 3.0770
 Frc consts  --      0.1857                 0.0961                 0.2388
 IR Inten    --      1.4444                78.4278                26.8041

                     13                     14                     15
                      A                      A                      A
 Frequencies --    399.9385               418.0199               453.3184
 Red. masses --      3.1887                 3.7400                 2.5845
 Frc consts  --      0.3005                 0.3850                 0.3129
 IR Inten    --      9.8091                 1.6329                 3.1494

                     16                     17                     18
                      A                      A                      A
 Frequencies --    458.5188               484.4002               494.0515
 Red. masses --      3.5332                 2.8961                 2.9037
 Frc consts  --      0.4377                 0.4004                 0.4176
 IR Inten    --      2.4036                 2.0457                 1.5002

                     19                     20                     21
                      A                      A                      A
 Frequencies --    544.4103               555.2476               572.5878
 Red. masses --      6.3680                 3.8520                 3.3681
 Frc consts  --      1.1120                 0.6997                 0.6506
 IR Inten    --      1.5977                 1.8017                 4.9158

                     22                     23                     24
                      A                      A                      A
 Frequencies --    623.3254               643.7173               660.0250
 Red. masses --      4.0601                 4.0304                 2.7841
 Frc consts  --      0.9294                 0.9840                 0.7146
 IR Inten    --     12.6823                 1.8476                 0.9163

                     25                     26                     27
                      A                      A                      A
 Frequencies --    773.4030               778.4702               790.0975
 Red. masses --      5.4016                 2.2928                 4.9495
 Frc consts  --      1.9036                 0.8187                 1.8204
 IR Inten    --      2.9246                 1.6087                 2.4839

                     28                     29                     30
                      A                      A                      A
 Frequencies --    797.6754               834.6988               845.2880
 Red. masses --      1.3870                 2.1973                 1.8544
 Frc consts  --      0.5200                 0.9020                 0.7806
 IR Inten    --      3.0619                 7.8210                31.1820

                     31                     32                     33
                      A                      A                      A
 Frequencies --    854.5469               882.9621               889.7477
 Red. masses --      1.7475                 1.4790                 2.3693
 Frc consts  --      0.7519                 0.6794                 1.1051
 IR Inten    --     34.3336                 5.0105                 3.4745

                     34                     35                     36
                      A                      A                      A
 Frequencies --    923.4800               941.3106               949.1795
 Red. masses --      4.1452                 2.8555                 1.3905
 Frc consts  --      2.0828                 1.4907                 0.7381
 IR Inten    --      1.1212                23.9411                 0.2537

                     37                     38                     39
                      A                      A                      A
 Frequencies --    970.2636               972.8668               985.8621
 Red. masses --      3.2511                 1.3151                 1.3128
 Frc consts  --      1.8033                 0.7334                 0.7517
 IR Inten    --      0.1352                 0.5522                 1.4820

                     40                     41                     42
                      A                      A                      A
 Frequencies --    996.2759              1012.0707              1050.0256
 Red. masses --      1.9688                 1.6978                 1.8597
 Frc consts  --      1.1513                 1.0246                 1.2081
 IR Inten    --      9.0690                 6.6506                11.6977

                     43                     44                     45
                      A                      A                      A
 Frequencies --   1062.2494              1118.2263              1135.3774
 Red. masses --      2.4508                 2.7812                 3.6121
 Frc consts  --      1.6293                 2.0490                 2.7434
 IR Inten    --      1.8635                16.0170                80.0174

                     46                     47                     48
                      A                      A                      A
 Frequencies --   1153.3456              1167.4339              1182.5842
 Red. masses --      2.0698                 1.9692                 1.2002
 Frc consts  --      1.6222                 1.5813                 0.9889
 IR Inten    --     28.2605                80.5474                 2.7246

                     49                     50                     51
                      A                      A                      A
 Frequencies --   1190.6341              1212.2307              1222.3198
 Red. masses --      2.3214                 1.4359                 1.8453
 Frc consts  --      1.9389                 1.2432                 1.6244
 IR Inten    --      8.9017                 9.9218                68.2854

                     52                     53                     54
                      A                      A                      A
 Frequencies --   1259.7839              1277.8882              1293.4500
 Red. masses --      1.4469                 1.7821                 1.8294
 Frc consts  --      1.3529                 1.7146                 1.8033
 IR Inten    --      1.0265                 6.6568                24.5923

                     55                     56                     57
                      A                      A                      A
 Frequencies --   1306.4774              1332.1788              1342.9795
 Red. masses --      1.2399                 1.2993                 1.3129
 Frc consts  --      1.2469                 1.3586                 1.3951
 IR Inten    --      3.8884                14.3858                 6.9748

                     58                     59                     60
                      A                      A                      A
 Frequencies --   1344.0545              1361.0737              1373.4659
 Red. masses --      2.4556                 1.2314                 1.7672
 Frc consts  --      2.6137                 1.3440                 1.9641
 IR Inten    --    152.0971                14.1360                 0.5872

                     61                     62                     63
                      A                      A                      A
 Frequencies --   1395.3085              1399.5096              1412.9832
 Red. masses --      1.6172                 1.4286                 4.2022
 Frc consts  --      1.8551                 1.6485                 4.9431
 IR Inten    --     36.6427                 2.1752                 1.1167

                     64                     65                     66
                      A                      A                      A
 Frequencies --   1415.3027              1425.2131              1441.6917
 Red. masses --      1.9964                 1.5180                 1.3993
 Frc consts  --      2.3561                 1.8167                 1.7136
 IR Inten    --     25.2957                 4.0571                11.5179

                     67                     68                     69
                      A                      A                      A
 Frequencies --   1478.4703              1494.6917              1509.5538
 Red. masses --      2.3727                 2.0753                 1.0938
 Frc consts  --      3.0558                 2.7317                 1.4685
 IR Inten    --     62.9588                 0.1738                 4.4733

                     70                     71                     72
                      A                      A                      A
 Frequencies --   1519.6195              1521.9894              1536.5236
 Red. masses --      1.0974                 1.0947                 1.1021
 Frc consts  --      1.4930                 1.4941                 1.5330
 IR Inten    --      4.9296                 0.5311                 3.0843

                     73                     74                     75
                      A                      A                      A
 Frequencies --   1555.4498              1570.6358              1616.6364
 Red. masses --      2.7838                 2.5244                 5.8836
 Frc consts  --      3.9682                 3.6691                 9.0597
 IR Inten    --    221.2892                22.9349                 3.8822

                     76                     77                     78
                      A                      A                      A
 Frequencies --   1657.4456              1685.6299              2975.3776
 Red. masses --      5.4705                 5.9946                 1.0723
 Frc consts  --      8.8544                10.0354                 5.5929
 IR Inten    --     29.8688               269.6089                45.3419

                     79                     80                     81
                      A                      A                      A
 Frequencies --   2987.1624              3014.4572              3031.7879
 Red. masses --      1.0715                 1.0691                 1.0808
 Frc consts  --      5.6330                 5.7237                 5.8530
 IR Inten    --     55.2201                15.3265                43.8915

                     82                     83                     84
                      A                      A                      A
 Frequencies --   3050.5588              3080.3093              3094.7119
 Red. masses --      1.0612                 1.0953                 1.1044
 Frc consts  --      5.8184                 6.1232                 6.2321
 IR Inten    --     26.8041                38.5568                51.5889

                     85                     86                     87
                      A                      A                      A
 Frequencies --   3114.0685              3121.8760              3161.3102
 Red. masses --      1.0927                 1.0936                 1.0890
 Frc consts  --      6.2434                 6.2797                 6.4124
 IR Inten    --     54.6641                28.4830                45.6919

                     88                     89                     90
                      A                      A                      A
 Frequencies --   3162.2246              3180.8217              3208.4657
 Red. masses --      1.0892                 1.0887                 1.0960
 Frc consts  --      6.4171                 6.4899                 6.6477
 IR Inten    --      5.9672                16.4267                34.1124

                     91                     92                     93
                      A                      A                      A
 Frequencies --   3209.8068              3226.7536              3602.7483
 Red. masses --      1.0872                 1.0941                 1.0761
 Frc consts  --      6.5997                 6.7119                 8.2293
 IR Inten    --      4.9754                14.4388                21.4035

 - Thermochemistry -
 -------------------
 Temperature   298.150 Kelvin.  Pressure   1.00000 Atm.
 Atom     1 has atomic number  6 and mass  12.00000

 Molecular mass:   228.12626 amu.
 Principal axes and moments of inertia in atomic units:
                           1         2         3
     Eigenvalues --  1044.352679652.52949**********
           X            0.99999  -0.00155   0.00277
           Y            0.00154   0.99999   0.00524
           Z           -0.00278  -0.00523   0.99998
 This molecule is an asymmetric top.
 Rotational symmetry number  1.
 Warning -- assumption of classical behavior for rotation
           may cause significant error
 Rotational temperatures (Kelvin)      0.08294     0.00897     0.00839
 Rotational constants (GHZ):           1.72810     0.18697     0.17487
 Zero-point vibrational energy     736528.0 (Joules/Mol)
                                  176.03441 (Kcal/Mol)
 Warning -- explicit consideration of  21 degrees of freedom as
           vibrations may cause significant error
 Vibrational temperatures:     32.13    74.49    98.86   167.86   255.60
          (Kelvin)            265.08   305.36   361.01   405.63   447.01
                              499.47   522.20   575.42   601.44   652.22
                              659.71   696.94   710.83   783.28   798.88
                              823.83   896.83   926.17   949.63  1112.75
                             1120.04  1136.77  1147.68  1200.95  1216.18
                             1229.50  1270.39  1280.15  1328.68  1354.34
                             1365.66  1395.99  1399.74  1418.44  1433.42
                             1456.14  1510.75  1528.34  1608.88  1633.55
                             1659.41  1679.68  1701.47  1713.06  1744.13
                             1758.65  1812.55  1838.60  1860.99  1879.73
                             1916.71  1932.25  1933.79  1958.28  1976.11
                             2007.54  2013.58  2032.97  2036.30  2050.56
                             2074.27  2127.19  2150.53  2171.91  2186.39
                             2189.80  2210.71  2237.95  2259.79  2325.98
                             2384.69  2425.25  4280.90  4297.86  4337.13
                             4362.07  4389.07  4431.88  4452.60  4480.45
                             4491.68  4548.42  4549.74  4576.49  4616.27
                             4618.20  4642.58  5183.55

 Zero-point correction=                           0.280529 (Hartree/Particle)
 Thermal correction to Energy=                    0.294279
 Thermal correction to Enthalpy=                  0.295223
 Thermal correction to Gibbs Free Energy=         0.239024
 Sum of electronic and zero-point Energies=           -727.636404
 Sum of electronic and thermal Energies=              -727.622653
 Sum of electronic and thermal Enthalpies=            -727.621709
 Sum of electronic and thermal Free Energies=         -727.677909

                     E (Thermal)             CV                S
                      KCal/Mol        Cal/Mol-Kelvin    Cal/Mol-Kelvin
 Total                  184.663             55.746            118.282
 Electronic               0.000              0.000              0.000
 Translational            0.889              2.981             42.176
 Rotational               0.889              2.981             33.009
 Vibrational            182.886             49.785             43.097
 Vibration     1          0.593              1.985              6.415
 Vibration     2          0.596              1.977              4.749
 Vibration     3          0.598              1.969              4.190
 Vibration     4          0.608              1.936              3.155
 Vibration     5          0.628              1.870              2.353
 Vibration     6          0.631              1.861              2.285
 Vibration     7          0.643              1.822              2.024
 Vibration     8          0.663              1.761              1.724
 Vibration     9          0.681              1.707              1.522
 Vibration    10          0.700              1.653              1.359
 Vibration    11          0.725              1.581              1.179
 Vibration    12          0.737              1.549              1.109
 Vibration    13          0.766              1.470              0.963
 Vibration    14          0.781              1.431              0.899
 Vibration    15          0.812              1.354              0.786
 Vibration    16          0.817              1.342              0.770
 Vibration    17          0.841              1.285              0.698
 Vibration    18          0.850              1.263              0.673
 Vibration    19          0.900              1.152              0.556
 Vibration    20          0.911              1.128              0.533
 Vibration    21          0.929              1.091              0.499

 Optimization completed.
    -- Stationary point found.
 Normal termination of Gaussian 16 at Sun Dec 13 12:37:33 2020.

 ----------------------------------------------------------------------
 # B3LYP/6-311++G(d,p) empiricaldispersion=gd3bj scf=xqc pop=npa geom=c
 heck
 ----------------------------------------------------------------------

 --------------------------------------
 CID_64174739_JID_7403_Energie_neutraal
 --------------------------------------
 Structure from the checkpoint file:  "JID_7403.chk"
 Charge =  0 Multiplicity = 1

 SCF Done:  E(RB3LYP) =  -728.109628536     A.U. after   14 cycles
 Normal termination of Gaussian 16 at Sun Dec 13 12:42:48 2020.

 ----------------------------------------------------------------------
 # B3LYP/6-311++G(d,p) empiricaldispersion=gd3bj scf=xqc pop=npa geom=c
 heck
 ----------------------------------------------------------------------

 ------------------------------------
 CID_64174739_JID_7403_Energie_kation
 ------------------------------------
 Structure from the checkpoint file:  "JID_7403.chk"
 Charge =  1 Multiplicity = 2

 SCF Done:  E(UB3LYP) =  -727.845804392     A.U. after   24 cycles
 Normal termination of Gaussian 16 at Sun Dec 13 12:54:55 2020.
 Gaussian 16:  ES64L-G16RevA.03 25-Dec-2016

 ----------------------------------------------------------------------
 # B3LYP/6-311++G(d,p) empiricaldispersion=gd3bj scf=xqc pop=npa geom=c
 heck
 ----------------------------------------------------------------------

 -----------------------------------
 CID_64174739_JID_7403_Energie_anion
 -----------------------------------
 Structure from the checkpoint file:  "JID_7403.chk"
 Charge = -1 Multiplicity = 2

                         Standard orientation:
 ---------------------------------------------------------------------
 Center     Atomic      Atomic             Coordinates (Angstroms)
 Number     Number       Type             X           Y           Z
 ---------------------------------------------------------------------
      1          6           0        4.647875   -0.590631    0.930025
      2          6           0        3.314917   -1.266714    0.583014
      3          6           0        2.276139   -0.216681    0.173474
      4          6           0        2.872580    0.676592   -0.929342
      5          8           0        4.074378    1.297955   -0.504626
      6          6           0        5.081877    0.341899   -0.201575
      7          7           0        1.053630   -0.860203   -0.278805
      8          6           0       -0.217273   -0.333994   -0.114043
      9          6           0       -1.337335   -1.141850   -0.273424
     10          6           0       -2.641710   -0.621971   -0.136733
     11          6           0       -2.825809    0.762693    0.179650
     12          6           0       -1.671135    1.569370    0.340098
     13          6           0       -0.409259    1.046841    0.196854
     14          7           0       -4.053525    1.334938    0.330684
     15          6           0       -5.111891    0.564574    0.176512
     16          6           0       -5.045851   -0.817175   -0.135533
     17          6           0       -3.814837   -1.406917   -0.290953
     18          1           0        4.534688   -0.002348    1.849058
     19          1           0        5.425118   -1.342143    1.114885
     20          1           0        3.465255   -1.958485   -0.260244
     21          1           0        2.940768   -1.858228    1.427279
     22          1           0        2.065819    0.415239    1.047654
     23          1           0        3.044736    0.057542   -1.826540
     24          1           0        2.183617    1.480276   -1.201846
     25          1           0        5.971251    0.915467    0.074154
     26          1           0        5.319815   -0.248204   -1.104109
     27          1           0        1.091761   -1.868074   -0.341551
     28          1           0       -1.213017   -2.197399   -0.508895
     29          1           0       -1.818908    2.618120    0.576882
     30          1           0        0.451175    1.695326    0.315696
     31          1           0       -6.082541    1.042845    0.301773
     32          1           0       -5.962028   -1.389292   -0.247640
     33          1           0       -3.723000   -2.463653   -0.530851
 ---------------------------------------------------------------------

 SCF Done:  E(UB3LYP) =  -728.111190114     A.U. after   33 cycles
 SCF Done:  E(UB3LYP) =  -728.111190114     a.u. after    1 cycles

 The electronic state is 2-A.
 Alpha  occ. eigenvalues --  -19.03682 -14.21528 -14.15834 -10.12894 -10.12010
 Alpha  occ. eigenvalues --  -10.11295 -10.09219 -10.08553 -10.08401 -10.06606
 Alpha  occ. eigenvalues --  -10.06477 -10.05481 -10.04152 -10.04066 -10.04045
 Alpha  occ. eigenvalues --  -10.03609 -10.03385  -0.95189  -0.83246  -0.80274
 Alpha  occ. eigenvalues --   -0.72112  -0.69987  -0.67050  -0.66681  -0.61376
 Alpha  occ. eigenvalues --   -0.60235  -0.56259  -0.54494  -0.51647  -0.49040
 Alpha  occ. eigenvalues --   -0.48563  -0.47106  -0.41632  -0.41508  -0.39809
 Alpha  occ. eigenvalues --   -0.39304  -0.39167  -0.36498  -0.36217  -0.34267
 Alpha  occ. eigenvalues --   -0.32877  -0.31519  -0.30822  -0.30100  -0.29779
 Alpha  occ. eigenvalues --   -0.29000  -0.28752  -0.27751  -0.26983  -0.25895
 Alpha  occ. eigenvalues --   -0.25102  -0.24302  -0.23338  -0.22148  -0.21792
 Alpha  occ. eigenvalues --   -0.18046  -0.17659  -0.16117  -0.12133  -0.11668
 Alpha  occ. eigenvalues --   -0.08013   0.04006
 Alpha virt. eigenvalues --    0.05213   0.07352   0.07756   0.08223   0.08686
 Alpha virt. eigenvalues --    0.09412   0.10303   0.10580   0.10952   0.11066
 Alpha virt. eigenvalues --    0.11501   0.11593   0.12560   0.12723   0.13117

  Beta  occ. eigenvalues --  -19.03681 -14.21517 -14.15495 -10.12877 -10.12007
  Beta  occ. eigenvalues --  -10.11295 -10.09207 -10.08538 -10.08382 -10.06643
  Beta  occ. eigenvalues --  -10.06454 -10.05536 -10.04070 -10.03944 -10.03792
  Beta  occ. eigenvalues --  -10.03480 -10.03199  -0.95183  -0.83201  -0.79853
  Beta  occ. eigenvalues --   -0.71971  -0.69861  -0.66829  -0.66410  -0.61110
  Beta  occ. eigenvalues --   -0.60013  -0.56226  -0.54427  -0.51231  -0.48973
  Beta  occ. eigenvalues --   -0.48413  -0.46915  -0.41555  -0.41374  -0.39729
  Beta  occ. eigenvalues --   -0.39178  -0.39110  -0.36402  -0.36177  -0.34152
  Beta  occ. eigenvalues --   -0.32796  -0.31480  -0.30714  -0.30036  -0.29736
  Beta  occ. eigenvalues --   -0.28859  -0.28615  -0.27205  -0.26825  -0.25851
  Beta  occ. eigenvalues --   -0.24979  -0.24107  -0.23004  -0.22056  -0.21658
  Beta  occ. eigenvalues --   -0.17697  -0.16557  -0.15738  -0.11778  -0.10629
  Beta  occ. eigenvalues --   -0.07230
  Beta virt. eigenvalues --    0.06148   0.07530   0.07891   0.08294   0.08425
  Beta virt. eigenvalues --    0.08942   0.09457   0.10377   0.10718   0.10936
  Beta virt. eigenvalues --    0.11183   0.11534   0.11766   0.12699   0.13182

 Mulliken charges and spin densities:
               1          2
     1  C   -0.052596  -0.313761
     2  C   -0.263288   0.064834
     3  C   -0.163795  -0.118428
     4  C   -0.178534  -0.174607
     5  O   -0.139617   0.025350
     6  C    0.330047  -0.616342
     7  N    0.137111  -0.006219
     8  C    0.139909  -0.021584
     9  C   -0.085147   0.082789
    10  C    1.766996  -0.030959
    11  C   -2.052542  -0.046700
    12  C   -0.671598   0.138002
    13  C    0.090224   0.090469
    14  N   -0.020045   0.147153
    15  C   -0.002372   0.026095
    16  C   -0.214886   0.094947
    17  C   -0.458022   0.135686
    18  H    0.223268  -0.091898
    19  H   -0.629165   0.810987
    20  H   -0.008517   0.144495
    21  H    0.005045   0.172253
    22  H    0.208083  -0.005146
    23  H    0.109294   0.040227
    24  H    0.183741   0.001741
    25  H   -0.149379   0.334146
    26  H    0.011408   0.095560
    27  H    0.241846   0.033181
    28  H    0.038047   0.024903
    29  H    0.149442  -0.010369
    30  H    0.109072  -0.003807
    31  H    0.142074  -0.003582
    32  H    0.124566  -0.003989
    33  H    0.079326  -0.015426
 Sum of Mulliken charges =  -1.00000   1.00000

 Dipole moment (field-independent basis, Debye):
    X=              1.5584    Y=             -1.3470    Z=             -0.6288  Tot=              2.1537
 Quadrupole moment (field-independent basis, Debye-Ang):
   XX=           -206.8348   YY=           -124.7026   ZZ=           -117.8080
   XY=             14.0070   XZ=              0.0666   YZ=              2.6138

 Summary of Natural Population Analysis:

                                       Natural Population
                Natural  -----------------------------------------------
    Atom  No    Charge         Core      Valence    Rydberg      Total
 -----------------------------------------------------------------------
      C    1   -0.20469      0.99963     2.19584    0.00922     3.20469
      C    2   -0.19408      0.99961     2.18395    0.01052     3.19408
      C    3   -0.02334      0.99958     2.01227    0.01149     3.02334
      C    4   -0.01162      0.99956     1.99887    0.01320     3.01162
      O    5   -0.30033      0.99989     3.29178    0.00865     4.30033
      C    6   -0.01071      0.99958     1.99684    0.01429     3.01071
      N    7   -0.31688      0.99966     2.80689    0.01033     3.81688
      C    8    0.09328      0.99950     1.89718    0.01004     2.90672
      C    9   -0.10687      0.99951     2.09898    0.00838     3.10687
      C   10   -0.05817      0.99952     2.04578    0.01287     3.05817
      C   11    0.06183      0.99948     1.92533    0.01337     2.93817
      C   12   -0.05204      0.99954     2.04326    0.00924     3.05204
      C   13   -0.10895      0.99954     2.10251    0.00691     3.10895
      N   14   -0.18839      0.99968     2.67630    0.01241     3.68839
      C   15    0.01688      0.99962     1.96711    0.01639     2.98312
      C   16   -0.13265      0.99961     2.11907    0.01398     3.13265
      C   17   -0.00671      0.99954     2.00256    0.00461     3.00671
      H   18    0.09627      0.00000     0.40261    0.00112     0.40373
      H   19    0.10379      0.00000     0.39412    0.00209     0.39621
      H   20    0.09463      0.00000     0.40388    0.00150     0.40537
      H   21    0.10301      0.00000     0.39598    0.00101     0.39699
      H   22    0.09384      0.00000     0.40364    0.00252     0.40616
      H   23    0.07676      0.00000     0.42184    0.00140     0.42324
      H   24    0.09648      0.00000     0.40251    0.00101     0.40352
      H   25    0.09122      0.00000     0.40762    0.00117     0.40878
      H   26    0.07629      0.00000     0.42231    0.00141     0.42371
      H   27    0.18371      0.00000     0.31419    0.00211     0.31629
      H   28    0.08662      0.00000     0.41071    0.00267     0.41338
      H   29    0.09572      0.00000     0.40224    0.00204     0.40428
      H   30    0.09303      0.00000     0.40569    0.00128     0.40697
      H   31    0.07767      0.00000     0.42094    0.00139     0.42233
      H   32    0.09083      0.00000     0.40746    0.00171     0.40917
      H   33    0.08368      0.00000     0.41455    0.00177     0.41632
 =======================================================================
   * Total *    0.00008     16.99305    43.79482    0.21205    60.99992

 Normal termination of Gaussian 16 at Sun Dec 13 13:12:35 2020.
