 Gaussian 16, Revision A.03,

 -----------------------------------------------------------
 # opt freq B3LYP/6-31G(d) empiricaldispersion=gd3bj scf=xqc
 -----------------------------------------------------------

 -------------------------------
 CID_151703936_JID_6371_neutraal
 -------------------------------
 Symbolic Z-matrix:
 Charge =  0 Multiplicity = 1

 SCF Done:  E(RB3LYP) =  -683.488863372     A.U. after   16 cycles
 SCF Done:  E(RB3LYP) =  -683.515173427     A.U. after   14 cycles
 SCF Done:  E(RB3LYP) =  -683.516210093     A.U. after   13 cycles
 SCF Done:  E(RB3LYP) =  -683.516392908     A.U. after   12 cycles
 SCF Done:  E(RB3LYP) =  -683.516449775     A.U. after   12 cycles
 SCF Done:  E(RB3LYP) =  -683.516474555     A.U. after   11 cycles
 SCF Done:  E(RB3LYP) =  -683.516487770     A.U. after   11 cycles
 SCF Done:  E(RB3LYP) =  -683.516494403     A.U. after   10 cycles
 SCF Done:  E(RB3LYP) =  -683.516497470     A.U. after   10 cycles
 SCF Done:  E(RB3LYP) =  -683.516498616     A.U. after   10 cycles
 SCF Done:  E(RB3LYP) =  -683.516498856     A.U. after    8 cycles
 SCF Done:  E(RB3LYP) =  -683.516498895     A.U. after    7 cycles
 Optimization completed.
    -- Stationary point found.
 Normal termination of Gaussian 16 at Thu Dec 10 22:21:31 2020.

 --------------------------------------------------------------------
 #N Geom=AllCheck Guess=TCheck SCRF=Check GenChk RB3LYP/6-31G(d) Freq
 --------------------------------------------------------------------

 Structure from the checkpoint file:  "JID_6371.chk"
 -------------------------------
 CID_151703936_JID_6371_neutraal
 -------------------------------
 Charge =  0 Multiplicity = 1

 SCF Done:  E(RB3LYP) =  -683.516498895     A.U. after    1 cycles

  Exact polarizability: 138.794  -6.338 151.844  -1.657  -7.942 132.578
 Approx polarizability: 203.466  -8.092 253.467  -2.136 -25.193 237.772

                      1                      2                      3
                      A                      A                      A
 Frequencies --     27.4246                47.2277                91.8358
 Red. masses --      3.8215                 8.2337                 3.9722
 Frc consts  --      0.0017                 0.0108                 0.0197
 IR Inten    --      0.4861                 1.7576                 0.4019

                      4                      5                      6
                      A                      A                      A
 Frequencies --    133.5928               142.4378               152.0922
 Red. masses --      5.4837                 5.3753                 4.6007
 Frc consts  --      0.0577                 0.0643                 0.0627
 IR Inten    --      3.0005                 3.2696                 1.4297

                      7                      8                      9
                      A                      A                      A
 Frequencies --    204.4346               251.9675               264.0989
 Red. masses --      1.0828                 4.3149                 1.6469
 Frc consts  --      0.0267                 0.1614                 0.0677
 IR Inten    --      1.8983                 2.2973                18.7062

                     10                     11                     12
                      A                      A                      A
 Frequencies --    286.8181               302.6991               324.6555
 Red. masses --      2.2038                 2.5832                 3.1433
 Frc consts  --      0.1068                 0.1395                 0.1952
 IR Inten    --     10.3668                 6.8533                 6.6384

                     13                     14                     15
                      A                      A                      A
 Frequencies --    333.5563               388.6738               399.3851
 Red. masses --      3.6201                 2.6238                 5.7325
 Frc consts  --      0.2373                 0.2335                 0.5387
 IR Inten    --      6.5151                 0.1638                 0.4374

                     16                     17                     18
                      A                      A                      A
 Frequencies --    423.5564               472.6427               481.8357
 Red. masses --      3.6162                 3.9961                 4.3761
 Frc consts  --      0.3822                 0.5260                 0.5986
 IR Inten    --      1.1073                 7.1567                 6.7362

                     19                     20                     21
                      A                      A                      A
 Frequencies --    503.6576               554.4116               577.1541
 Red. masses --      4.8670                 4.8770                 5.5862
 Frc consts  --      0.7274                 0.8832                 1.0964
 IR Inten    --      0.8097                 8.8894                 2.3548

                     22                     23                     24
                      A                      A                      A
 Frequencies --    615.0038               660.4043               686.1439
 Red. masses --      3.4997                 3.9650                 6.8321
 Frc consts  --      0.7799                 1.0189                 1.8951
 IR Inten    --     17.7069                 4.6665                 4.8132

                     25                     26                     27
                      A                      A                      A
 Frequencies --    690.5637               715.7562               767.3424
 Red. masses --      7.2094                 4.4841                 3.4735
 Frc consts  --      2.0256                 1.3535                 1.2050
 IR Inten    --      5.8920                 3.4931                 1.2341

                     28                     29                     30
                      A                      A                      A
 Frequencies --    806.6793               839.3819               886.3270
 Red. masses --      2.3687                 1.5527                 1.5613
 Frc consts  --      0.9082                 0.6445                 0.7226
 IR Inten    --     47.7752                12.1393                48.1168

                     31                     32                     33
                      A                      A                      A
 Frequencies --    899.2577               920.2873               943.3196
 Red. masses --      1.7803                 1.9801                 1.4700
 Frc consts  --      0.8482                 0.9881                 0.7707
 IR Inten    --     27.4689                97.6830                16.3707

                     34                     35                     36
                      A                      A                      A
 Frequencies --    980.6215               991.5199               997.3486
 Red. masses --      1.3099                 2.1165                 1.4382
 Frc consts  --      0.7422                 1.2259                 0.8429
 IR Inten    --      0.8812                14.4125                 0.4444

                     37                     38                     39
                      A                      A                      A
 Frequencies --   1013.4581              1017.5946              1042.4302
 Red. masses --      1.9602                 7.3601                 2.0399
 Frc consts  --      1.1862                 4.4904                 1.3060
 IR Inten    --      6.5191                 3.5162                10.6018

                     40                     41                     42
                      A                      A                      A
 Frequencies --   1075.5143              1109.5651              1127.0894
 Red. masses --      2.0580                 1.9639                 1.9050
 Frc consts  --      1.4026                 1.4246                 1.4258
 IR Inten    --      2.0283                 3.0941                 1.2189

                     43                     44                     45
                      A                      A                      A
 Frequencies --   1156.0271              1170.7323              1193.5725
 Red. masses --      2.1268                 2.9553                 3.1041
 Frc consts  --      1.6746                 2.3866                 2.6055
 IR Inten    --      9.7874                 8.2754                12.1986

                     46                     47                     48
                      A                      A                      A
 Frequencies --   1232.8778              1236.1537              1264.8642
 Red. masses --      2.7785                 2.5334                 1.2568
 Frc consts  --      2.4883                 2.2809                 1.1847
 IR Inten    --     14.0806                17.6886                 2.4218

                     49                     50                     51
                      A                      A                      A
 Frequencies --   1276.9057              1302.7728              1332.7351
 Red. masses --      1.6953                 8.3827                 1.7930
 Frc consts  --      1.6286                 8.3824                 1.8763
 IR Inten    --     12.8459                 5.0118                 3.9848

                     52                     53                     54
                      A                      A                      A
 Frequencies --   1363.9352              1378.0749              1404.2777
 Red. masses --      1.4963                 1.4584                 1.9630
 Frc consts  --      1.6401                 1.6318                 2.2807
 IR Inten    --     10.1882                 3.0432                 5.0015

                     55                     56                     57
                      A                      A                      A
 Frequencies --   1423.8701              1458.5652              1498.8657
 Red. masses --      1.3892                 2.0007                 1.0890
 Frc consts  --      1.6594                 2.5078                 1.4414
 IR Inten    --     15.5368                21.2134                 6.0065

                     58                     59                     60
                      A                      A                      A
 Frequencies --   1500.1315              1503.1904              1543.5207
 Red. masses --      1.0624                 1.0714                 2.0543
 Frc consts  --      1.4086                 1.4264                 2.8837
 IR Inten    --     17.3001                15.5535                 4.0825

                     61                     62                     63
                      A                      A                      A
 Frequencies --   1615.5023              1637.5310              1650.6008
 Red. masses --      7.0525                 6.4958                 5.2385
 Frc consts  --     10.8444                10.2627                 8.4089
 IR Inten    --     17.3517                77.3752                57.5272

                     64                     65                     66
                      A                      A                      A
 Frequencies --   1696.1989              1701.4366              2335.4754
 Red. masses --      6.9218                 1.0980                12.6684
 Frc consts  --     11.7334                 1.8727                40.7119
 IR Inten    --     74.8059                29.2334                39.1341

                     67                     68                     69
                      A                      A                      A
 Frequencies --   3032.8638              3041.3458              3106.5964
 Red. masses --      1.0669                 1.0458                 1.0951
 Frc consts  --      5.7818                 5.6995                 6.2270
 IR Inten    --     10.3074                10.6435                 5.7894

                     70                     71                     72
                      A                      A                      A
 Frequencies --   3108.4393              3173.0983              3174.2795
 Red. masses --      1.0897                 1.1018                 1.0872
 Frc consts  --      6.2037                 6.5362                 6.4543
 IR Inten    --      7.4242                 6.7580                21.1042

                     73                     74                     75
                      A                      A                      A
 Frequencies --   3177.4244              3198.8577              3216.8304
 Red. masses --      1.0907                 1.0934                 1.0927
 Frc consts  --      6.4877                 6.5918                 6.6620
 IR Inten    --     23.4410                17.9645                11.2511

                     76                     77                     78
                      A                      A                      A
 Frequencies --   3226.4065              3479.0208              3564.7540
 Red. masses --      1.0920                 1.0496                 1.0932
 Frc consts  --      6.6974                 7.4853                 8.1845
 IR Inten    --      3.9723                 0.8399                 1.5358

 - Thermochemistry -
 -------------------
 Temperature   298.150 Kelvin.  Pressure   1.00000 Atm.
 Atom     1 has atomic number  6 and mass  12.00000

 Molecular mass:   212.10620 amu.
 Principal axes and moments of inertia in atomic units:
                           1         2         3
     Eigenvalues --  2699.023483713.052384784.97096
           X            0.99957   0.02895  -0.00490
           Y           -0.02895   0.99958  -0.00139
           Z            0.00486   0.00153   0.99999
 This molecule is an asymmetric top.
 Rotational symmetry number  1.
 Warning -- assumption of classical behavior for rotation
           may cause significant error
 Rotational temperatures (Kelvin)      0.03209     0.02333     0.01810
 Rotational constants (GHZ):           0.66866     0.48605     0.37717
 Zero-point vibrational energy     589325.3 (Joules/Mol)
                                  140.85213 (Kcal/Mol)
 Warning -- explicit consideration of  22 degrees of freedom as
           vibrations may cause significant error
 Vibrational temperatures:     39.46    67.95   132.13   192.21   204.94
          (Kelvin)            218.83   294.14   362.53   379.98   412.67
                              435.52   467.11   479.91   559.21   574.63
                              609.40   680.03   693.25   724.65   797.67
                              830.40   884.85   950.17   987.21   993.57
                             1029.81  1104.03  1160.63  1207.68  1275.23
                             1293.83  1324.09  1357.23  1410.90  1426.58
                             1434.96  1458.14  1464.09  1499.82  1547.43
                             1596.42  1621.63  1663.27  1684.42  1717.28
                             1773.84  1778.55  1819.86  1837.18  1874.40
                             1917.51  1962.40  1982.74  2020.44  2048.63
                             2098.55  2156.53  2158.35  2162.76  2220.78
                             2324.35  2356.04  2374.85  2440.45  2447.99
                             3360.23  4363.61  4375.82  4469.70  4472.35
                             4565.38  4567.08  4571.61  4602.44  4628.30
                             4642.08  5005.54  5128.89

 Zero-point correction=                           0.224462 (Hartree/Particle)
 Thermal correction to Energy=                    0.238399
 Thermal correction to Enthalpy=                  0.239343
 Thermal correction to Gibbs Free Energy=         0.183291
 Sum of electronic and zero-point Energies=           -683.292037
 Sum of electronic and thermal Energies=              -683.278100
 Sum of electronic and thermal Enthalpies=            -683.277156
 Sum of electronic and thermal Free Energies=         -683.333208

                     E (Thermal)             CV                S
                      KCal/Mol        Cal/Mol-Kelvin    Cal/Mol-Kelvin
 Total                  149.598             53.982            117.972
 Electronic               0.000              0.000              0.000
 Translational            0.889              2.981             41.959
 Rotational               0.889              2.981             32.239
 Vibrational            147.820             48.021             43.774
 Vibration     1          0.593              1.984              6.008
 Vibration     2          0.595              1.979              4.930
 Vibration     3          0.602              1.955              3.621
 Vibration     4          0.613              1.920              2.894
 Vibration     5          0.616              1.911              2.771
 Vibration     6          0.619              1.900              2.646
 Vibration     7          0.640              1.834              2.093
 Vibration     8          0.664              1.759              1.717
 Vibration     9          0.671              1.739              1.635
 Vibration    10          0.684              1.698              1.493
 Vibration    11          0.694              1.669              1.402
 Vibration    12          0.709              1.626              1.287
 Vibration    13          0.715              1.608              1.243
 Vibration    14          0.757              1.494              1.005
 Vibration    15          0.765              1.471              0.965
 Vibration    16          0.786              1.419              0.880
 Vibration    17          0.830              1.311              0.730
 Vibration    18          0.838              1.290              0.705
 Vibration    19          0.859              1.242              0.649
 Vibration    20          0.910              1.130              0.535
 Vibration    21          0.934              1.081              0.491
 Vibration    22          0.975              1.000              0.425

 Optimization completed.
    -- Stationary point found.
 Normal termination of Gaussian 16 at Thu Dec 10 22:31:56 2020.

 ----------------------------------------------------------------------
 # B3LYP/6-311++G(d,p) empiricaldispersion=gd3bj scf=xqc pop=npa geom=c
 heck
 ----------------------------------------------------------------------

 ---------------------------------------
 CID_151703936_JID_6371_Energie_neutraal
 ---------------------------------------
 Structure from the checkpoint file:  "JID_6371.chk"
 Charge =  0 Multiplicity = 1

 SCF Done:  E(RB3LYP) =  -683.701126498     A.U. after   16 cycles
 Normal termination of Gaussian 16 at Thu Dec 10 22:36:39 2020.

 ----------------------------------------------------------------------
 # B3LYP/6-311++G(d,p) empiricaldispersion=gd3bj scf=xqc pop=npa geom=c
 heck
 ----------------------------------------------------------------------

 -------------------------------------
 CID_151703936_JID_6371_Energie_kation
 -------------------------------------
 Structure from the checkpoint file:  "JID_6371.chk"
 Charge =  1 Multiplicity = 2

 SCF Done:  E(UB3LYP) =  -683.377896647     A.U. after   33 cycles
 SCF Done:  E(UB3LYP) =  -683.377896647     a.u. after    1 cycles
 Normal termination of Gaussian 16 at Thu Dec 10 22:50:32 2020.
 Gaussian 16:  ES64L-G16RevA.03 25-Dec-2016

 ----------------------------------------------------------------------
 # B3LYP/6-311++G(d,p) empiricaldispersion=gd3bj scf=xqc pop=npa geom=c
 heck
 ----------------------------------------------------------------------

 ------------------------------------
 CID_151703936_JID_6371_Energie_anion
 ------------------------------------
 Structure from the checkpoint file:  "JID_6371.chk"
 Charge = -1 Multiplicity = 2

                         Standard orientation:
 ---------------------------------------------------------------------
 Center     Atomic      Atomic             Coordinates (Angstroms)
 Number     Number       Type             X           Y           Z
 ---------------------------------------------------------------------
      1          6           0        0.346664    3.144120   -0.489795
      2          6           0        0.789665    1.718600   -0.394614
      3          7           0        1.605151    1.256219   -1.277480
      4          6           0        2.035364   -0.068851   -1.174728
      5          6           0        1.954152   -0.786218   -0.032362
      6          6           0        1.293757   -0.156463    1.169217
      7          6           0        0.205049    0.844195    0.730479
      8          6           0       -1.031893    0.083684    0.209886
      9          6           0       -1.883000   -0.550538    1.122856
     10          6           0       -2.996281   -1.244579    0.656430
     11          7           0       -3.323322   -1.344724   -0.638465
     12          6           0       -2.508649   -0.738629   -1.507233
     13          6           0       -1.365191   -0.024706   -1.142195
     14          7           0       -0.089103    1.696840    1.893127
     15          6           0        2.504764   -2.093128    0.069619
     16          7           0        2.940573   -3.167143    0.185818
     17          1           0        0.809727    3.618540   -1.356116
     18          1           0        0.611411    3.683931    0.425535
     19          1           0       -0.746539    3.198080   -0.589658
     20          1           0        2.494950   -0.476036   -2.069677
     21          1           0        2.040744    0.387491    1.765570
     22          1           0        0.852667   -0.923330    1.813303
     23          1           0       -1.690463   -0.507434    2.190878
     24          1           0       -3.661369   -1.743655    1.358722
     25          1           0       -2.779674   -0.825015   -2.557850
     26          1           0       -0.753798    0.434111   -1.910743
     27          1           0       -0.975410    2.180394    1.759565
     28          1           0       -0.201752    1.119662    2.724112
 ---------------------------------------------------------------------

 SCF Done:  E(UB3LYP) =  -683.733603819     A.U. after   27 cycles

 The electronic state is 2-A.
 Alpha  occ. eigenvalues --  -14.20992 -14.19695 -14.14943 -14.14569 -10.10795
 Alpha  occ. eigenvalues --  -10.10466 -10.10269 -10.09170 -10.08075 -10.07340
 Alpha  occ. eigenvalues --  -10.05676 -10.05065 -10.04831 -10.04172 -10.03840
 Alpha  occ. eigenvalues --  -10.03143  -0.84422  -0.80993  -0.77401  -0.74845
 Alpha  occ. eigenvalues --   -0.70396  -0.66389  -0.66101  -0.62401  -0.58158
 Alpha  occ. eigenvalues --   -0.53762  -0.53040  -0.49026  -0.48278  -0.42624
 Alpha  occ. eigenvalues --   -0.40108  -0.38711  -0.37983  -0.37004  -0.35148
 Alpha  occ. eigenvalues --   -0.33795  -0.32895  -0.32307  -0.30676  -0.29217
 Alpha  occ. eigenvalues --   -0.28844  -0.27941  -0.26740  -0.26375  -0.23756
 Alpha  occ. eigenvalues --   -0.23345  -0.21766  -0.21210  -0.19603  -0.18428
 Alpha  occ. eigenvalues --   -0.17795  -0.16560  -0.16348  -0.15261  -0.11061
 Alpha  occ. eigenvalues --   -0.09340   0.02739
 Alpha virt. eigenvalues --    0.06692   0.07066   0.08027   0.08734   0.08988
 Alpha virt. eigenvalues --    0.10020   0.10753   0.11801   0.12085   0.12257
 Alpha virt. eigenvalues --    0.13357   0.14102   0.14338   0.14726   0.15515

  Beta  occ. eigenvalues --  -14.20995 -14.19677 -14.14982 -14.14318 -10.10785
  Beta  occ. eigenvalues --  -10.10448 -10.10302 -10.09131 -10.08058 -10.07342
  Beta  occ. eigenvalues --  -10.05677 -10.05091 -10.04151 -10.03890 -10.03878
  Beta  occ. eigenvalues --  -10.02855  -0.84405  -0.80723  -0.77073  -0.74470
  Beta  occ. eigenvalues --   -0.70348  -0.66119  -0.65853  -0.61914  -0.57902
  Beta  occ. eigenvalues --   -0.53643  -0.52983  -0.48876  -0.47491  -0.42430
  Beta  occ. eigenvalues --   -0.39994  -0.38570  -0.37842  -0.36931  -0.34777
  Beta  occ. eigenvalues --   -0.33493  -0.32853  -0.32049  -0.30424  -0.28854
  Beta  occ. eigenvalues --   -0.28540  -0.27727  -0.26461  -0.26328  -0.23543
  Beta  occ. eigenvalues --   -0.22949  -0.20982  -0.20569  -0.18784  -0.18088
  Beta  occ. eigenvalues --   -0.17508  -0.16484  -0.16299  -0.15185  -0.10673
  Beta  occ. eigenvalues --   -0.07385
  Beta virt. eigenvalues --    0.06737   0.06967   0.08000   0.08659   0.08919
  Beta virt. eigenvalues --    0.09814   0.10113   0.10716   0.11869   0.12035
  Beta virt. eigenvalues --    0.12293   0.13328   0.14058   0.14326   0.14697

 Mulliken charges and spin densities:
               1          2
     1  C   -0.400614  -0.096080
     2  C   -0.235067   0.370056
     3  N   -0.016756   0.012314
     4  C   -0.788515   0.279491
     5  C    1.936305   0.222734
     6  C   -0.915432  -0.065585
     7  C    0.358807  -0.036325
     8  C   -0.523341   0.114852
     9  C    0.779133  -0.027887
    10  C   -0.653249   0.011121
    11  N   -0.083426  -0.001860
    12  C   -0.777314   0.002121
    13  C    0.526247   0.010150
    14  N   -0.302264   0.002584
    15  C   -1.506259  -0.068751
    16  N   -0.329798   0.133477
    17  H    0.141913   0.002788
    18  H    0.158216   0.014140
    19  H    0.072057   0.053064
    20  H    0.147455  -0.017364
    21  H    0.208148   0.001296
    22  H    0.118680   0.015943
    23  H    0.151126   0.006664
    24  H    0.142042   0.000201
    25  H    0.156126   0.001167
    26  H    0.207243   0.033941
    27  H    0.211015   0.012211
    28  H    0.217521   0.013539
 Sum of Mulliken charges =  -1.00000   1.00000

 Dipole moment (field-independent basis, Debye):
    X=             -6.4665    Y=              4.4294    Z=              2.7696  Tot=              8.3130
 Quadrupole moment (field-independent basis, Debye-Ang):
   XX=           -140.5741   YY=           -137.4363   ZZ=            -99.9842
   XY=              9.7702   XZ=             -2.5110   YZ=              1.3635

 Summary of Natural Population Analysis:

                                       Natural Population
                Natural  -----------------------------------------------
    Atom  No    Charge         Core      Valence    Rydberg      Total
 -----------------------------------------------------------------------
      C    1   -0.31409      0.99963     2.30984    0.00462     3.31409
      C    2    0.27632      0.99956     1.70465    0.01947     2.72368
      N    3   -0.28009      0.99964     2.76733    0.01311     3.78009
      C    4    0.08388      0.99947     1.90229    0.01435     2.91612
      C    5   -0.07544      0.99939     2.06541    0.01063     3.07544
      C    6   -0.18375      0.99958     2.17388    0.01028     3.18375
      C    7    0.02341      0.99948     1.96317    0.01394     2.97659
      C    8    0.01505      0.99947     1.97130    0.01418     2.98495
      C    9   -0.12507      0.99950     2.11770    0.00787     3.12507
      C   10    0.02269      0.99960     1.96330    0.01442     2.97731
      N   11   -0.24165      0.99972     2.73040    0.01153     3.74165
      C   12    0.02981      0.99960     1.95634    0.01425     2.97019
      C   13   -0.11912      0.99950     2.11150    0.00812     3.11912
      N   14   -0.41196      0.99976     2.90321    0.00898     3.91196
      C   15    0.14570      0.99964     1.83660    0.01806     2.85430
      N   16   -0.18551      0.99979     2.67418    0.01154     3.68551
      H   17    0.10608      0.00000     0.39292    0.00100     0.39392
      H   18    0.10951      0.00000     0.38956    0.00093     0.39049
      H   19    0.09813      0.00000     0.40028    0.00159     0.40187
      H   20    0.08521      0.00000     0.41385    0.00094     0.41479
      H   21    0.10793      0.00000     0.39101    0.00106     0.39207
      H   22    0.10154      0.00000     0.39755    0.00091     0.39846
      H   23    0.09829      0.00000     0.39971    0.00200     0.40171
      H   24    0.08495      0.00000     0.41379    0.00125     0.41505
      H   25    0.08684      0.00000     0.41201    0.00115     0.41316
      H   26    0.11847      0.00000     0.37965    0.00188     0.38153
      H   27    0.17305      0.00000     0.32511    0.00185     0.32695
      H   28    0.16981      0.00000     0.32867    0.00152     0.33019
 =======================================================================
   * Total *   -0.00000     15.99333    39.79521    0.21146    56.00000

 Normal termination of Gaussian 16 at Thu Dec 10 23:00:54 2020.
