 Gaussian 16, Revision A.03,

 -----------------------------------------------------------
 # opt freq B3LYP/6-31G(d) empiricaldispersion=gd3bj scf=xqc
 -----------------------------------------------------------

 -----------------------------
 CID_11557291_JID_680_neutraal
 -----------------------------
 Symbolic Z-matrix:
 Charge =  0 Multiplicity = 1

 SCF Done:  E(RB3LYP) =  -389.486744452     A.U. after   14 cycles
 SCF Done:  E(RB3LYP) =  -389.489677775     A.U. after   12 cycles
 SCF Done:  E(RB3LYP) =  -389.489964353     A.U. after   11 cycles
 SCF Done:  E(RB3LYP) =  -389.490003425     A.U. after   11 cycles
 SCF Done:  E(RB3LYP) =  -389.490007540     A.U. after    8 cycles
 SCF Done:  E(RB3LYP) =  -389.490008486     A.U. after    8 cycles
 SCF Done:  E(RB3LYP) =  -389.490008653     A.U. after    7 cycles
 SCF Done:  E(RB3LYP) =  -389.490008687     A.U. after    7 cycles
 SCF Done:  E(RB3LYP) =  -389.490008675     A.U. after    7 cycles
 SCF Done:  E(RB3LYP) =  -389.490008659     A.U. after    6 cycles
 Optimization completed.
    -- Stationary point found.
 Normal termination of Gaussian 16 at Tue Dec  8 12:28:33 2020.

 --------------------------------------------------------------------
 #N Geom=AllCheck Guess=TCheck SCRF=Check GenChk RB3LYP/6-31G(d) Freq
 --------------------------------------------------------------------

 Structure from the checkpoint file:  "JID_680.chk"
 -----------------------------
 CID_11557291_JID_680_neutraal
 -----------------------------
 Charge =  0 Multiplicity = 1

 SCF Done:  E(RB3LYP) =  -389.490008659     A.U. after    1 cycles

  Exact polarizability: 121.531   3.758  98.598   6.535   1.272  76.322
 Approx polarizability: 165.800   4.117 155.694  15.322   0.379 114.382

                      1                      2                      3
                      A                      A                      A
 Frequencies --     44.8434               108.8295               181.2959
 Red. masses --      2.8408                 3.1052                 2.0902
 Frc consts  --      0.0034                 0.0217                 0.0405
 IR Inten    --      0.0741                 0.5334                 0.3900

                      4                      5                      6
                      A                      A                      A
 Frequencies --    203.6947               256.9385               342.6406
 Red. masses --      1.1964                 1.9688                 2.8142
 Frc consts  --      0.0292                 0.0766                 0.1947
 IR Inten    --      0.0873                 0.2772                 0.4999

                      7                      8                      9
                      A                      A                      A
 Frequencies --    396.1888               425.3090               475.8798
 Red. masses --      2.7950                 2.4182                 2.3979
 Frc consts  --      0.2585                 0.2577                 0.3199
 IR Inten    --      2.3184                 0.3282                 1.7549

                     10                     11                     12
                      A                      A                      A
 Frequencies --    505.5704               566.4629               617.1652
 Red. masses --      2.4230                 2.8432                 2.2495
 Frc consts  --      0.3649                 0.5375                 0.5048
 IR Inten    --      3.5375                 2.5994                 2.5499

                     13                     14                     15
                      A                      A                      A
 Frequencies --    697.0315               757.9556               791.5252
 Red. masses --      2.4331                 1.4444                 3.3022
 Frc consts  --      0.6965                 0.4889                 1.2189
 IR Inten    --      0.3095                 4.3902                 1.4275

                     16                     17                     18
                      A                      A                      A
 Frequencies --    828.7498               845.8964               858.2659
 Red. masses --      1.5522                 2.8532                 2.0613
 Frc consts  --      0.6281                 1.2028                 0.8946
 IR Inten    --      0.9726                 5.9698                12.9803

                     19                     20                     21
                      A                      A                      A
 Frequencies --    865.5447               892.2566               914.7345
 Red. masses --      2.4071                 2.1835                 1.3679
 Frc consts  --      1.0625                 1.0242                 0.6744
 IR Inten    --      0.9832                 7.3065                35.5187

                     22                     23                     24
                      A                      A                      A
 Frequencies --    927.5877               949.7303               965.1308
 Red. masses --      2.4065                 2.5025                 1.8640
 Frc consts  --      1.2200                 1.3299                 1.0230
 IR Inten    --      1.0814                 1.0715                 1.0584

                     25                     26                     27
                      A                      A                      A
 Frequencies --    967.6574               980.2399              1038.8053
 Red. masses --      2.1430                 1.9822                 1.3658
 Frc consts  --      1.1823                 1.1222                 0.8683
 IR Inten    --      1.6964                 0.5588                 1.6971

                     28                     29                     30
                      A                      A                      A
 Frequencies --   1053.1976              1065.0408              1083.8623
 Red. masses --      1.5644                 1.5028                 1.4939
 Frc consts  --      1.0224                 1.0043                 1.0340
 IR Inten    --      0.7665                 1.5620                 0.3675

                     31                     32                     33
                      A                      A                      A
 Frequencies --   1105.7622              1152.1120              1159.1694
 Red. masses --      1.9232                 1.1779                 1.1215
 Frc consts  --      1.3855                 0.9212                 0.8878
 IR Inten    --      5.1926                 0.4470                 6.4765

                     34                     35                     36
                      A                      A                      A
 Frequencies --   1205.1359              1209.9171              1252.5819
 Red. masses --      1.5627                 1.7536                 1.2336
 Frc consts  --      1.3372                 1.5125                 1.1404
 IR Inten    --      0.5684                 1.4908                 0.4467

                     37                     38                     39
                      A                      A                      A
 Frequencies --   1259.3737              1297.5282              1312.6221
 Red. masses --      1.4470                 1.3572                 1.7862
 Frc consts  --      1.3522                 1.3462                 1.8133
 IR Inten    --      0.1046                 0.1776                 2.8710

                     40                     41                     42
                      A                      A                      A
 Frequencies --   1325.7209              1336.9858              1350.4383
 Red. masses --      1.7484                 2.0036                 1.5729
 Frc consts  --      1.8105                 2.1102                 1.6901
 IR Inten    --      1.0709                10.0358                 3.8381

                     43                     44                     45
                      A                      A                      A
 Frequencies --   1360.4833              1438.3807              1465.3331
 Red. masses --      1.8194                 1.2553                 1.2506
 Frc consts  --      1.9841                 1.5302                 1.5821
 IR Inten    --      5.4817                 5.0122                 0.7976

                     46                     47                     48
                      A                      A                      A
 Frequencies --   1510.8419              1519.0922              1519.9842
 Red. masses --      1.0460                 1.0803                 1.1048
 Frc consts  --      1.4067                 1.4688                 1.5038
 IR Inten    --      6.9504                 0.4109                 2.7524

                     49                     50                     51
                      A                      A                      A
 Frequencies --   1525.7731              1543.2502              1668.7443
 Red. masses --      1.0552                 1.1058                 7.0911
 Frc consts  --      1.4473                 1.5516                11.6344
 IR Inten    --     10.4362                 0.4014                 3.2311

                     52                     53                     54
                      A                      A                      A
 Frequencies --   1707.3180              3040.4751              3059.6833
 Red. masses --      4.7032                 1.0377                 1.0617
 Frc consts  --      8.0774                 5.6522                 5.8562
 IR Inten    --      8.9884                20.0445                38.0846

                     55                     56                     57
                      A                      A                      A
 Frequencies --   3060.8369              3073.4552              3089.8595
 Red. masses --      1.0629                 1.0623                 1.1000
 Frc consts  --      5.8672                 5.9124                 6.1877
 IR Inten    --     30.1543                63.7970                19.2430

                     58                     59                     60
                      A                      A                      A
 Frequencies --   3107.2462              3119.3137              3122.8037
 Red. masses --      1.1034                 1.1012                 1.0901
 Frc consts  --      6.2767                 6.3128                 6.2632
 IR Inten    --      3.0613                32.1350                76.6274

                     61                     62                     63
                      A                      A                      A
 Frequencies --   3125.2248              3129.3464              3132.8779
 Red. masses --      1.1052                 1.0938                 1.0953
 Frc consts  --      6.3602                 6.3112                 6.3340
 IR Inten    --     49.3868                25.0646                25.2459

                     64                     65                     66
                      A                      A                      A
 Frequencies --   3164.5544              3212.3664              3245.3306
 Red. masses --      1.0594                 1.0943                 1.1159
 Frc consts  --      6.2507                 6.6536                 6.9246
 IR Inten    --      9.6910                13.3278                16.7875

 - Thermochemistry -
 -------------------
 Temperature   298.150 Kelvin.  Pressure   1.00000 Atm.
 Atom     1 has atomic number  6 and mass  12.00000

 Molecular mass:   134.10955 amu.
 Principal axes and moments of inertia in atomic units:
                           1         2         3
     Eigenvalues --   696.836851801.730661947.35330
           X            0.99997  -0.00740  -0.00194
           Y            0.00745   0.99956   0.02868
           Z            0.00172  -0.02870   0.99959
 This molecule is an asymmetric top.
 Rotational symmetry number  1.
 Warning -- assumption of classical behavior for rotation
           may cause significant error
 Rotational temperatures (Kelvin)      0.12430     0.04807     0.04448
 Rotational constants (GHZ):           2.58990     1.00167     0.92677
 Zero-point vibrational energy     565342.9 (Joules/Mol)
                                  135.12020 (Kcal/Mol)
 Warning -- explicit consideration of  12 degrees of freedom as
           vibrations may cause significant error
 Vibrational temperatures:     64.52   156.58   260.84   293.07   369.68
          (Kelvin)            492.98   570.03   611.92   684.68   727.40
                              815.01   887.96  1002.87  1090.53  1138.83
                             1192.39  1217.06  1234.85  1245.33  1283.76
                             1316.10  1334.59  1366.45  1388.61  1392.24
                             1410.35  1494.61  1515.32  1532.36  1559.44
                             1590.95  1657.63  1667.79  1733.92  1740.80
                             1802.19  1811.96  1866.85  1888.57  1907.42
                             1923.62  1942.98  1957.43  2069.51  2108.29
                             2173.76  2185.63  2186.92  2195.25  2220.39
                             2400.95  2456.45  4374.57  4402.20  4403.86
                             4422.02  4445.62  4470.63  4488.00  4493.02
                             4496.50  4502.43  4507.51  4553.09  4621.88
                             4669.31

 Zero-point correction=                           0.215328 (Hartree/Particle)
 Thermal correction to Energy=                    0.224317
 Thermal correction to Enthalpy=                  0.225261
 Thermal correction to Gibbs Free Energy=         0.181187
 Sum of electronic and zero-point Energies=           -389.274681
 Sum of electronic and thermal Energies=              -389.265692
 Sum of electronic and thermal Enthalpies=            -389.264747
 Sum of electronic and thermal Free Energies=         -389.308822

                     E (Thermal)             CV                S
                      KCal/Mol        Cal/Mol-Kelvin    Cal/Mol-Kelvin
 Total                  140.761             36.250             92.762
 Electronic               0.000              0.000              0.000
 Translational            0.889              2.981             40.593
 Rotational               0.889              2.981             29.282
 Vibrational            138.984             30.288             22.887
 Vibration     1          0.595              1.979              5.033
 Vibration     2          0.606              1.942              3.290
 Vibration     3          0.630              1.865              2.315
 Vibration     4          0.639              1.835              2.099
 Vibration     5          0.667              1.751              1.682
 Vibration     6          0.722              1.590              1.200
 Vibration     7          0.763              1.478              0.977
 Vibration     8          0.787              1.415              0.874
 Vibration     9          0.833              1.304              0.721
 Vibration    10          0.861              1.238              0.644
 Vibration    11          0.922              1.104              0.511
 Vibration    12          0.977              0.996              0.421

                           ! Non-Optimized Parameters !
 Normal termination of Gaussian 16 at Tue Dec  8 12:42:06 2020.

 ----------------------------------------------------------------------
 # B3LYP/6-311++G(d,p) empiricaldispersion=gd3bj scf=xqc pop=npa geom=c
 heck
 ----------------------------------------------------------------------

 -------------------------------------
 CID_11557291_JID_680_Energie_neutraal
 -------------------------------------
 Structure from the checkpoint file:  "JID_680.chk"
 Charge =  0 Multiplicity = 1

 SCF Done:  E(RB3LYP) =  -389.591795964     A.U. after   14 cycles
 Normal termination of Gaussian 16 at Tue Dec  8 12:49:38 2020.

 ----------------------------------------------------------------------
 # B3LYP/6-311++G(d,p) empiricaldispersion=gd3bj scf=xqc pop=npa geom=c
 heck
 ----------------------------------------------------------------------

 -----------------------------------
 CID_11557291_JID_680_Energie_kation
 -----------------------------------
 Structure from the checkpoint file:  "JID_680.chk"
 Charge =  1 Multiplicity = 2

 SCF Done:  E(UB3LYP) =  -389.301127787     A.U. after   19 cycles
 Normal termination of Gaussian 16 at Tue Dec  8 13:04:38 2020.
 Gaussian 16:  ES64L-G16RevA.03 25-Dec-2016

 ----------------------------------------------------------------------
 # B3LYP/6-311++G(d,p) empiricaldispersion=gd3bj scf=xqc pop=npa geom=c
 heck
 ----------------------------------------------------------------------

 ----------------------------------
 CID_11557291_JID_680_Energie_anion
 ----------------------------------
 Structure from the checkpoint file:  "JID_680.chk"
 Charge = -1 Multiplicity = 2

                         Standard orientation:
 ---------------------------------------------------------------------
 Center     Atomic      Atomic             Coordinates (Angstroms)
 Number     Number       Type             X           Y           Z
 ---------------------------------------------------------------------
      1          6           0        2.644911   -1.146288   -0.141677
      2          6           0        1.898731    0.159079    0.010090
      3          6           0        2.528074    1.281988    0.390108
      4          6           0        0.455543    0.140377   -0.274015
      5          6           0       -0.328245    1.142987   -0.719665
      6          6           0       -1.769546    0.670273   -0.684135
      7          6           0       -2.159096    0.554883    0.829202
      8          6           0       -1.260955   -0.619374    1.326938
      9          6           0       -0.481019   -1.031187    0.034373
     10          6           0       -1.572933   -0.822861   -1.036709
     11          1           0        3.720018   -1.007618    0.003830
     12          1           0        2.483165   -1.582817   -1.135315
     13          1           0        2.299067   -1.888033    0.589423
     14          1           0        1.988106    2.210511    0.549335
     15          1           0        3.601501    1.301856    0.558167
     16          1           0       -0.009412    2.150851   -0.965542
     17          1           0       -2.478590    1.238690   -1.290061
     18          1           0       -3.222913    0.313660    0.933332
     19          1           0       -1.974643    1.488531    1.367628
     20          1           0       -0.581003   -0.323787    2.130915
     21          1           0       -1.867023   -1.455912    1.691403
     22          1           0       -0.017884   -2.018172    0.087111
     23          1           0       -1.204098   -0.973697   -2.055672
     24          1           0       -2.469081   -1.433325   -0.871618
 ---------------------------------------------------------------------

 SCF Done:  E(UB3LYP) =  -389.574369212     A.U. after   33 cycles
 SCF Done:  E(UB3LYP) =  -389.574369212     a.u. after    1 cycles

 The electronic state is 2-A.
 Alpha  occ. eigenvalues --  -10.06652 -10.06044 -10.06016 -10.05392 -10.05089
 Alpha  occ. eigenvalues --  -10.05088 -10.04980 -10.04901 -10.04280 -10.04087
 Alpha  occ. eigenvalues --   -0.76786  -0.69021  -0.62105  -0.59924  -0.58322
 Alpha  occ. eigenvalues --   -0.56751  -0.48184  -0.44938  -0.43466  -0.40072
 Alpha  occ. eigenvalues --   -0.37171  -0.36117  -0.33136  -0.31596  -0.30998
 Alpha  occ. eigenvalues --   -0.30334  -0.27491  -0.25935  -0.24301  -0.23600
 Alpha  occ. eigenvalues --   -0.23448  -0.22520  -0.21937  -0.21076  -0.18938
 Alpha  occ. eigenvalues --   -0.16357  -0.10617   0.05068
 Alpha virt. eigenvalues --    0.07318   0.07449   0.08297   0.09235   0.09509
 Alpha virt. eigenvalues --    0.10134   0.10581   0.11245   0.11807   0.12143
 Alpha virt. eigenvalues --    0.12478   0.13438   0.14141   0.15528   0.15776

  Beta  occ. eigenvalues --  -10.06604 -10.06039 -10.06012 -10.05360 -10.05074
  Beta  occ. eigenvalues --  -10.05062 -10.04958 -10.04867 -10.04211 -10.04016
  Beta  occ. eigenvalues --   -0.76725  -0.68897  -0.62026  -0.59858  -0.58259
  Beta  occ. eigenvalues --   -0.56634  -0.48030  -0.44857  -0.43387  -0.39991
  Beta  occ. eigenvalues --   -0.37084  -0.36076  -0.33063  -0.31516  -0.30935
  Beta  occ. eigenvalues --   -0.30251  -0.27439  -0.25880  -0.24244  -0.23526
  Beta  occ. eigenvalues --   -0.23405  -0.22459  -0.21883  -0.21025  -0.18884
  Beta  occ. eigenvalues --   -0.16046  -0.10251
  Beta virt. eigenvalues --    0.07403   0.08064   0.08347   0.08849   0.09714
  Beta virt. eigenvalues --    0.10190   0.10620   0.11076   0.11515   0.12266
  Beta virt. eigenvalues --    0.12697   0.13029   0.13823   0.14399   0.15850

 Mulliken charges and spin densities:
               1          2
     1  C    0.930426  -1.602433
     2  C    0.001647   0.914608
     3  C   -0.442162  -0.274974
     4  C    1.043094  -1.000373
     5  C   -0.421972  -0.388178
     6  C   -0.697753   1.187601
     7  C    1.061487  -1.538735
     8  C    0.058086  -0.755629
     9  C   -1.405251   2.031712
    10  C    1.417171  -2.236623
    11  H   -0.193042   0.336523
    12  H   -0.044725   0.192920
    13  H   -0.300230   0.449026
    14  H   -0.018784   0.155825
    15  H   -0.081354   0.174978
    16  H    0.056890   0.058948
    17  H   -0.691452   0.930097
    18  H   -0.342358   0.493111
    19  H   -0.188395   0.322032
    20  H    0.053942   0.073053
    21  H   -0.134995   0.279049
    22  H   -0.255170   0.511947
    23  H    0.107821   0.009517
    24  H   -0.512922   0.675999
 Sum of Mulliken charges =  -1.00000   1.00000

 Dipole moment (field-independent basis, Debye):
    X=              2.5702    Y=              1.2204    Z=             -1.1663  Tot=              3.0750
 Quadrupole moment (field-independent basis, Debye-Ang):
   XX=           -124.3299   YY=            -97.4204   ZZ=            -91.2682
   XY=              3.8910   XZ=             -4.1463   YZ=             -0.4557

 Summary of Natural Population Analysis:

                                       Natural Population
                Natural  -----------------------------------------------
    Atom  No    Charge         Core      Valence    Rydberg      Total
 -----------------------------------------------------------------------
      C    1   -0.29404      0.99963     2.28883    0.00558     3.29404
      C    2   -0.01405      0.99949     2.00326    0.01131     3.01405
      C    3   -0.18056      0.99952     2.17464    0.00640     3.18056
      C    4   -0.01894      0.99945     2.00587    0.01362     3.01894
      C    5   -0.07359      0.99946     2.06466    0.00947     3.07359
      C    6   -0.12708      0.99961     2.11443    0.01304     3.12708
      C    7   -0.18809      0.99963     2.18018    0.00828     3.18809
      C    8   -0.18892      0.99963     2.18095    0.00834     3.18892
      C    9   -0.12091      0.99957     2.10924    0.01210     3.12091
      C   10   -0.17686      0.99963     2.16764    0.00958     3.17686
      H   11    0.09982      0.00000     0.39932    0.00086     0.40018
      H   12    0.10024      0.00000     0.39874    0.00102     0.39976
      H   13    0.10550      0.00000     0.39260    0.00190     0.39450
      H   14    0.09301      0.00000     0.40595    0.00105     0.40699
      H   15    0.08768      0.00000     0.41142    0.00090     0.41232
      H   16    0.09856      0.00000     0.40050    0.00094     0.40144
      H   17    0.10199      0.00000     0.39639    0.00163     0.39801
      H   18    0.10064      0.00000     0.39668    0.00267     0.39936
      H   19    0.09853      0.00000     0.40018    0.00129     0.40147
      H   20    0.09920      0.00000     0.39959    0.00121     0.40080
      H   21    0.09765      0.00000     0.40120    0.00115     0.40235
      H   22    0.10401      0.00000     0.39458    0.00141     0.39599
      H   23    0.09930      0.00000     0.39939    0.00131     0.40070
      H   24    0.09691      0.00000     0.40143    0.00166     0.40309
 =======================================================================
   * Total *    0.00000      9.99561    26.88765    0.11673    37.00000

 Normal termination of Gaussian 16 at Tue Dec  8 13:17:20 2020.
