 Gaussian 16, Revision A.03,

 -----------------------------------------------------------
 # opt freq B3LYP/6-31G(d) empiricaldispersion=gd3bj scf=xqc
 -----------------------------------------------------------

 ------------------------------
 CID_64733690_JID_7550_neutraal
 ------------------------------
 Symbolic Z-matrix:
 Charge =  0 Multiplicity = 1

 SCF Done:  E(RB3LYP) =  -733.960052773     A.U. after   14 cycles
 SCF Done:  E(RB3LYP) =  -733.964778450     A.U. after   11 cycles
 SCF Done:  E(RB3LYP) =  -733.964894981     A.U. after   12 cycles
 SCF Done:  E(RB3LYP) =  -733.965702210     A.U. after   11 cycles
 SCF Done:  E(RB3LYP) =  -733.966666461     A.U. after   11 cycles
 SCF Done:  E(RB3LYP) =  -733.966819499     A.U. after   11 cycles
 SCF Done:  E(RB3LYP) =  -733.967046969     A.U. after   11 cycles
 SCF Done:  E(RB3LYP) =  -733.967237024     A.U. after   11 cycles
 SCF Done:  E(RB3LYP) =  -733.967302098     A.U. after   10 cycles
 SCF Done:  E(RB3LYP) =  -733.967315470     A.U. after   10 cycles
 SCF Done:  E(RB3LYP) =  -733.967439034     A.U. after    7 cycles
 SCF Done:  E(RB3LYP) =  -733.967438949     A.U. after    8 cycles
 SCF Done:  E(RB3LYP) =  -733.967438973     A.U. after    7 cycles
 SCF Done:  E(RB3LYP) =  -733.967439033     A.U. after    8 cycles
 SCF Done:  E(RB3LYP) =  -733.967439142     A.U. after    7 cycles
 SCF Done:  E(RB3LYP) =  -733.967439174     A.U. after    6 cycles
 Optimization completed.
    -- Stationary point found.
 Normal termination of Gaussian 16 at Thu Dec 17 20:25:43 2020.

 --------------------------------------------------------------------
 #N Geom=AllCheck Guess=TCheck SCRF=Check GenChk RB3LYP/6-31G(d) Freq
 --------------------------------------------------------------------

 Structure from the checkpoint file:  "JID_7550.chk"
 ------------------------------
 CID_64733690_JID_7550_neutraal
 ------------------------------
 Charge =  0 Multiplicity = 1

 SCF Done:  E(RB3LYP) =  -733.967439174     A.U. after    1 cycles

  Exact polarizability: 187.105  -0.629 139.734  -4.129  -2.297 143.467
 Approx polarizability: 225.097   1.288 206.582 -11.619 -11.293 224.532

                      1                      2                      3
                      A                      A                      A
 Frequencies --     31.2225                40.8370                55.5257
 Red. masses --      4.6498                 4.1248                 2.0784
 Frc consts  --      0.0027                 0.0041                 0.0038
 IR Inten    --      0.9036                 0.4079                 2.0430

                      4                      5                      6
                      A                      A                      A
 Frequencies --     63.8466                83.1374               125.9309
 Red. masses --      3.0770                 2.7351                 3.0835
 Frc consts  --      0.0074                 0.0111                 0.0288
 IR Inten    --      0.3029                 0.1793                 5.1842

                      7                      8                      9
                      A                      A                      A
 Frequencies --    136.5959               152.3658               171.2110
 Red. masses --      2.3499                 2.2257                 1.4858
 Frc consts  --      0.0258                 0.0304                 0.0257
 IR Inten    --      1.9406                 6.9639                30.4778

                     10                     11                     12
                      A                      A                      A
 Frequencies --    187.4030               220.0943               227.2878
 Red. masses --      1.8598                 2.0569                 1.8197
 Frc consts  --      0.0385                 0.0587                 0.0554
 IR Inten    --     12.9404                 4.2622                 3.4558

                     13                     14                     15
                      A                      A                      A
 Frequencies --    266.3728               273.5280               299.0973
 Red. masses --      1.2608                 3.0804                 2.9480
 Frc consts  --      0.0527                 0.1358                 0.1554
 IR Inten    --      0.5164                 1.9859                 4.7235

                     16                     17                     18
                      A                      A                      A
 Frequencies --    312.6541               337.9952               371.7445
 Red. masses --      2.5582                 2.4985                 3.2301
 Frc consts  --      0.1473                 0.1682                 0.2630
 IR Inten    --      0.2546                 1.5803                 6.7221

                     19                     20                     21
                      A                      A                      A
 Frequencies --    381.0945               387.6012               417.8218
 Red. masses --      2.1003                 2.2172                 2.3908
 Frc consts  --      0.1797                 0.1963                 0.2459
 IR Inten    --      0.3395                 0.1103                 1.5698

                     22                     23                     24
                      A                      A                      A
 Frequencies --    422.8438               447.7171               527.3329
 Red. masses --      1.7089                 2.9762                 4.1373
 Frc consts  --      0.1800                 0.3515                 0.6779
 IR Inten    --      2.3135                 1.4085                 2.7346

                     25                     26                     27
                      A                      A                      A
 Frequencies --    572.3216               585.5463               594.6773
 Red. masses --      3.0668                 1.2940                 3.9854
 Frc consts  --      0.5919                 0.2614                 0.8304
 IR Inten    --      0.7656                51.1334                 8.2963

                     28                     29                     30
                      A                      A                      A
 Frequencies --    629.9643               640.2578               726.8786
 Red. masses --      3.0904                 2.4989                 3.1282
 Frc consts  --      0.7226                 0.6035                 0.9738
 IR Inten    --     19.9137                 5.6989                 1.4424

                     31                     32                     33
                      A                      A                      A
 Frequencies --    730.5950               754.7064               779.2410
 Red. masses --      2.0857                 5.2163                 2.6220
 Frc consts  --      0.6559                 1.7505                 0.9381
 IR Inten    --      1.8805                24.9557                 0.1319

                     34                     35                     36
                      A                      A                      A
 Frequencies --    805.8770               817.4900               835.4929
 Red. masses --      1.6870                 2.1646                 1.8756
 Frc consts  --      0.6455                 0.8523                 0.7714
 IR Inten    --      5.8727                24.1136                24.0560

                     37                     38                     39
                      A                      A                      A
 Frequencies --    842.5908               861.0941               887.5066
 Red. masses --      2.2106                 1.7890                 1.6283
 Frc consts  --      0.9247                 0.7815                 0.7557
 IR Inten    --      7.3129                83.0278                 7.2719

                     40                     41                     42
                      A                      A                      A
 Frequencies --    900.2500               910.7456               953.7918
 Red. masses --      2.6273                 1.6253                 1.9842
 Frc consts  --      1.2545                 0.7943                 1.0635
 IR Inten    --      0.8797                22.4473                13.2135

                     43                     44                     45
                      A                      A                      A
 Frequencies --    954.8671               962.1026               965.7854
 Red. masses --      1.8131                 1.8302                 2.2146
 Frc consts  --      0.9740                 0.9981                 1.2170
 IR Inten    --      1.4967                 0.4445                 1.2193

                     46                     47                     48
                      A                      A                      A
 Frequencies --   1008.1991              1012.8421              1019.2842
 Red. masses --      2.1331                 2.3065                 2.1063
 Frc consts  --      1.2775                 1.3941                 1.2893
 IR Inten    --      9.6012                12.2475                 1.0078

                     49                     50                     51
                      A                      A                      A
 Frequencies --   1044.9462              1054.7005              1061.2528
 Red. masses --      1.7585                 1.9964                 1.4131
 Frc consts  --      1.1313                 1.3084                 0.9377
 IR Inten    --      3.8495                 4.1421                 0.0137

                     52                     53                     54
                      A                      A                      A
 Frequencies --   1067.1722              1075.5483              1094.4950
 Red. masses --      1.9107                 1.7101                 1.8440
 Frc consts  --      1.2821                 1.1656                 1.3015
 IR Inten    --     11.9785                 1.3991                 2.4050

                     55                     56                     57
                      A                      A                      A
 Frequencies --   1099.3833              1124.3426              1152.2711
 Red. masses --      1.9689                 2.0133                 1.5155
 Frc consts  --      1.4021                 1.4995                 1.1856
 IR Inten    --      6.1822                 3.4997                 5.7399

                     58                     59                     60
                      A                      A                      A
 Frequencies --   1165.6646              1172.1182              1208.4507
 Red. masses --      1.0408                 1.5416                 2.5590
 Frc consts  --      0.8333                 1.2479                 2.2018
 IR Inten    --      1.7213                 2.6299                13.1396

                     61                     62                     63
                      A                      A                      A
 Frequencies --   1215.8158              1233.2208              1264.7955
 Red. masses --      1.4178                 1.4413                 1.4747
 Frc consts  --      1.2348                 1.2915                 1.3899
 IR Inten    --      3.4596                 6.8211                 8.5632

                     64                     65                     66
                      A                      A                      A
 Frequencies --   1286.3540              1299.2342              1303.8377
 Red. masses --      1.4491                 1.5544                 1.4533
 Frc consts  --      1.4128                 1.5459                 1.4557
 IR Inten    --      5.6691                11.5934                 5.4887

                     67                     68                     69
                      A                      A                      A
 Frequencies --   1321.9891              1322.2548              1328.1876
 Red. masses --      1.1617                 1.3258                 1.3502
 Frc consts  --      1.1962                 1.3657                 1.4033
 IR Inten    --      3.1675                65.5108                11.4690

                     70                     71                     72
                      A                      A                      A
 Frequencies --   1342.4297              1347.8772              1351.1012
 Red. masses --      1.5061                 1.7159                 1.5966
 Frc consts  --      1.5991                 1.8368                 1.7173
 IR Inten    --      3.7920                 2.8258                 3.1955

                     73                     74                     75
                      A                      A                      A
 Frequencies --   1357.5675              1373.3264              1386.1732
 Red. masses --      1.3419                 1.6343                 1.3135
 Frc consts  --      1.4571                 1.8160                 1.4870
 IR Inten    --     15.6570                42.7763                 3.7278

                     76                     77                     78
                      A                      A                      A
 Frequencies --   1393.4493              1407.3775              1408.8480
 Red. masses --      1.3947                 1.3423                 1.4215
 Frc consts  --      1.5956                 1.5664                 1.6624
 IR Inten    --     13.3086                 6.3971                23.6218

                     79                     80                     81
                      A                      A                      A
 Frequencies --   1413.7969              1417.4179              1427.1033
 Red. masses --      1.5284                 1.4778                 2.3095
 Frc consts  --      1.7999                 1.7492                 2.7712
 IR Inten    --     11.8395                 5.7068                96.4290

                     82                     83                     84
                      A                      A                      A
 Frequencies --   1444.6631              1448.7046              1501.8992
 Red. masses --      1.2888                 1.2386                 1.3590
 Frc consts  --      1.5847                 1.5316                 1.8061
 IR Inten    --      9.3800                 7.8469                48.3457

                     85                     86                     87
                      A                      A                      A
 Frequencies --   1506.1217              1511.6689              1515.2304
 Red. masses --      1.2055                 1.1047                 1.0813
 Frc consts  --      1.6112                 1.4874                 1.4627
 IR Inten    --     34.1376                 0.6007                 1.8752

                     88                     89                     90
                      A                      A                      A
 Frequencies --   1520.1630              1522.7576              1524.0743
 Red. masses --      1.0635                 1.0569                 1.0852
 Frc consts  --      1.4480                 1.4440                 1.4852
 IR Inten    --      1.9954                 4.9279                 1.7015

                     91                     92                     93
                      A                      A                      A
 Frequencies --   1530.1465              1530.5051              1543.3467
 Red. masses --      1.0806                 1.0812                 1.0589
 Frc consts  --      1.4906                 1.4923                 1.4860
 IR Inten    --      9.8901                 2.0578                13.5371

                     94                     95                     96
                      A                      A                      A
 Frequencies --   1551.4109              1552.0515              1700.8623
 Red. masses --      1.0999                 1.0601                 1.0900
 Frc consts  --      1.5597                 1.5045                 1.8580
 IR Inten    --      1.2301                 2.7797                39.7091

                     97                     98                     99
                      A                      A                      A
 Frequencies --   1752.5655              3006.4853              3011.6841
 Red. masses --      7.6972                 1.0779                 1.0778
 Frc consts  --     13.9294                 5.7407                 5.7597
 IR Inten    --    334.9320                 4.5755                14.1753

                    100                    101                    102
                      A                      A                      A
 Frequencies --   3021.2684              3030.1974              3041.1614
 Red. masses --      1.0740                 1.0688                 1.0647
 Frc consts  --      5.7763                 5.7822                 5.8018
 IR Inten    --     23.0373                69.5482                77.1434

                    103                    104                    105
                      A                      A                      A
 Frequencies --   3052.3686              3052.4820              3055.1688
 Red. masses --      1.0589                 1.0402                 1.0677
 Frc consts  --      5.8126                 5.7107                 5.8715
 IR Inten    --     34.8943                21.9595                23.2204

                    106                    107                    108
                      A                      A                      A
 Frequencies --   3055.4083              3063.5717              3067.0356
 Red. masses --      1.0464                 1.0981                 1.0664
 Frc consts  --      5.7553                 6.0720                 5.9102
 IR Inten    --     13.8972                51.5585                51.8383

                    109                    110                    111
                      A                      A                      A
 Frequencies --   3080.5777              3083.9824              3085.7746
 Red. masses --      1.1012                 1.0859                 1.0716
 Frc consts  --      6.1574                 6.0853                 6.0121
 IR Inten    --     32.9865                26.6805                38.9597

                    112                    113                    114
                      A                      A                      A
 Frequencies --   3092.6301              3097.7360              3108.7132
 Red. masses --      1.0949                 1.1024                 1.1022
 Frc consts  --      6.1701                 6.2325                 6.2756
 IR Inten    --     29.4560                11.4018                14.0481

                    115                    116                    117
                      A                      A                      A
 Frequencies --   3110.0882              3115.7324              3120.2401
 Red. masses --      1.1019                 1.1033                 1.0924
 Frc consts  --      6.2799                 6.3104                 6.2664
 IR Inten    --     54.1110                57.1521                 9.3582

                    118                    119                    120
                      A                      A                      A
 Frequencies --   3137.4087              3157.0405              3163.3188
 Red. masses --      1.0976                 1.0968                 1.0931
 Frc consts  --      6.3655                 6.4408                 6.4447
 IR Inten    --     46.8768                11.1127                33.8378

                    121                    122                    123
                      A                      A                      A
 Frequencies --   3487.2462              3570.6556              3623.2246
 Red. masses --      1.0496                 1.0933                 1.0745
 Frc consts  --      7.5206                 8.2125                 8.3107
 IR Inten    --      1.3229                 0.5630                33.5279

 - Thermochemistry -
 -------------------
 Temperature   298.150 Kelvin.  Pressure   1.00000 Atm.
 Atom     1 has atomic number  6 and mass  12.00000

 Molecular mass:   238.20451 amu.
 Principal axes and moments of inertia in atomic units:
                           1         2         3
     Eigenvalues --  1869.628957189.308267238.64984
           X            0.99995  -0.00646   0.00737
           Y            0.00331   0.93054   0.36617
           Z           -0.00922  -0.36612   0.93052
 This molecule is an asymmetric top.
 Rotational symmetry number  1.
 Warning -- assumption of classical behavior for rotation
           may cause significant error
 Rotational temperatures (Kelvin)      0.04633     0.01205     0.01197
 Rotational constants (GHZ):           0.96529     0.25103     0.24932
 Zero-point vibrational energy    1036942.5 (Joules/Mol)
                                  247.83520 (Kcal/Mol)
 Warning -- explicit consideration of  27 degrees of freedom as
           vibrations may cause significant error
 Vibrational temperatures:     44.92    58.76    79.89    91.86   119.62
          (Kelvin)            181.19   196.53   219.22   246.33   269.63
                              316.67   327.02   383.25   393.55   430.33
                              449.84   486.30   534.86   548.31   557.67
                              601.15   608.38   644.17   758.71   823.44
                              842.47   855.61   906.38   921.19  1045.82
                             1051.16  1085.85  1121.15  1159.48  1176.19
                             1202.09  1212.30  1238.92  1276.92  1295.26
                             1310.36  1372.29  1373.84  1384.25  1389.55
                             1450.57  1457.25  1466.52  1503.44  1517.48
                             1526.91  1535.42  1547.47  1574.73  1581.77
                             1617.68  1657.86  1677.13  1686.42  1738.69
                             1749.29  1774.33  1819.76  1850.78  1869.31
                             1875.93  1902.05  1902.43  1910.97  1931.46
                             1939.29  1943.93  1953.24  1975.91  1994.39
                             2004.86  2024.90  2027.02  2034.14  2039.35
                             2053.28  2078.55  2084.36  2160.90  2166.97
                             2174.95  2180.08  2187.18  2190.91  2192.80
                             2201.54  2202.06  2220.53  2232.13  2233.06
                             2447.16  2521.55  4325.66  4333.14  4346.93
                             4359.78  4375.55  4391.68  4391.84  4395.71
                             4396.05  4407.80  4412.78  4432.26  4437.16
                             4439.74  4449.60  4456.95  4472.74  4474.72
                             4482.84  4489.33  4514.03  4542.28  4551.31
                             5017.37  5137.38  5213.01

 Zero-point correction=                           0.394951 (Hartree/Particle)
 Thermal correction to Energy=                    0.412820
 Thermal correction to Enthalpy=                  0.413764
 Thermal correction to Gibbs Free Energy=         0.349068
 Sum of electronic and zero-point Energies=           -733.572489
 Sum of electronic and thermal Energies=              -733.554619
 Sum of electronic and thermal Enthalpies=            -733.553675
 Sum of electronic and thermal Free Energies=         -733.618371

                     E (Thermal)             CV                S
                      KCal/Mol        Cal/Mol-Kelvin    Cal/Mol-Kelvin
 Total                  259.048             69.719            136.165
 Electronic               0.000              0.000              0.000
 Translational            0.889              2.981             42.305
 Rotational               0.889              2.981             32.942
 Vibrational            257.271             63.758             60.918
 Vibration     1          0.594              1.983              5.750
 Vibration     2          0.594              1.981              5.218
 Vibration     3          0.596              1.975              4.610
 Vibration     4          0.597              1.972              4.335
 Vibration     5          0.600              1.961              3.815
 Vibration     6          0.611              1.927              3.007
 Vibration     7          0.614              1.917              2.851
 Vibration     8          0.619              1.900              2.642
 Vibration     9          0.626              1.878              2.422
 Vibration    10          0.632              1.857              2.253
 Vibration    11          0.647              1.810              1.958
 Vibration    12          0.651              1.799              1.900
 Vibration    13          0.672              1.735              1.620
 Vibration    14          0.676              1.722              1.574
 Vibration    15          0.692              1.675              1.422
 Vibration    16          0.701              1.650              1.348
 Vibration    17          0.718              1.600              1.222
 Vibration    18          0.743              1.530              1.073
 Vibration    19          0.751              1.510              1.035
 Vibration    20          0.756              1.497              1.009
 Vibration    21          0.781              1.432              0.899
 Vibration    22          0.785              1.421              0.882
 Vibration    23          0.807              1.366              0.803
 Vibration    24          0.882              1.190              0.593
 Vibration    25          0.929              1.091              0.500
 Vibration    26          0.943              1.063              0.475
 Vibration    27          0.952              1.043              0.459

 Optimization completed.
    -- Stationary point found.
 Normal termination of Gaussian 16 at Thu Dec 17 20:45:25 2020.

 ----------------------------------------------------------------------
 # B3LYP/6-311++G(d,p) empiricaldispersion=gd3bj scf=xqc pop=npa geom=c
 heck
 ----------------------------------------------------------------------

 --------------------------------------
 CID_64733690_JID_7550_Energie_neutraal
 --------------------------------------
 Structure from the checkpoint file:  "JID_7550.chk"
 Charge =  0 Multiplicity = 1

 SCF Done:  E(RB3LYP) =  -734.179702717     A.U. after   15 cycles
 Normal termination of Gaussian 16 at Thu Dec 17 20:53:53 2020.

 ----------------------------------------------------------------------
 # B3LYP/6-311++G(d,p) empiricaldispersion=gd3bj scf=xqc pop=npa geom=c
 heck
 ----------------------------------------------------------------------

 ------------------------------------
 CID_64733690_JID_7550_Energie_kation
 ------------------------------------
 Structure from the checkpoint file:  "JID_7550.chk"
 Charge =  1 Multiplicity = 2

 SCF Done:  E(UB3LYP) =  -733.877227365     A.U. after   24 cycles
 Normal termination of Gaussian 16 at Thu Dec 17 21:12:02 2020.
 Gaussian 16:  ES64L-G16RevA.03 25-Dec-2016

 ----------------------------------------------------------------------
 # B3LYP/6-311++G(d,p) empiricaldispersion=gd3bj scf=xqc pop=npa geom=c
 heck
 ----------------------------------------------------------------------

 -----------------------------------
 CID_64733690_JID_7550_Energie_anion
 -----------------------------------
 Structure from the checkpoint file:  "JID_7550.chk"
 Charge = -1 Multiplicity = 2

                         Standard orientation:
 ---------------------------------------------------------------------
 Center     Atomic      Atomic             Coordinates (Angstroms)
 Number     Number       Type             X           Y           Z
 ---------------------------------------------------------------------
      1          6           0        2.638729    1.565588    1.453911
      2          6           0        2.780072    1.493047   -0.075412
      3          6           0        3.786241    0.438321   -0.587997
      4          6           0        3.278272   -1.018507   -0.625858
      5          6           0        1.903479   -1.085298   -1.327529
      6          6           0        0.848886   -0.082365   -0.823992
      7          6           0        1.427499    1.347919   -0.799988
      8          7           0        0.292763   -0.527727    0.453075
      9          6           0       -0.968954   -0.471185    0.977424
     10          8           0       -1.179601   -0.966341    2.083327
     11          6           0       -2.124791    0.127445    0.146968
     12          6           0       -3.372378    0.332489    1.026683
     13          6           0       -4.578980    0.278090    0.055782
     14          6           0       -4.054325   -0.400724   -1.241362
     15          6           0       -2.644154   -0.905317   -0.886631
     16          7           0       -1.756545    1.426408   -0.455768
     17          6           0        3.342655   -1.730231    0.736243
     18          1           0        2.057242    2.451548    1.733267
     19          1           0        3.622677    1.643520    1.931515
     20          1           0        2.122711    0.706502    1.885273
     21          1           0        3.189018    2.467502   -0.378079
     22          1           0        4.056046    0.718320   -1.616206
     23          1           0        4.713327    0.492182   -0.002204
     24          1           0        3.968890   -1.575313   -1.274675
     25          1           0        1.494976   -2.101962   -1.275352
     26          1           0        2.064763   -0.862982   -2.390705
     27          1           0        0.030197   -0.101844   -1.548518
     28          1           0        0.678865    2.017194   -0.367714
     29          1           0        1.565950    1.648740   -1.849287
     30          1           0        0.922807   -0.997561    1.088322
     31          1           0       -3.409481   -0.476650    1.756615
     32          1           0       -3.305246    1.268759    1.590834
     33          1           0       -4.972702    1.277247   -0.161675
     34          1           0       -5.404286   -0.286473    0.500309
     35          1           0       -3.995172    0.329855   -2.055983
     36          1           0       -4.704010   -1.209494   -1.589151
     37          1           0       -1.987746   -1.004286   -1.759102
     38          1           0       -2.696458   -1.888663   -0.403542
     39          1           0       -1.459800    1.316611   -1.422548
     40          1           0       -2.571326    2.034393   -0.476575
     41          1           0        2.935593   -2.745884    0.667529
     42          1           0        4.384311   -1.810638    1.067593
     43          1           0        2.808631   -1.206277    1.532844
 ---------------------------------------------------------------------

 SCF Done:  E(UB3LYP) =  -734.172388675     A.U. after   29 cycles

 The electronic state is 2-A.
 Alpha  occ. eigenvalues --  -18.98407 -14.23020 -14.19894 -10.16886 -10.11769
 Alpha  occ. eigenvalues --  -10.11235 -10.08001 -10.07527 -10.07525 -10.07501
 Alpha  occ. eigenvalues --  -10.07370 -10.07026 -10.06979 -10.06770 -10.06563
 Alpha  occ. eigenvalues --  -10.06192 -10.05808  -0.93658  -0.82411  -0.80367
 Alpha  occ. eigenvalues --   -0.73434  -0.71592  -0.67801  -0.65602  -0.62136
 Alpha  occ. eigenvalues --   -0.61705  -0.59399  -0.58333  -0.53087  -0.51407
 Alpha  occ. eigenvalues --   -0.49096  -0.48239  -0.45365  -0.43727  -0.40782
 Alpha  occ. eigenvalues --   -0.39471  -0.38951  -0.38478  -0.36429  -0.36211
 Alpha  occ. eigenvalues --   -0.35344  -0.34242  -0.33621  -0.32679  -0.31974
 Alpha  occ. eigenvalues --   -0.31656  -0.31132  -0.30972  -0.29774  -0.27480
 Alpha  occ. eigenvalues --   -0.26998  -0.26562  -0.25982  -0.25683  -0.25127
 Alpha  occ. eigenvalues --   -0.25039  -0.24895  -0.24116  -0.23609  -0.22662
 Alpha  occ. eigenvalues --   -0.22100  -0.20644  -0.20078  -0.17231  -0.14795
 Alpha  occ. eigenvalues --   -0.13837   0.03844
 Alpha virt. eigenvalues --    0.05835   0.07142   0.07311   0.07881   0.08316
 Alpha virt. eigenvalues --    0.08698   0.09622   0.09705   0.10084   0.10267
 Alpha virt. eigenvalues --    0.10809   0.10937   0.11350   0.11759   0.12569

  Beta  occ. eigenvalues --  -18.98406 -14.23015 -14.19856 -10.16885 -10.11767
  Beta  occ. eigenvalues --  -10.11222 -10.07992 -10.07523 -10.07510 -10.07483
  Beta  occ. eigenvalues --  -10.07348 -10.07012 -10.06955 -10.06765 -10.06543
  Beta  occ. eigenvalues --  -10.06183 -10.05788  -0.93655  -0.82395  -0.80321
  Beta  occ. eigenvalues --   -0.73402  -0.71545  -0.67772  -0.65568  -0.62102
  Beta  occ. eigenvalues --   -0.61662  -0.59366  -0.58294  -0.53055  -0.51375
  Beta  occ. eigenvalues --   -0.49063  -0.48183  -0.45327  -0.43698  -0.40747
  Beta  occ. eigenvalues --   -0.39417  -0.38902  -0.38432  -0.36397  -0.36176
  Beta  occ. eigenvalues --   -0.35319  -0.34208  -0.33603  -0.32654  -0.31951
  Beta  occ. eigenvalues --   -0.31628  -0.31109  -0.30948  -0.29759  -0.27456
  Beta  occ. eigenvalues --   -0.26971  -0.26531  -0.25955  -0.25660  -0.25097
  Beta  occ. eigenvalues --   -0.25011  -0.24864  -0.24085  -0.23583  -0.22636
  Beta  occ. eigenvalues --   -0.22065  -0.20614  -0.20042  -0.17210  -0.14777
  Beta  occ. eigenvalues --   -0.13814
  Beta virt. eigenvalues --    0.06025   0.06519   0.07596   0.07914   0.08210
  Beta virt. eigenvalues --    0.08678   0.08867   0.09939   0.10096   0.10218
  Beta virt. eigenvalues --    0.10457   0.11014   0.11059   0.11631   0.11892

 Mulliken charges and spin densities:
               1          2
     1  C   -0.212843  -0.443712
     2  C   -0.254343   0.532365
     3  C    0.644274  -1.375416
     4  C   -0.386636   0.790237
     5  C    0.732150  -1.625037
     6  C   -0.098024   0.753619
     7  C   -0.469633  -0.414864
     8  N   -0.064975   0.016774
     9  C   -0.445055  -0.087708
    10  O   -0.272233  -0.005171
    11  C    0.254129   0.413883
    12  C    0.038408  -0.812790
    13  C   -0.129897  -0.139216
    14  C    0.346701  -0.871232
    15  C   -0.413877   0.244732
    16  N   -0.294201  -0.052551
    17  C    0.073410  -0.722541
    18  H    0.034643   0.096615
    19  H    0.120746   0.021901
    20  H    0.156415  -0.007441
    21  H   -0.080734   0.289558
    22  H   -0.027163   0.177444
    23  H   -0.208410   0.363333
    24  H   -0.358009   0.577335
    25  H   -0.038486   0.211118
    26  H   -0.392627   0.569646
    27  H    0.496399  -0.244754
    28  H    0.250962  -0.017721
    29  H   -0.518536   0.681750
    30  H    0.515716  -0.146653
    31  H    0.169101   0.038478
    32  H    0.141902   0.028502
    33  H   -0.086466   0.236684
    34  H    0.084647   0.040218
    35  H   -0.181626   0.352449
    36  H   -0.029205   0.192724
    37  H   -0.188808   0.303651
    38  H    0.088330   0.105734
    39  H   -0.136135   0.401395
    40  H    0.114269   0.179022
    41  H    0.061739   0.080394
    42  H    0.002104   0.147159
    43  H   -0.038118   0.120084
 Sum of Mulliken charges =  -1.00000   1.00000

 Dipole moment (field-independent basis, Debye):
    X=             -1.4964    Y=             -0.8681    Z=              3.8442  Tot=              4.2155
 Quadrupole moment (field-independent basis, Debye-Ang):
   XX=           -182.1766   YY=           -144.2601   ZZ=           -159.2250
   XY=              2.9603   XZ=              6.1527   YZ=              5.0512

 Summary of Natural Population Analysis:

                                       Natural Population
                Natural  -----------------------------------------------
    Atom  No    Charge         Core      Valence    Rydberg      Total
 -----------------------------------------------------------------------
      C    1   -0.28306      0.99964     2.27767    0.00576     3.28306
      C    2   -0.11349      0.99959     2.10337    0.01052     3.11349
      C    3   -0.18602      0.99959     2.17615    0.01028     3.18602
      C    4   -0.11494      0.99959     2.10387    0.01148     3.11494
      C    5   -0.18767      0.99959     2.17802    0.01006     3.18767
      C    6   -0.01377      0.99956     1.99893    0.01528     3.01377
      C    7   -0.19527      0.99958     2.18587    0.00981     3.19527
      N    8   -0.31945      0.99965     2.81018    0.00963     3.81945
      C    9    0.35465      0.99959     1.62251    0.02325     2.64535
      O   10   -0.33569      0.99988     3.33088    0.00494     4.33569
      C   11    0.02062      0.99951     1.96536    0.01451     2.97938
      C   12   -0.19350      0.99960     2.18472    0.00918     3.19350
      C   13   -0.19717      0.99965     2.18910    0.00842     3.19717
      C   14   -0.19517      0.99964     2.18726    0.00827     3.19517
      C   15   -0.19235      0.99959     2.18413    0.00863     3.19235
      N   16   -0.42519      0.99975     2.91403    0.01141     3.92519
      C   17   -0.28617      0.99964     2.28056    0.00597     3.28617
      H   18    0.09965      0.00000     0.39965    0.00070     0.40035
      H   19    0.09494      0.00000     0.40437    0.00069     0.40506
      H   20    0.09533      0.00000     0.40369    0.00098     0.40467
      H   21    0.09625      0.00000     0.40224    0.00151     0.40375
      H   22    0.10209      0.00000     0.39640    0.00151     0.39791
      H   23    0.09697      0.00000     0.40201    0.00101     0.40303
      H   24    0.09869      0.00000     0.39938    0.00194     0.40131
      H   25    0.10063      0.00000     0.39813    0.00124     0.39937
      H   26    0.10725      0.00000     0.39090    0.00185     0.39275
      H   27    0.09957      0.00000     0.39764    0.00279     0.40043
      H   28    0.11446      0.00000     0.38391    0.00163     0.38554
      H   29    0.10157      0.00000     0.39665    0.00177     0.39843
      H   30    0.19332      0.00000     0.30360    0.00307     0.30668
      H   31    0.11519      0.00000     0.38369    0.00112     0.38481
      H   32    0.10184      0.00000     0.39723    0.00092     0.39816
      H   33    0.09687      0.00000     0.40210    0.00103     0.40313
      H   34    0.09745      0.00000     0.40176    0.00079     0.40255
      H   35    0.09999      0.00000     0.39822    0.00179     0.40001
      H   36    0.09894      0.00000     0.40022    0.00083     0.40106
      H   37    0.10384      0.00000     0.39476    0.00140     0.39616
      H   38    0.10056      0.00000     0.39832    0.00112     0.39944
      H   39    0.17904      0.00000     0.31787    0.00310     0.32096
      H   40    0.17856      0.00000     0.31947    0.00197     0.32144
      H   41    0.09907      0.00000     0.40018    0.00076     0.40093
      H   42    0.10040      0.00000     0.39883    0.00076     0.39960
      H   43    0.09120      0.00000     0.40762    0.00118     0.40880
 =======================================================================
   * Total *    0.00000     16.99365    48.79148    0.21487    66.00000

 Normal termination of Gaussian 16 at Thu Dec 17 21:33:48 2020.
