 Gaussian 16, Revision A.03,

 -----------------------------------------------------------
 # opt freq B3LYP/6-31G(d) empiricaldispersion=gd3bj scf=xqc
 -----------------------------------------------------------

 -----------------------------
 CID_20470600_JID_649_neutraal
 -----------------------------
 Symbolic Z-matrix:
 Charge =  0 Multiplicity = 1

 SCF Done:  E(RB3LYP) =  -869.412821363     A.U. after   16 cycles
 SCF Done:  E(RB3LYP) =  -869.419339456     A.U. after   14 cycles
 SCF Done:  E(RB3LYP) =  -869.420522735     A.U. after   14 cycles
 SCF Done:  E(RB3LYP) =  -869.419043661     A.U. after   14 cycles
 SCF Done:  E(RB3LYP) =  -869.420842698     A.U. after   13 cycles
 SCF Done:  E(RB3LYP) =  -869.420955238     A.U. after   13 cycles
 SCF Done:  E(RB3LYP) =  -869.421013960     A.U. after   12 cycles
 SCF Done:  E(RB3LYP) =  -869.421065750     A.U. after   13 cycles
 SCF Done:  E(RB3LYP) =  -869.421098984     A.U. after   12 cycles
 SCF Done:  E(RB3LYP) =  -869.421112103     A.U. after   11 cycles
 SCF Done:  E(RB3LYP) =  -869.421115532     A.U. after   10 cycles
 SCF Done:  E(RB3LYP) =  -869.421116185     A.U. after    9 cycles
 SCF Done:  E(RB3LYP) =  -869.421116350     A.U. after    8 cycles
 SCF Done:  E(RB3LYP) =  -869.421116406     A.U. after    8 cycles
 Optimization completed.
    -- Stationary point found.
 Normal termination of Gaussian 16 at Tue Dec  8 12:24:48 2020.

 --------------------------------------------------------------------
 #N Geom=AllCheck Guess=TCheck SCRF=Check GenChk RB3LYP/6-31G(d) Freq
 --------------------------------------------------------------------

 Structure from the checkpoint file:  "JID_649.chk"
 -----------------------------
 CID_20470600_JID_649_neutraal
 -----------------------------
 Charge =  0 Multiplicity = 1

 SCF Done:  E(RB3LYP) =  -869.421116406     A.U. after    1 cycles

  Exact polarizability: 111.444  -2.423  96.695   2.564   0.398  53.369
 Approx polarizability: 195.603  -8.287 161.222   3.354   0.465  81.739

                      1                      2                      3
                      A                      A                      A
 Frequencies --     50.2772                93.6278               126.6525
 Red. masses --      5.7207                 6.9234                 6.2025
 Frc consts  --      0.0085                 0.0358                 0.0586
 IR Inten    --      2.7673                 0.3912                 0.9885

                      4                      5                      6
                      A                      A                      A
 Frequencies --    181.9535               228.3834               254.9829
 Red. masses --      1.7690                 2.2724                 3.3122
 Frc consts  --      0.0345                 0.0698                 0.1269
 IR Inten    --      0.2262                 1.4616                 7.3778

                      7                      8                      9
                      A                      A                      A
 Frequencies --    307.4907               343.4615               392.7795
 Red. masses --      2.7278                 2.4336                 8.7104
 Frc consts  --      0.1520                 0.1691                 0.7917
 IR Inten    --      9.6136                 6.4304                 5.7932

                     10                     11                     12
                      A                      A                      A
 Frequencies --    412.7959               467.7251               531.1034
 Red. masses --      1.6969                 2.9358                 4.4595
 Frc consts  --      0.1704                 0.3784                 0.7411
 IR Inten    --     46.1803                19.2448                 0.6915

                     13                     14                     15
                      A                      A                      A
 Frequencies --    536.9316               568.7296               688.7153
 Red. masses --      6.4284                 6.7946                 3.5735
 Frc consts  --      1.0919                 1.2949                 0.9987
 IR Inten    --      2.2470                10.1166                32.0865

                     16                     17                     18
                      A                      A                      A
 Frequencies --    716.1005               748.1364               768.0632
 Red. masses --      4.0510                 7.5425                 1.2908
 Frc consts  --      1.2239                 2.4873                 0.4487
 IR Inten    --     25.5332                13.7017                45.9780

                     19                     20                     21
                      A                      A                      A
 Frequencies --    816.0615               833.0450               879.5949
 Red. masses --      3.2212                 4.2918                 2.9486
 Frc consts  --      1.2639                 1.7548                 1.3441
 IR Inten    --     96.9674                80.2328               161.9911

                     22                     23                     24
                      A                      A                      A
 Frequencies --   1003.6914              1077.2947              1081.9603
 Red. masses --      2.7369                 1.7687                 1.5534
 Frc consts  --      1.6244                 1.2094                 1.0714
 IR Inten    --     12.5524                10.9903                 3.2675

                     25                     26                     27
                      A                      A                      A
 Frequencies --   1125.4983              1133.6846              1209.8854
 Red. masses --      4.4736                 1.5420                 2.3560
 Frc consts  --      3.3388                 1.1676                 2.0319
 IR Inten    --     51.6610                15.7164                26.0903

                     28                     29                     30
                      A                      A                      A
 Frequencies --   1214.6375              1279.3203              1341.5569
 Red. masses --      1.6750                 1.6404                 7.7239
 Frc consts  --      1.4560                 1.5818                 8.1904
 IR Inten    --      8.1626                 4.5507               562.2221

                     31                     32                     33
                      A                      A                      A
 Frequencies --   1373.9823              1448.0681              1451.4656
 Red. masses --      2.3145                 1.2576                 1.2367
 Frc consts  --      2.5743                 1.5537                 1.5350
 IR Inten    --     20.0716                 1.9353                26.7827

                     34                     35                     36
                      A                      A                      A
 Frequencies --   1502.1296              1515.1179              1638.6495
 Red. masses --      1.0473                 1.0816                10.1019
 Frc consts  --      1.3924                 1.4628                15.9818
 IR Inten    --     10.4273                25.5483               272.8651

                     37                     38                     39
                      A                      A                      A
 Frequencies --   1683.9844              1698.2772              3068.1190
 Red. masses --      1.1545                 5.9685                 1.0381
 Frc consts  --      1.9289                10.1422                 5.7573
 IR Inten    --     33.0071                 8.0919                19.0809

                     40                     41                     42
                      A                      A                      A
 Frequencies --   3133.9012              3148.4252              3158.9312
 Red. masses --      1.1003                 1.0865                 1.1014
 Frc consts  --      6.3669                 6.3458                 6.4753
 IR Inten    --     13.5898                 1.9884                 5.0629

                     43                     44                     45
                      A                      A                      A
 Frequencies --   3265.3535              3494.6103              3591.0823
 Red. masses --      1.0943                 1.0478                 1.0953
 Frc consts  --      6.8747                 7.5394                 8.3219
 IR Inten    --      4.1412                 5.7118                 8.4839

 - Thermochemistry -
 -------------------
 Temperature   298.150 Kelvin.  Pressure   1.00000 Atm.
 Atom     1 has atomic number  6 and mass  12.00000

 Molecular mass:   161.02590 amu.
 Principal axes and moments of inertia in atomic units:
                           1         2         3
     Eigenvalues --  1115.152231591.953392456.32182
           X            0.99759   0.06933   0.00156
           Y           -0.06933   0.99758   0.00441
           Z           -0.00125  -0.00451   0.99999
 This molecule is an asymmetric top.
 Rotational symmetry number  1.
 Warning -- assumption of classical behavior for rotation
           may cause significant error
 Rotational temperatures (Kelvin)      0.07767     0.05441     0.03526
 Rotational constants (GHZ):           1.61838     1.13366     0.73473
 Zero-point vibrational energy     332479.5 (Joules/Mol)
                                   79.46452 (Kcal/Mol)
 Warning -- explicit consideration of  14 degrees of freedom as
           vibrations may cause significant error
 Vibrational temperatures:     72.34   134.71   182.22   261.79   328.59
          (Kelvin)            366.86   442.41   494.16   565.12   593.92
                              672.95   764.14   772.52   818.28   990.91
                             1030.31  1076.40  1105.07  1174.13  1198.57
                             1265.54  1444.09  1549.99  1556.70  1619.34
                             1631.12  1740.76  1747.59  1840.66  1930.20
                             1976.85  2083.45  2088.34  2161.23  2179.92
                             2357.65  2422.88  2443.44  4414.34  4508.98
                             4529.88  4545.00  4698.12  5027.96  5166.77

 Zero-point correction=                           0.126635 (Hartree/Particle)
 Thermal correction to Energy=                    0.136374
 Thermal correction to Enthalpy=                  0.137318
 Thermal correction to Gibbs Free Energy=         0.091067
 Sum of electronic and zero-point Energies=           -869.294482
 Sum of electronic and thermal Energies=              -869.284743
 Sum of electronic and thermal Enthalpies=            -869.283798
 Sum of electronic and thermal Free Energies=         -869.330050

                     E (Thermal)             CV                S
                      KCal/Mol        Cal/Mol-Kelvin    Cal/Mol-Kelvin
 Total                   85.576             35.750             97.344
 Electronic               0.000              0.000              0.000
 Translational            0.889              2.981             41.138
 Rotational               0.889              2.981             29.857
 Vibrational             83.798             29.789             26.349
 Vibration     1          0.595              1.977              4.806
 Vibration     2          0.603              1.954              3.583
 Vibration     3          0.611              1.926              2.996
 Vibration     4          0.630              1.864              2.308
 Vibration     5          0.651              1.798              1.892
 Vibration     6          0.665              1.754              1.696
 Vibration     7          0.697              1.659              1.376
 Vibration     8          0.722              1.589              1.196
 Vibration     9          0.760              1.486              0.990
 Vibration    10          0.777              1.442              0.917
 Vibration    11          0.825              1.322              0.744
 Vibration    12          0.886              1.181              0.585
 Vibration    13          0.892              1.168              0.572
 Vibration    14          0.925              1.099              0.507

 Optimization completed.
    -- Stationary point found.
 Normal termination of Gaussian 16 at Tue Dec  8 12:27:56 2020.

 ----------------------------------------------------------------------
 # B3LYP/6-311++G(d,p) empiricaldispersion=gd3bj scf=xqc pop=npa geom=c
 heck
 ----------------------------------------------------------------------

 -------------------------------------
 CID_20470600_JID_649_Energie_neutraal
 -------------------------------------
 Structure from the checkpoint file:  "JID_649.chk"
 Charge =  0 Multiplicity = 1

 SCF Done:  E(RB3LYP) =  -869.592932025     A.U. after   15 cycles
 Normal termination of Gaussian 16 at Tue Dec  8 12:32:30 2020.

 ----------------------------------------------------------------------
 # B3LYP/6-311++G(d,p) empiricaldispersion=gd3bj scf=xqc pop=npa geom=c
 heck
 ----------------------------------------------------------------------

 -----------------------------------
 CID_20470600_JID_649_Energie_kation
 -----------------------------------
 Structure from the checkpoint file:  "JID_649.chk"
 Charge =  1 Multiplicity = 2

 SCF Done:  E(UB3LYP) =  -869.293464643     A.U. after   23 cycles
 Normal termination of Gaussian 16 at Tue Dec  8 12:40:02 2020.
 Gaussian 16:  ES64L-G16RevA.03 25-Dec-2016

 ----------------------------------------------------------------------
 # B3LYP/6-311++G(d,p) empiricaldispersion=gd3bj scf=xqc pop=npa geom=c
 heck
 ----------------------------------------------------------------------

 ----------------------------------
 CID_20470600_JID_649_Energie_anion
 ----------------------------------
 Structure from the checkpoint file:  "JID_649.chk"
 Charge = -1 Multiplicity = 2

                         Standard orientation:
 ---------------------------------------------------------------------
 Center     Atomic      Atomic             Coordinates (Angstroms)
 Number     Number       Type             X           Y           Z
 ---------------------------------------------------------------------
      1          6           0        1.116794    2.323497    0.547131
      2          6           0        0.102380    1.307639    0.116248
      3          6           0       -1.193146    1.554675   -0.129405
      4         16           0       -2.210190    0.145702   -0.428778
      5          6           0       -0.796754   -1.009204   -0.112250
      6          7           0        0.371310   -0.088635    0.093605
      7          7           0        1.602574   -0.624855   -0.219677
      8          8           0        2.554061    0.136814   -0.371436
      9          8           0        1.647186   -1.859483   -0.283050
     10          7           0       -1.103310   -1.903947    0.950585
     11          1           0        1.608923    2.014450    1.475455
     12          1           0        0.606372    3.274239    0.724257
     13          1           0        1.898657    2.470697   -0.199847
     14          1           0       -1.648764    2.534550   -0.082255
     15          1           0       -0.588059   -1.594725   -1.007062
     16          1           0       -0.348651   -2.578672    1.056947
     17          1           0       -1.245084   -1.408005    1.826897
 ---------------------------------------------------------------------

 SCF Done:  E(UB3LYP) =  -869.601654534     A.U. after   27 cycles

 The electronic state is 2-A.
 Alpha  occ. eigenvalues --  -88.72584 -18.93558 -18.93479 -14.32091 -14.22794
 Alpha  occ. eigenvalues --  -14.17483 -10.13903 -10.08377 -10.05031 -10.04811
 Alpha  occ. eigenvalues --   -7.81233  -5.77594  -5.77259  -5.76640  -1.03475
 Alpha  occ. eigenvalues --   -0.85224  -0.83149  -0.76143  -0.68113  -0.63399
 Alpha  occ. eigenvalues --   -0.55359  -0.53362  -0.47296  -0.41204  -0.39213
 Alpha  occ. eigenvalues --   -0.37513  -0.35729  -0.33666  -0.31215  -0.31018
 Alpha  occ. eigenvalues --   -0.30078  -0.29082  -0.27237  -0.24458  -0.21605
 Alpha  occ. eigenvalues --   -0.20277  -0.15705  -0.14252  -0.13006  -0.12202
 Alpha  occ. eigenvalues --   -0.09800  -0.06600   0.05760
 Alpha virt. eigenvalues --    0.08676   0.09921   0.10583   0.11999   0.12397
 Alpha virt. eigenvalues --    0.13189   0.13534   0.14428   0.15535   0.16127
 Alpha virt. eigenvalues --    0.16934   0.17853   0.19149   0.19505   0.19791

  Beta  occ. eigenvalues --  -88.72585 -18.93109 -18.92996 -14.30939 -14.22889
  Beta  occ. eigenvalues --  -14.17443 -10.13890 -10.08335 -10.04865 -10.04809
  Beta  occ. eigenvalues --   -7.81234  -5.77598  -5.77264  -5.76635  -1.02049
  Beta  occ. eigenvalues --   -0.84370  -0.82968  -0.76026  -0.67809  -0.63343
  Beta  occ. eigenvalues --   -0.55269  -0.52654  -0.47090  -0.40962  -0.38801
  Beta  occ. eigenvalues --   -0.36214  -0.34584  -0.32542  -0.30887  -0.30275
  Beta  occ. eigenvalues --   -0.29220  -0.28794  -0.27054  -0.24333  -0.21547
  Beta  occ. eigenvalues --   -0.19772  -0.15454  -0.13937  -0.12021  -0.09729
  Beta  occ. eigenvalues --   -0.09305  -0.06028
  Beta virt. eigenvalues --    0.08603   0.10020   0.10513   0.11982   0.12306
  Beta virt. eigenvalues --    0.12850   0.13655   0.14359   0.14459   0.15634
  Beta virt. eigenvalues --    0.16946   0.17795   0.18228   0.19316   0.19511

 Mulliken charges and spin densities:
               1          2
     1  C   -0.669746  -0.096283
     2  C   -0.904079   0.114490
     3  C    0.593186   0.128699
     4  S   -0.432859   0.003399
     5  C    0.045649  -0.381052
     6  N    0.609419  -0.012137
     7  N   -0.433781   0.390483
     8  O   -0.242489   0.201821
     9  O   -0.269381   0.178176
    10  N   -0.286217   0.040120
    11  H    0.090752   0.076125
    12  H    0.091260   0.005735
    13  H    0.194444  -0.007713
    14  H    0.220435  -0.009210
    15  H    0.312624  -0.021996
    16  H    0.067331   0.195423
    17  H    0.013453   0.193920
 Sum of Mulliken charges =  -1.00000   1.00000

 Dipole moment (field-independent basis, Debye):
    X=             -4.0508    Y=              3.9834    Z=              0.4858  Tot=              5.7020
 Quadrupole moment (field-independent basis, Debye-Ang):
   XX=           -101.7459   YY=            -83.3774   ZZ=            -75.6286
   XY=              2.8724   XZ=              3.4655   YZ=              2.6972

 Summary of Natural Population Analysis:

                                       Natural Population
                Natural  -----------------------------------------------
    Atom  No    Charge         Core      Valence    Rydberg      Total
 -----------------------------------------------------------------------
      C    1   -0.29241      0.99962     2.28741    0.00538     3.29241
      C    2    0.08054      0.99943     1.90866    0.01137     2.91946
      C    3   -0.18287      0.99939     2.17339    0.01008     3.18287
      S    4    0.09739      4.99956     2.88267    0.02039     7.90261
      C    5    0.03224      0.99964     1.94656    0.02157     2.96776
      N    6   -0.19316      0.99960     2.67996    0.01360     3.69316
      N    7    0.43607      0.99977     2.03576    0.02841     3.06393
      O    8   -0.20833      0.99990     3.20139    0.00704     4.20833
      O    9   -0.22719      0.99990     3.21993    0.00735     4.22719
      N   10   -0.42758      0.99973     2.91587    0.01198     3.92758
      H   11    0.10616      0.00000     0.39212    0.00172     0.39384
      H   12    0.09152      0.00000     0.40736    0.00111     0.40848
      H   13    0.11549      0.00000     0.38275    0.00175     0.38451
      H   14    0.09999      0.00000     0.39920    0.00081     0.40001
      H   15    0.10486      0.00000     0.39376    0.00137     0.39514
      H   16    0.19166      0.00000     0.30580    0.00254     0.30834
      H   17    0.17561      0.00000     0.32123    0.00316     0.32439
 =======================================================================
   * Total *   -0.00000     13.99653    27.85384    0.14963    42.00000

 Normal termination of Gaussian 16 at Tue Dec  8 12:49:38 2020.
