 Gaussian 16, Revision A.03,

 -----------------------------------------------------------
 # opt freq B3LYP/6-31G(d) empiricaldispersion=gd3bj scf=xqc
 -----------------------------------------------------------

 -------------------------------
 CID_115313440_JID_7612_neutraal
 -------------------------------
 Symbolic Z-matrix:
 Charge =  0 Multiplicity = 1

 SCF Done:  E(RB3LYP) =  -798.201308006     A.U. after   16 cycles
 SCF Done:  E(RB3LYP) =  -798.210063877     A.U. after   15 cycles
 SCF Done:  E(RB3LYP) =  -798.209686150     A.U. after   14 cycles
 SCF Done:  E(RB3LYP) =  -798.205013877     A.U. after   15 cycles
 SCF Done:  E(RB3LYP) =  -798.204444799     A.U. after   14 cycles
 SCF Done:  E(RB3LYP) =  -798.210380010     A.U. after   11 cycles
 SCF Done:  E(RB3LYP) =  -798.210783621     A.U. after   14 cycles
 SCF Done:  E(RB3LYP) =  -798.210913767     A.U. after   12 cycles
 SCF Done:  E(RB3LYP) =  -798.210941818     A.U. after   11 cycles
 SCF Done:  E(RB3LYP) =  -798.210953221     A.U. after   12 cycles
 SCF Done:  E(RB3LYP) =  -798.213882751     A.U. after    9 cycles
 SCF Done:  E(RB3LYP) =  -798.213885049     A.U. after    9 cycles
 SCF Done:  E(RB3LYP) =  -798.213887333     A.U. after   11 cycles
 SCF Done:  E(RB3LYP) =  -798.213888067     A.U. after   11 cycles
 SCF Done:  E(RB3LYP) =  -798.213888234     A.U. after   10 cycles
 SCF Done:  E(RB3LYP) =  -798.213888241     A.U. after    8 cycles
 Optimization completed.
    -- Stationary point found.
 Normal termination of Gaussian 16 at Fri Dec 11 13:17:15 2020.

 --------------------------------------------------------------------
 #N Geom=AllCheck Guess=TCheck SCRF=Check GenChk RB3LYP/6-31G(d) Freq
 --------------------------------------------------------------------

 Structure from the checkpoint file:  "JID_7612.chk"
 -------------------------------
 CID_115313440_JID_7612_neutraal
 -------------------------------
 Charge =  0 Multiplicity = 1

 SCF Done:  E(RB3LYP) =  -798.213888241     A.U. after    1 cycles

  Exact polarizability: 237.882  -1.848 137.472   2.682   9.818  94.807
 Approx polarizability: 329.277  -5.103 250.042   7.998  33.443 150.663

                      1                      2                      3
                      A                      A                      A
 Frequencies --     26.8122                37.2742                55.0951
 Red. masses --      4.7031                 5.0604                 6.8942
 Frc consts  --      0.0020                 0.0041                 0.0123
 IR Inten    --      1.0312                 1.4436                 1.1748

                      4                      5                      6
                      A                      A                      A
 Frequencies --     76.7012               132.2645               135.4171
 Red. masses --      4.6013                 4.2904                 3.6342
 Frc consts  --      0.0159                 0.0442                 0.0393
 IR Inten    --      0.2920                 2.0878                 1.6430

                      7                      8                      9
                      A                      A                      A
 Frequencies --    169.1979               186.5274               223.9159
 Red. masses --      2.2749                 1.1873                 4.8549
 Frc consts  --      0.0384                 0.0243                 0.1434
 IR Inten    --      7.0693                19.7098                 0.5973

                     10                     11                     12
                      A                      A                      A
 Frequencies --    254.0600               268.0670               286.6715
 Red. masses --      3.0593                 2.3835                 1.8496
 Frc consts  --      0.1163                 0.1009                 0.0896
 IR Inten    --      9.1296                 2.6218                16.4673

                     13                     14                     15
                      A                      A                      A
 Frequencies --    300.0200               351.6153               396.4843
 Red. masses --      3.0220                 3.6687                 2.0586
 Frc consts  --      0.1603                 0.2672                 0.1907
 IR Inten    --      2.4810                 3.2138                 2.4541

                     16                     17                     18
                      A                      A                      A
 Frequencies --    404.3445               430.9923               439.5721
 Red. masses --      2.4505                 3.4330                 4.3040
 Frc consts  --      0.2361                 0.3757                 0.4900
 IR Inten    --      1.8686                 5.5986                 3.8270

                     19                     20                     21
                      A                      A                      A
 Frequencies --    447.8340               475.1116               529.6347
 Red. masses --      2.8573                 4.1043                 3.8797
 Frc consts  --      0.3376                 0.5459                 0.6412
 IR Inten    --     18.4695                 1.1136                 3.9795

                     22                     23                     24
                      A                      A                      A
 Frequencies --    547.7990               561.2189               630.0979
 Red. masses --      5.3717                 3.4137                 4.5891
 Frc consts  --      0.9497                 0.6335                 1.0735
 IR Inten    --      2.3986                15.0119                 8.5496

                     25                     26                     27
                      A                      A                      A
 Frequencies --    647.3610               705.0307               741.2796
 Red. masses --      7.6734                 4.3494                 4.8108
 Frc consts  --      1.8947                 1.2738                 1.5575
 IR Inten    --      5.4344                17.7878                24.7559

                     28                     29                     30
                      A                      A                      A
 Frequencies --    754.5953               776.8829               789.3032
 Red. masses --      1.9986                 7.2085                 3.6661
 Frc consts  --      0.6705                 2.5634                 1.3457
 IR Inten    --      1.3337                 6.5847                31.4160

                     31                     32                     33
                      A                      A                      A
 Frequencies --    847.2441               852.7837               863.1904
 Red. masses --      1.6825                 1.9254                 2.0813
 Frc consts  --      0.7116                 0.8250                 0.9137
 IR Inten    --     22.7150                57.7732                 7.1196

                     34                     35                     36
                      A                      A                      A
 Frequencies --    873.5239               887.3610               908.1987
 Red. masses --      4.7830                 1.9294                 1.4610
 Frc consts  --      2.1503                 0.8951                 0.7100
 IR Inten    --     30.7747               157.7612                 9.1598

                     37                     38                     39
                      A                      A                      A
 Frequencies --    932.6734               965.5042               982.8558
 Red. masses --      2.1437                 2.4459                 1.3363
 Frc consts  --      1.0987                 1.3434                 0.7605
 IR Inten    --      5.2275                 7.4511                 0.8433

                     40                     41                     42
                      A                      A                      A
 Frequencies --   1005.6618              1017.0820              1030.4236
 Red. masses --      2.0133                 2.0115                 3.1297
 Frc consts  --      1.1996                 1.2260                 1.9579
 IR Inten    --     15.0248                 4.0535                13.7229

                     43                     44                     45
                      A                      A                      A
 Frequencies --   1057.4717              1080.2510              1097.3662
 Red. masses --      1.7211                 1.7064                 2.0665
 Frc consts  --      1.1340                 1.1732                 1.4662
 IR Inten    --     25.6336                14.6835                15.4939

                     46                     47                     48
                      A                      A                      A
 Frequencies --   1126.5689              1145.0894              1159.1774
 Red. masses --      1.6258                 1.6252                 1.5081
 Frc consts  --      1.2157                 1.2556                 1.1939
 IR Inten    --     30.7285                87.6308                37.5667

                     49                     50                     51
                      A                      A                      A
 Frequencies --   1182.3641              1208.2723              1215.2995
 Red. masses --      2.9572                 1.4585                 2.1648
 Frc consts  --      2.4358                 1.2546                 1.8838
 IR Inten    --     66.4772                19.4633                 4.4291

                     52                     53                     54
                      A                      A                      A
 Frequencies --   1261.6182              1291.1062              1324.8879
 Red. masses --      1.6317                 1.5386                 1.3116
 Frc consts  --      1.5302                 1.5111                 1.3565
 IR Inten    --     44.3503               105.9919                 6.0947

                     55                     56                     57
                      A                      A                      A
 Frequencies --   1331.5962              1346.5741              1360.9985
 Red. masses --      1.6118                 5.8359                 1.6018
 Frc consts  --      1.6838                 6.2347                 1.7481
 IR Inten    --     50.0776               156.6423                64.0918

                     58                     59                     60
                      A                      A                      A
 Frequencies --   1374.7837              1390.0967              1402.1678
 Red. masses --      1.8018                 2.5207                 1.6243
 Frc consts  --      2.0064                 2.8698                 1.8815
 IR Inten    --    178.0050               226.7559                19.1288

                     61                     62                     63
                      A                      A                      A
 Frequencies --   1406.2054              1419.4083              1421.6522
 Red. masses --      1.6234                 1.6798                 1.3980
 Frc consts  --      1.8913                 1.9940                 1.6647
 IR Inten    --      5.6249                 2.3042                 0.3098

                     64                     65                     66
                      A                      A                      A
 Frequencies --   1430.7210              1440.4123              1450.4250
 Red. masses --      1.4520                 1.2719                 1.6750
 Frc consts  --      1.7512                 1.5548                 2.0762
 IR Inten    --     10.1708                10.1861                15.8727

                     67                     68                     69
                      A                      A                      A
 Frequencies --   1457.0511              1498.2834              1511.6239
 Red. masses --      2.4539                 1.0967                 1.0921
 Frc consts  --      3.0694                 1.4505                 1.4703
 IR Inten    --     54.2883                 5.0190                10.4848

                     70                     71                     72
                      A                      A                      A
 Frequencies --   1521.1772              1531.7005              1533.5731
 Red. masses --      1.0989                 1.0553                 1.6944
 Frc consts  --      1.4982                 1.4587                 2.3479
 IR Inten    --     18.6769                 5.6066               124.3725

                     73                     74                     75
                      A                      A                      A
 Frequencies --   1543.7546              1608.7060              1636.2214
 Red. masses --      1.3034                 7.4176                 5.7821
 Frc consts  --      1.8301                11.3101                 9.1206
 IR Inten    --      7.8258                61.8819               193.6896

                     76                     77                     78
                      A                      A                      A
 Frequencies --   1662.7158              1700.2455              2981.7267
 Red. masses --     11.2190                 1.0917                 1.0737
 Frc consts  --     18.2742                 1.8594                 5.6242
 IR Inten    --    147.1339                26.4275                49.3032

                     79                     80                     81
                      A                      A                      A
 Frequencies --   3036.1471              3049.0169              3063.5687
 Red. masses --      1.0674                 1.0769                 1.0378
 Frc consts  --      5.7971                 5.8987                 5.7389
 IR Inten    --      9.2878                45.6218                13.6176

                     82                     83                     84
                      A                      A                      A
 Frequencies --   3067.9658              3081.1865              3098.3505
 Red. masses --      1.0649                 1.1009                 1.0853
 Frc consts  --      5.9058                 6.1577                 6.1383
 IR Inten    --     41.2284                40.2557                12.7640

                     85                     86                     87
                      A                      A                      A
 Frequencies --   3115.2341              3126.6179              3129.1221
 Red. masses --      1.1030                 1.0893                 1.1027
 Frc consts  --      6.3069                 6.2738                 6.3613
 IR Inten    --     23.0670                15.4409                27.2193

                     88                     89                     90
                      A                      A                      A
 Frequencies --   3143.9481              3224.9032              3235.9315
 Red. masses --      1.1000                 1.0889                 1.0884
 Frc consts  --      6.4063                 6.6721                 6.7149
 IR Inten    --     34.5401                18.9908                10.0023

                     91                     92                     93
                      A                      A                      A
 Frequencies --   3262.1612              3482.1810              3571.9963
 Red. masses --      1.0939                 1.0503                 1.0908
 Frc consts  --      6.8583                 7.5035                 8.1999
 IR Inten    --      1.2029                 1.0961                 0.5209

 - Thermochemistry -
 -------------------
 Temperature   298.150 Kelvin.  Pressure   1.00000 Atm.
 Atom     1 has atomic number  6 and mass  12.00000

 Molecular mass:   236.12733 amu.
 Principal axes and moments of inertia in atomic units:
                           1         2         3
     Eigenvalues --  1228.731978865.908809458.56802
           X            1.00000  -0.00099  -0.00228
           Y            0.00095   0.99981  -0.01942
           Z            0.00229   0.01942   0.99981
 This molecule is an asymmetric top.
 Rotational symmetry number  1.
 Warning -- assumption of classical behavior for rotation
           may cause significant error
 Rotational temperatures (Kelvin)      0.07049     0.00977     0.00916
 Rotational constants (GHZ):           1.46878     0.20356     0.19080
 Zero-point vibrational energy     728210.6 (Joules/Mol)
                                  174.04651 (Kcal/Mol)
 Warning -- explicit consideration of  23 degrees of freedom as
           vibrations may cause significant error
 Vibrational temperatures:     38.58    53.63    79.27   110.36   190.30
          (Kelvin)            194.83   243.44   268.37   322.17   365.54
                              385.69   412.46   431.66   505.90   570.45
                              581.76   620.10   632.45   644.33   683.58
                              762.03   788.16   807.47   906.57   931.41
                             1014.38  1066.54  1085.69  1117.76  1135.63
                             1219.00  1226.97  1241.94  1256.81  1276.71
                             1306.70  1341.91  1389.15  1414.11  1446.92
                             1463.35  1482.55  1521.47  1554.24  1578.87
                             1620.88  1647.53  1667.80  1701.16  1738.43
                             1748.54  1815.19  1857.61  1906.22  1915.87
                             1937.42  1958.17  1978.01  2000.04  2017.41
                             2023.22  2042.21  2045.44  2058.49  2072.43
                             2086.84  2096.37  2155.70  2174.89  2188.63
                             2203.78  2206.47  2221.12  2314.57  2354.16
                             2392.28  2446.27  4290.04  4368.34  4386.86
                             4407.79  4414.12  4433.14  4457.84  4482.13
                             4498.51  4502.11  4523.44  4639.92  4655.78
                             4693.52  5010.08  5139.31

 Zero-point correction=                           0.277361 (Hartree/Particle)
 Thermal correction to Energy=                    0.292725
 Thermal correction to Enthalpy=                  0.293669
 Thermal correction to Gibbs Free Energy=         0.233629
 Sum of electronic and zero-point Energies=           -797.936527
 Sum of electronic and thermal Energies=              -797.921164
 Sum of electronic and thermal Enthalpies=            -797.920219
 Sum of electronic and thermal Free Energies=         -797.980259

                     E (Thermal)             CV                S
                      KCal/Mol        Cal/Mol-Kelvin    Cal/Mol-Kelvin
 Total                  183.687             59.335            126.364
 Electronic               0.000              0.000              0.000
 Translational            0.889              2.981             42.279
 Rotational               0.889              2.981             32.999
 Vibrational            181.910             53.373             51.085
 Vibration     1          0.593              1.984              6.052
 Vibration     2          0.594              1.982              5.399
 Vibration     3          0.596              1.976              4.626
 Vibration     4          0.599              1.965              3.974
 Vibration     5          0.612              1.921              2.913
 Vibration     6          0.613              1.918              2.868
 Vibration     7          0.625              1.880              2.444
 Vibration     8          0.632              1.858              2.262
 Vibration     9          0.649              1.805              1.927
 Vibration    10          0.665              1.756              1.702
 Vibration    11          0.673              1.732              1.609
 Vibration    12          0.684              1.698              1.494
 Vibration    13          0.693              1.674              1.417
 Vibration    14          0.728              1.572              1.159
 Vibration    15          0.763              1.478              0.976
 Vibration    16          0.770              1.461              0.947
 Vibration    17          0.792              1.403              0.855
 Vibration    18          0.800              1.384              0.828
 Vibration    19          0.807              1.366              0.802
 Vibration    20          0.832              1.305              0.723
 Vibration    21          0.885              1.184              0.588
 Vibration    22          0.903              1.145              0.549
 Vibration    23          0.917              1.115              0.521

 Optimization completed.
    -- Stationary point found.
 Normal termination of Gaussian 16 at Fri Dec 11 13:28:42 2020.

 ----------------------------------------------------------------------
 # B3LYP/6-311++G(d,p) empiricaldispersion=gd3bj scf=xqc pop=npa geom=c
 heck
 ----------------------------------------------------------------------

 ---------------------------------------
 CID_115313440_JID_7612_Energie_neutraal
 ---------------------------------------
 Structure from the checkpoint file:  "JID_7612.chk"
 Charge =  0 Multiplicity = 1

 SCF Done:  E(RB3LYP) =  -798.440944071     A.U. after   15 cycles
 Normal termination of Gaussian 16 at Fri Dec 11 13:33:35 2020.

 ----------------------------------------------------------------------
 # B3LYP/6-311++G(d,p) empiricaldispersion=gd3bj scf=xqc pop=npa geom=c
 heck
 ----------------------------------------------------------------------

 -------------------------------------
 CID_115313440_JID_7612_Energie_kation
 -------------------------------------
 Structure from the checkpoint file:  "JID_7612.chk"
 Charge =  1 Multiplicity = 2

 SCF Done:  E(UB3LYP) =  -798.144065281     A.U. after   32 cycles
 Normal termination of Gaussian 16 at Fri Dec 11 13:47:09 2020.
 Gaussian 16:  ES64L-G16RevA.03 25-Dec-2016

 ----------------------------------------------------------------------
 # B3LYP/6-311++G(d,p) empiricaldispersion=gd3bj scf=xqc pop=npa geom=c
 heck
 ----------------------------------------------------------------------

 ------------------------------------
 CID_115313440_JID_7612_Energie_anion
 ------------------------------------
 Structure from the checkpoint file:  "JID_7612.chk"
 Charge = -1 Multiplicity = 2

                         Standard orientation:
 ---------------------------------------------------------------------
 Center     Atomic      Atomic             Coordinates (Angstroms)
 Number     Number       Type             X           Y           Z
 ---------------------------------------------------------------------
      1          6           0       -1.892598   -1.548953    1.365455
      2          6           0       -1.928975   -1.141828   -0.117497
      3          6           0       -3.340387   -1.033766   -0.721145
      4          6           0       -4.107679    0.262439   -0.397156
      5          6           0       -3.201367    1.442615   -0.749412
      6          6           0       -1.834798    1.360575   -0.066745
      7          7           0       -1.151272    0.096026   -0.355789
      8          6           0        0.227391    0.041643   -0.228853
      9          6           0        0.996033    1.158593    0.200992
     10          7           0        2.320907    1.162147    0.288991
     11          6           0        2.968110    0.055296   -0.029932
     12          6           0        2.348073   -1.122165   -0.441999
     13          6           0        0.966836   -1.125357   -0.534295
     14          7           0        4.439840    0.093958    0.087379
     15          8           0        4.970143    1.139383    0.439279
     16          8           0        5.040069   -0.951610   -0.186270
     17          7           0       -4.623875    0.412360    0.968417
     18          1           0       -2.469074   -2.466404    1.525108
     19          1           0       -2.306224   -0.776063    2.018330
     20          1           0       -0.861552   -1.734832    1.682599
     21          1           0       -1.438861   -1.938735   -0.680446
     22          1           0       -3.243093   -1.097163   -1.812888
     23          1           0       -3.919563   -1.910089   -0.404527
     24          1           0       -4.984016    0.295150   -1.056648
     25          1           0       -3.685450    2.381797   -0.463018
     26          1           0       -3.043607    1.459699   -1.833914
     27          1           0       -1.926804    1.525397    1.020114
     28          1           0       -1.219955    2.174322   -0.454212
     29          1           0        0.514991    2.081953    0.501295
     30          1           0        2.938248   -1.996629   -0.681454
     31          1           0        0.470598   -2.029781   -0.862073
     32          1           0       -5.145528   -0.419484    1.239505
     33          1           0       -3.864836    0.502677    1.638692
 ---------------------------------------------------------------------

 SCF Done:  E(UB3LYP) =  -798.468280653     A.U. after   29 cycles

 The electronic state is 2-A.
 Alpha  occ. eigenvalues --  -18.94475 -18.94345 -14.32241 -14.22423 -14.22246
 Alpha  occ. eigenvalues --  -14.16540 -10.12628 -10.12354 -10.11472 -10.09203
 Alpha  occ. eigenvalues --  -10.09043 -10.08798 -10.08109 -10.07849 -10.07427
 Alpha  occ. eigenvalues --  -10.05788 -10.05045  -1.02415  -0.85589  -0.85312
 Alpha  occ. eigenvalues --   -0.81904  -0.80909  -0.70689  -0.69726  -0.66766
 Alpha  occ. eigenvalues --   -0.64242  -0.61822  -0.57136  -0.55405  -0.52432
 Alpha  occ. eigenvalues --   -0.49816  -0.47015  -0.44668  -0.44368  -0.41898
 Alpha  occ. eigenvalues --   -0.38943  -0.38236  -0.37468  -0.36819  -0.35506
 Alpha  occ. eigenvalues --   -0.34819  -0.34139  -0.33966  -0.33270  -0.32098
 Alpha  occ. eigenvalues --   -0.31219  -0.30063  -0.29562  -0.28407  -0.28097
 Alpha  occ. eigenvalues --   -0.27393  -0.26911  -0.26377  -0.24427  -0.24142
 Alpha  occ. eigenvalues --   -0.19409  -0.17052  -0.15670  -0.13443  -0.13172
 Alpha  occ. eigenvalues --   -0.11771  -0.09841  -0.09382   0.03133
 Alpha virt. eigenvalues --    0.04548   0.06439   0.07194   0.07661   0.09223
 Alpha virt. eigenvalues --    0.09299   0.09725   0.09943   0.10138   0.11082
 Alpha virt. eigenvalues --    0.12543   0.12716   0.13150   0.13850   0.13937

  Beta  occ. eigenvalues --  -18.94034 -18.93920 -14.31723 -14.22362 -14.22241
  Beta  occ. eigenvalues --  -14.16215 -10.12626 -10.12345 -10.11475 -10.09200
  Beta  occ. eigenvalues --  -10.09043 -10.08538 -10.07999 -10.07836 -10.07523
  Beta  occ. eigenvalues --  -10.05806 -10.05003  -1.01508  -0.85423  -0.84508
  Beta  occ. eigenvalues --   -0.81793  -0.80547  -0.70565  -0.69699  -0.66565
  Beta  occ. eigenvalues --   -0.63902  -0.61709  -0.56961  -0.55095  -0.52095
  Beta  occ. eigenvalues --   -0.49765  -0.46778  -0.44486  -0.44260  -0.41823
  Beta  occ. eigenvalues --   -0.38852  -0.38173  -0.37076  -0.36633  -0.35338
  Beta  occ. eigenvalues --   -0.34064  -0.33872  -0.33248  -0.32255  -0.31962
  Beta  occ. eigenvalues --   -0.30898  -0.29802  -0.29461  -0.28263  -0.27975
  Beta  occ. eigenvalues --   -0.27342  -0.26803  -0.25609  -0.24371  -0.24112
  Beta  occ. eigenvalues --   -0.18365  -0.17043  -0.15030  -0.13051  -0.11323
  Beta  occ. eigenvalues --   -0.10241  -0.09349  -0.08625
  Beta virt. eigenvalues --    0.04647   0.06412   0.07135   0.07635   0.09023
  Beta virt. eigenvalues --    0.09268   0.09681   0.09863   0.10064   0.10246
  Beta virt. eigenvalues --    0.11022   0.12489   0.12665   0.13171   0.13850

 Mulliken charges and spin densities:
               1          2
     1  C   -0.342487  -0.253107
     2  C   -0.140352   0.168325
     3  C   -0.559276  -0.156779
     4  C    0.048335  -0.030889
     5  C   -0.529087  -0.038456
     6  C   -0.256385  -0.003326
     7  N    0.320969   0.018544
     8  C   -0.256823   0.147689
     9  C   -0.104620  -0.074440
    10  N   -0.048055   0.158868
    11  C   -0.323653   0.042315
    12  C   -0.139465   0.070437
    13  C    0.049050   0.004157
    14  N   -0.294742   0.168229
    15  O   -0.157735   0.172234
    16  O   -0.179454   0.159785
    17  N   -0.300552  -0.008732
    18  H    0.013000   0.116156
    19  H    0.129179  -0.002234
    20  H    0.167000   0.007037
    21  H    0.103436   0.048210
    22  H    0.160370  -0.011490
    23  H    0.030075   0.138416
    24  H    0.115142   0.098463
    25  H    0.186907  -0.005874
    26  H    0.130940   0.012513
    27  H    0.144614   0.002074
    28  H    0.157696   0.006500
    29  H    0.179539   0.002621
    30  H    0.223648   0.000001
    31  H    0.107483   0.000662
    32  H    0.174618   0.041652
    33  H    0.190685   0.000438
 Sum of Mulliken charges =  -1.00000   1.00000

 Dipole moment (field-independent basis, Debye):
    X=            -15.8618    Y=             -1.9043    Z=             -1.0812  Tot=             16.0123
 Quadrupole moment (field-independent basis, Debye-Ang):
   XX=           -220.3692   YY=           -117.1347   ZZ=           -109.7912
   XY=             -3.4961   XZ=             -1.6150   YZ=             -1.9919

 Summary of Natural Population Analysis:

                                       Natural Population
                Natural  -----------------------------------------------
    Atom  No    Charge         Core      Valence    Rydberg      Total
 -----------------------------------------------------------------------
      C    1   -0.29462      0.99964     2.28873    0.00625     3.29462
      C    2   -0.00399      0.99959     1.99141    0.01299     3.00399
      C    3   -0.19818      0.99959     2.18782    0.01077     3.19818
      C    4   -0.01602      0.99959     2.00275    0.01369     3.01602
      C    5   -0.19362      0.99961     2.18686    0.00715     3.19362
      C    6   -0.08467      0.99962     2.07639    0.00865     3.08467
      N    7   -0.25382      0.99964     2.74299    0.01119     3.75382
      C    8    0.11200      0.99950     1.87581    0.01269     2.88800
      C    9   -0.02659      0.99958     2.01443    0.01258     3.02659
      N   10   -0.16029      0.99966     2.65004    0.01059     3.66029
      C   11    0.15594      0.99943     1.82950    0.01512     2.84406
      C   12   -0.09696      0.99953     2.08796    0.00947     3.09696
      C   13   -0.12462      0.99955     2.11794    0.00714     3.12462
      N   14    0.28629      0.99974     2.18533    0.02864     3.21371
      O   15   -0.17564      0.99989     3.16741    0.00834     4.17564
      O   16   -0.20995      0.99990     3.20175    0.00830     4.20995
      N   17   -0.42415      0.99977     2.91432    0.01007     3.92415
      H   18    0.09618      0.00000     0.40276    0.00106     0.40382
      H   19    0.09056      0.00000     0.40843    0.00101     0.40944
      H   20    0.11004      0.00000     0.38922    0.00075     0.38996
      H   21    0.09792      0.00000     0.40020    0.00188     0.40208
      H   22    0.10188      0.00000     0.39708    0.00104     0.39812
      H   23    0.09715      0.00000     0.40179    0.00106     0.40285
      H   24    0.08880      0.00000     0.40935    0.00185     0.41120
      H   25    0.10286      0.00000     0.39615    0.00099     0.39714
      H   26    0.10061      0.00000     0.39825    0.00114     0.39939
      H   27    0.08087      0.00000     0.41772    0.00141     0.41913
      H   28    0.10476      0.00000     0.39370    0.00154     0.39524
      H   29    0.08354      0.00000     0.41518    0.00128     0.41646
      H   30    0.11529      0.00000     0.38345    0.00126     0.38471
      H   31    0.09326      0.00000     0.40543    0.00131     0.40674
      H   32    0.17277      0.00000     0.32578    0.00146     0.32723
      H   33    0.17239      0.00000     0.32570    0.00191     0.32761
 =======================================================================
   * Total *   -0.00000     16.99383    45.79162    0.21455    63.00000

 Normal termination of Gaussian 16 at Fri Dec 11 13:59:13 2020.
