 Gaussian 16, Revision A.03,

 -----------------------------------------------------------
 # opt freq B3LYP/6-31G(d) empiricaldispersion=gd3bj scf=xqc
 -----------------------------------------------------------

 -------------------------------
 CID_131154402_JID_2522_neutraal
 -------------------------------
 Symbolic Z-matrix:
 Charge =  0 Multiplicity = 1

 SCF Done:  E(RB3LYP) =  -534.982965837     A.U. after   15 cycles
 SCF Done:  E(RB3LYP) =  -534.986795663     A.U. after   13 cycles
 SCF Done:  E(RB3LYP) =  -534.987457597     A.U. after   12 cycles
 SCF Done:  E(RB3LYP) =  -534.987696473     A.U. after   11 cycles
 SCF Done:  E(RB3LYP) =  -534.987708473     A.U. after    9 cycles
 SCF Done:  E(RB3LYP) =  -534.987709935     A.U. after    8 cycles
 SCF Done:  E(RB3LYP) =  -534.987710609     A.U. after    8 cycles
 SCF Done:  E(RB3LYP) =  -534.987711765     A.U. after    8 cycles
 SCF Done:  E(RB3LYP) =  -534.987713765     A.U. after   10 cycles
 SCF Done:  E(RB3LYP) =  -534.987721264     A.U. after   10 cycles
 SCF Done:  E(RB3LYP) =  -534.988305293     A.U. after    8 cycles
 SCF Done:  E(RB3LYP) =  -534.988305372     A.U. after    7 cycles
 SCF Done:  E(RB3LYP) =  -534.988305411     A.U. after    7 cycles
 SCF Done:  E(RB3LYP) =  -534.988305441     A.U. after    7 cycles
 SCF Done:  E(RB3LYP) =  -534.988305464     A.U. after    7 cycles
 Optimization completed.
    -- Stationary point found.
 Normal termination of Gaussian 16 at Wed Dec  9 17:36:16 2020.

 --------------------------------------------------------------------
 #N Geom=AllCheck Guess=TCheck SCRF=Check GenChk RB3LYP/6-31G(d) Freq
 --------------------------------------------------------------------

 Structure from the checkpoint file:  "JID_2522.chk"
 -------------------------------
 CID_131154402_JID_2522_neutraal
 -------------------------------
 Charge =  0 Multiplicity = 1

 SCF Done:  E(RB3LYP) =  -534.988305464     A.U. after    1 cycles

  Exact polarizability: 150.908  -2.881 128.335   0.002  -0.001  55.970
 Approx polarizability: 235.407  -7.750 188.132   0.012  -0.001  85.098

                      1                      2                      3
                      A                      A                      A
 Frequencies --     28.9103                70.9598                83.0781
 Red. masses --      3.2368                 1.5550                 2.2289
 Frc consts  --      0.0016                 0.0046                 0.0091
 IR Inten    --      2.1800                 0.6576                 0.0568

                      4                      5                      6
                      A                      A                      A
 Frequencies --    124.5160               139.3680               189.7420
 Red. masses --      2.7301                 4.3539                 1.0453
 Frc consts  --      0.0249                 0.0498                 0.0222
 IR Inten    --      0.1230                 1.0749                 0.1368

                      7                      8                      9
                      A                      A                      A
 Frequencies --    205.3634               244.5178               274.0906
 Red. masses --      1.1072                 3.9962                 3.0389
 Frc consts  --      0.0275                 0.1408                 0.1345
 IR Inten    --      1.7839                 2.3977                 0.0773

                     10                     11                     12
                      A                      A                      A
 Frequencies --    310.6169               322.2579               393.9930
 Red. masses --      3.0428                 3.2183                 4.9378
 Frc consts  --      0.1730                 0.1969                 0.4516
 IR Inten    --     10.2353                 0.0389                 1.4832

                     13                     14                     15
                      A                      A                      A
 Frequencies --    446.7381               453.8443               495.0573
 Red. masses --      3.3659                 3.6490                 4.6932
 Frc consts  --      0.3958                 0.4428                 0.6777
 IR Inten    --      1.1263                 0.0943                 1.6494

                     16                     17                     18
                      A                      A                      A
 Frequencies --    552.0307               570.9212               629.7783
 Red. masses --      1.8838                 3.4832                 3.8522
 Frc consts  --      0.3382                 0.6689                 0.9002
 IR Inten    --      3.2001                20.8406                 2.7740

                     19                     20                     21
                      A                      A                      A
 Frequencies --    669.7015               691.1986               729.1588
 Red. masses --      6.6706                 1.3191                 4.4992
 Frc consts  --      1.7627                 0.3713                 1.4094
 IR Inten    --      7.8110                74.7175                 2.5235

                     22                     23                     24
                      A                      A                      A
 Frequencies --    769.2606               810.8840               824.4883
 Red. masses --      6.3320                 5.2427                 1.2203
 Frc consts  --      2.2077                 2.0311                 0.4888
 IR Inten    --      6.3554                 2.9234                18.0565

                     25                     26                     27
                      A                      A                      A
 Frequencies --    879.4764               961.9822               987.5834
 Red. masses --      4.7520                 1.3055                 1.7274
 Frc consts  --      2.1656                 0.7118                 0.9926
 IR Inten    --      0.4721                 0.6422                 1.3321

                     28                     29                     30
                      A                      A                      A
 Frequencies --   1030.9182              1037.0804              1073.0724
 Red. masses --      1.8241                 1.4528                 1.5952
 Frc consts  --      1.1422                 0.9207                 1.0822
 IR Inten    --     45.5794                10.4836                 6.9540

                     31                     32                     33
                      A                      A                      A
 Frequencies --   1074.1546              1077.6060              1078.7602
 Red. masses --      1.6685                 1.4968                 2.5910
 Frc consts  --      1.1343                 1.0241                 1.7765
 IR Inten    --      1.7589                 5.2764                 2.1704

                     34                     35                     36
                      A                      A                      A
 Frequencies --   1147.3214              1202.9490              1280.5916
 Red. masses --      1.6993                 2.2445                 2.1889
 Frc consts  --      1.3179                 1.9136                 2.1149
 IR Inten    --     17.6464                 0.5315                23.1078

                     37                     38                     39
                      A                      A                      A
 Frequencies --   1291.5581              1329.5348              1366.1873
 Red. masses --      2.7108                 3.4908                 3.6313
 Frc consts  --      2.6643                 3.6356                 3.9933
 IR Inten    --      0.2069               345.7344               138.5754

                     40                     41                     42
                      A                      A                      A
 Frequencies --   1431.4062              1436.5745              1440.8362
 Red. masses --      1.4089                 1.3972                 1.5451
 Frc consts  --      1.7009                 1.6989                 1.8899
 IR Inten    --     76.2507                20.0285                13.9504

                     43                     44                     45
                      A                      A                      A
 Frequencies --   1455.4147              1470.1498              1488.1027
 Red. masses --      1.5575                 1.4597                 1.9392
 Frc consts  --      1.9437                 1.8588                 2.5301
 IR Inten    --     36.0551                 5.6157                21.7638

                     46                     47                     48
                      A                      A                      A
 Frequencies --   1499.7742              1506.8362              1519.1030
 Red. masses --      1.0467                 1.0452                 1.0424
 Frc consts  --      1.3872                 1.3982                 1.4172
 IR Inten    --      7.3352                 7.2974                 7.2620

                     49                     50                     51
                      A                      A                      A
 Frequencies --   1519.9386              1532.9708              1549.1669
 Red. masses --      1.1566                 1.2324                 1.9534
 Frc consts  --      1.5744                 1.7063                 2.7621
 IR Inten    --      5.8585               114.7825               159.9624

                     52                     53                     54
                      A                      A                      A
 Frequencies --   1642.2545              1664.6260              1794.7311
 Red. masses --      4.8949                 6.7076                 7.2235
 Frc consts  --      7.7781                10.9509                13.7086
 IR Inten    --    128.1318                62.2580               409.4274

                     55                     56                     57
                      A                      A                      A
 Frequencies --   3030.0262              3055.4504              3076.9674
 Red. masses --      1.0401                 1.0363                 1.1011
 Frc consts  --      5.6260                 5.7003                 6.1424
 IR Inten    --     25.6582                19.3336                17.9682

                     58                     59                     60
                      A                      A                      A
 Frequencies --   3084.2209              3113.2419              3130.6870
 Red. masses --      1.0343                 1.1008                 1.0976
 Frc consts  --      5.7969                 6.2863                 6.3381
 IR Inten    --      2.9201                13.8624                14.3943

                     61                     62                     63
                      A                      A                      A
 Frequencies --   3139.7412              3153.4021              3178.9512
 Red. masses --      1.1027                 1.0994                 1.1068
 Frc consts  --      6.4044                 6.4412                 6.5901
 IR Inten    --     18.3055                 3.8864                19.2511

                     64                     65                     66
                      A                      A                      A
 Frequencies --   3184.1613              3213.9943              3613.7642
 Red. masses --      1.0892                 1.0939                 1.0751
 Frc consts  --      6.5068                 6.6575                 8.2725
 IR Inten    --     16.7195                14.3708                25.3845

 - Thermochemistry -
 -------------------
 Temperature   298.150 Kelvin.  Pressure   1.00000 Atm.
 Atom     1 has atomic number  6 and mass  12.00000

 Molecular mass:   164.09496 amu.
 Principal axes and moments of inertia in atomic units:
                           1         2         3
     Eigenvalues --  1360.109732461.667483788.36624
           X            0.99999  -0.00489  -0.00001
           Y            0.00489   0.99999  -0.00000
           Z            0.00001   0.00000   1.00000
 This molecule is an asymmetric top.
 Rotational symmetry number  1.
 Warning -- assumption of classical behavior for rotation
           may cause significant error
 Rotational temperatures (Kelvin)      0.06368     0.03519     0.02286
 Rotational constants (GHZ):           1.32691     0.73314     0.47639
 Zero-point vibrational energy     525015.5 (Joules/Mol)
                                  125.48173 (Kcal/Mol)
 Warning -- explicit consideration of  17 degrees of freedom as
           vibrations may cause significant error
 Vibrational temperatures:     41.60   102.10   119.53   179.15   200.52
          (Kelvin)            273.00   295.47   351.81   394.36   446.91
                              463.66   566.87   642.76   652.98   712.28
                              794.25   821.43   906.11   963.55   994.48
                             1049.10  1106.79  1166.68  1186.25  1265.37
                             1384.08  1420.91  1483.26  1492.13  1543.91
                             1545.47  1550.43  1552.10  1650.74  1730.78
                             1842.49  1858.26  1912.90  1965.64  2059.47
                             2066.91  2073.04  2094.02  2115.22  2141.05
                             2157.84  2168.00  2185.65  2186.85  2205.60
                             2228.91  2362.84  2395.03  2582.22  4359.53
                             4396.11  4427.07  4437.51  4479.26  4504.36
                             4517.39  4537.04  4573.80  4581.30  4624.22
                             5199.40

 Zero-point correction=                           0.199968 (Hartree/Particle)
 Thermal correction to Energy=                    0.212088
 Thermal correction to Enthalpy=                  0.213032
 Thermal correction to Gibbs Free Energy=         0.160998
 Sum of electronic and zero-point Energies=           -534.788338
 Sum of electronic and thermal Energies=              -534.776218
 Sum of electronic and thermal Enthalpies=            -534.775274
 Sum of electronic and thermal Free Energies=         -534.827308

                     E (Thermal)             CV                S
                      KCal/Mol        Cal/Mol-Kelvin    Cal/Mol-Kelvin
 Total                  133.087             44.596            109.515
 Electronic               0.000              0.000              0.000
 Translational            0.889              2.981             41.194
 Rotational               0.889              2.981             30.918
 Vibrational            131.310             38.635             37.403
 Vibration     1          0.593              1.984              5.903
 Vibration     2          0.598              1.968              4.127
 Vibration     3          0.600              1.961              3.817
 Vibration     4          0.610              1.928              3.029
 Vibration     5          0.615              1.914              2.813
 Vibration     6          0.633              1.854              2.230
 Vibration     7          0.640              1.832              2.085
 Vibration     8          0.660              1.772              1.770
 Vibration     9          0.676              1.721              1.570
 Vibration    10          0.699              1.653              1.359
 Vibration    11          0.707              1.631              1.299
 Vibration    12          0.761              1.483              0.985
 Vibration    13          0.806              1.368              0.806
 Vibration    14          0.812              1.352              0.784
 Vibration    15          0.851              1.261              0.671
 Vibration    16          0.907              1.135              0.540
 Vibration    17          0.927              1.094              0.502

                           ! Non-Optimized Parameters !
 Normal termination of Gaussian 16 at Wed Dec  9 17:41:58 2020.

 ----------------------------------------------------------------------
 # B3LYP/6-311++G(d,p) empiricaldispersion=gd3bj scf=xqc pop=npa geom=c
 heck
 ----------------------------------------------------------------------

 ---------------------------------------
 CID_131154402_JID_2522_Energie_neutraal
 ---------------------------------------
 Structure from the checkpoint file:  "JID_2522.chk"
 Charge =  0 Multiplicity = 1

 SCF Done:  E(RB3LYP) =  -535.137738404     A.U. after   16 cycles
 Normal termination of Gaussian 16 at Wed Dec  9 17:45:24 2020.

 ----------------------------------------------------------------------
 # B3LYP/6-311++G(d,p) empiricaldispersion=gd3bj scf=xqc pop=npa geom=c
 heck
 ----------------------------------------------------------------------

 -------------------------------------
 CID_131154402_JID_2522_Energie_kation
 -------------------------------------
 Structure from the checkpoint file:  "JID_2522.chk"
 Charge =  1 Multiplicity = 2

 SCF Done:  E(UB3LYP) =  -534.837471670     A.U. after   22 cycles
 Normal termination of Gaussian 16 at Wed Dec  9 17:50:02 2020.
 Gaussian 16:  ES64L-G16RevA.03 25-Dec-2016

 ----------------------------------------------------------------------
 # B3LYP/6-311++G(d,p) empiricaldispersion=gd3bj scf=xqc pop=npa geom=c
 heck
 ----------------------------------------------------------------------

 ------------------------------------
 CID_131154402_JID_2522_Energie_anion
 ------------------------------------
 Structure from the checkpoint file:  "JID_2522.chk"
 Charge = -1 Multiplicity = 2

                         Standard orientation:
 ---------------------------------------------------------------------
 Center     Atomic      Atomic             Coordinates (Angstroms)
 Number     Number       Type             X           Y           Z
 ---------------------------------------------------------------------
      1          6           0        0.178635    2.923462    0.000329
      2          6           0        0.772490    1.539059    0.000091
      3          6           0       -0.036902    0.373800    0.000066
      4          7           0        0.454166   -0.863099   -0.000033
      5          6           0        1.786350   -1.040714   -0.000122
      6          6           0        2.671150    0.034649   -0.000156
      7          6           0        2.145034    1.328392   -0.000039
      8          6           0        2.261079   -2.470141   -0.000280
      9          7           0       -1.423763    0.541208    0.000199
     10          6           0       -2.496670   -0.352061   -0.000072
     11          8           0       -3.624332    0.118974   -0.001072
     12          6           0       -2.232576   -1.837007    0.000944
     13          1           0       -0.447179    3.102690   -0.884460
     14          1           0       -0.446784    3.102498    0.885430
     15          1           0        0.967405    3.680819    0.000197
     16          1           0        3.743209   -0.131790   -0.000314
     17          1           0        2.811771    2.187343   -0.000022
     18          1           0        1.880749   -2.999270    0.880744
     19          1           0        1.880324   -2.999272   -0.881115
     20          1           0        3.352943   -2.532096   -0.000579
     21          1           0       -1.762250    1.494554   -0.000417
     22          1           0       -1.644573   -2.131344   -0.871814
     23          1           0       -1.643937   -2.130179    0.873652
     24          1           0       -3.201376   -2.339142    0.001546
 ---------------------------------------------------------------------

 SCF Done:  E(UB3LYP) =  -535.118561408     A.U. after   33 cycles
 SCF Done:  E(UB3LYP) =  -535.118963663     a.u. after    8 cycles

 The electronic state is 2-A.
 Alpha  occ. eigenvalues --  -18.96270 -14.21621 -14.13922 -10.14584 -10.09789
 Alpha  occ. eigenvalues --  -10.06551 -10.05858 -10.04297 -10.04269 -10.04268
 Alpha  occ. eigenvalues --  -10.02548 -10.02438  -0.91739  -0.82800  -0.76817
 Alpha  occ. eigenvalues --   -0.67678  -0.64035  -0.61382  -0.60147  -0.54784
 Alpha  occ. eigenvalues --   -0.50452  -0.47005  -0.43800  -0.39491  -0.36122
 Alpha  occ. eigenvalues --   -0.33980  -0.33505  -0.32969  -0.30943  -0.29921
 Alpha  occ. eigenvalues --   -0.29110  -0.29034  -0.27650  -0.27365  -0.26753
 Alpha  occ. eigenvalues --   -0.25811  -0.24864  -0.23514  -0.22654  -0.17839
 Alpha  occ. eigenvalues --   -0.13863  -0.13800  -0.11580  -0.08932   0.06621
 Alpha virt. eigenvalues --    0.07693   0.08284   0.08851   0.09810   0.10485
 Alpha virt. eigenvalues --    0.10907   0.12078   0.12304   0.12786   0.13366
 Alpha virt. eigenvalues --    0.14196   0.14510   0.15206   0.15833   0.16053

  Beta  occ. eigenvalues --  -18.96160 -14.21670 -14.13517 -10.14465 -10.09655
  Beta  occ. eigenvalues --  -10.06489 -10.05850 -10.04318 -10.04274 -10.04260
  Beta  occ. eigenvalues --  -10.02427 -10.02192  -0.91542  -0.82496  -0.76499
  Beta  occ. eigenvalues --   -0.67370  -0.63713  -0.61277  -0.59999  -0.54582
  Beta  occ. eigenvalues --   -0.50120  -0.46869  -0.43426  -0.39390  -0.35955
  Beta  occ. eigenvalues --   -0.33852  -0.33385  -0.32572  -0.30769  -0.29699
  Beta  occ. eigenvalues --   -0.29003  -0.28898  -0.27565  -0.27335  -0.26662
  Beta  occ. eigenvalues --   -0.25442  -0.24655  -0.22777  -0.22532  -0.17172
  Beta  occ. eigenvalues --   -0.13700  -0.12154  -0.11117  -0.08298
  Beta virt. eigenvalues --    0.07874   0.08365   0.09022   0.10074   0.10725
  Beta virt. eigenvalues --    0.11108   0.11569   0.12139   0.12261   0.13204
  Beta virt. eigenvalues --    0.13436   0.14408   0.14477   0.15086   0.15669

 Mulliken charges and spin densities:
               1          2
     1  C   -0.169899  -0.297955
     2  C    2.361247  -0.069711
     3  C   -1.616932  -0.066348
     4  N   -0.135919   0.220454
     5  C    0.118164  -0.117986
     6  C    0.408285  -0.125433
     7  C   -1.204267   0.018485
     8  C   -0.440200  -0.058859
     9  N   -0.120638   0.012939
    10  C   -0.215655   0.404083
    11  O   -0.369562   0.036590
    12  C    0.077602  -0.500076
    13  H   -0.013488   0.157523
    14  H    0.072040   0.064891
    15  H    0.141450   0.002888
    16  H   -0.217894   0.339942
    17  H   -0.173121   0.230540
    18  H    0.113962   0.022094
    19  H   -0.026742   0.171350
    20  H    0.129546  -0.001120
    21  H    0.220101   0.115043
    22  H    0.069330   0.101993
    23  H    0.075067   0.093461
    24  H   -0.082475   0.245211
 Sum of Mulliken charges =  -1.00000   1.00000

 Dipole moment (field-independent basis, Debye):
    X=              1.0895    Y=              0.2286    Z=              0.4717  Tot=              1.2090
 Quadrupole moment (field-independent basis, Debye-Ang):
   XX=           -129.9287   YY=            -97.7998   ZZ=            -85.5777
   XY=             -4.5016   XZ=             -1.2035   YZ=             -1.2034

 Summary of Natural Population Analysis:

                                       Natural Population
                Natural  -----------------------------------------------
    Atom  No    Charge         Core      Valence    Rydberg      Total
 -----------------------------------------------------------------------
      C    1   -0.29672      0.99965     2.29118    0.00589     3.29672
      C    2   -0.06349      0.99948     2.05579    0.00822     3.06349
      C    3    0.21855      0.99948     1.76783    0.01414     2.78145
      N    4   -0.22011      0.99963     2.70915    0.01133     3.72011
      C    5    0.11733      0.99955     1.87071    0.01240     2.88267
      C    6   -0.13968      0.99950     2.13016    0.01002     3.13968
      C    7   -0.01963      0.99953     2.00953    0.01057     3.01963
      C    8   -0.29417      0.99964     2.28885    0.00568     3.29417
      N    9   -0.31885      0.99964     2.81078    0.00844     3.81885
      C   10    0.36408      0.99972     1.61560    0.02061     2.63592
      O   11   -0.32104      0.99988     3.31495    0.00621     4.32104
      C   12   -0.33171      0.99962     2.32741    0.00468     3.33171
      H   13    0.09854      0.00000     0.39994    0.00153     0.40146
      H   14    0.09723      0.00000     0.40176    0.00101     0.40277
      H   15    0.10200      0.00000     0.39723    0.00077     0.39800
      H   16    0.09400      0.00000     0.40481    0.00119     0.40600
      H   17    0.08801      0.00000     0.41052    0.00146     0.41199
      H   18    0.10071      0.00000     0.39828    0.00101     0.39929
      H   19    0.10276      0.00000     0.39566    0.00158     0.39724
      H   20    0.09301      0.00000     0.40629    0.00069     0.40699
      H   21    0.19551      0.00000     0.30147    0.00302     0.30449
      H   22    0.11725      0.00000     0.38101    0.00174     0.38275
      H   23    0.11670      0.00000     0.38173    0.00157     0.38330
      H   24    0.09974      0.00000     0.39892    0.00134     0.40026
 =======================================================================
   * Total *   -0.00000     11.99531    31.86957    0.13511    44.00000

 Normal termination of Gaussian 16 at Wed Dec  9 18:32:54 2020.
