 Gaussian 16, Revision A.03,

 -----------------------------------------------------------
 # opt freq B3LYP/6-31G(d) empiricaldispersion=gd3bj scf=xqc
 -----------------------------------------------------------

 -------------------------------
 CID_131573014_JID_2640_neutraal
 -------------------------------
 Symbolic Z-matrix:
 Charge =  0 Multiplicity = 1

 SCF Done:  E(RB3LYP) =  -533.725988764     A.U. after   15 cycles
 SCF Done:  E(RB3LYP) =  -533.728461166     A.U. after   12 cycles
 SCF Done:  E(RB3LYP) =  -533.728568982     A.U. after   12 cycles
 SCF Done:  E(RB3LYP) =  -533.728613844     A.U. after   11 cycles
 SCF Done:  E(RB3LYP) =  -533.728638125     A.U. after   11 cycles
 SCF Done:  E(RB3LYP) =  -533.728647772     A.U. after   11 cycles
 SCF Done:  E(RB3LYP) =  -533.728650305     A.U. after    9 cycles
 SCF Done:  E(RB3LYP) =  -533.728650622     A.U. after    8 cycles
 Optimization completed.
    -- Stationary point found.
 Normal termination of Gaussian 16 at Wed Dec  9 17:56:14 2020.

 --------------------------------------------------------------------
 #N Geom=AllCheck Guess=TCheck SCRF=Check GenChk RB3LYP/6-31G(d) Freq
 --------------------------------------------------------------------

 Structure from the checkpoint file:  "JID_2640.chk"
 -------------------------------
 CID_131573014_JID_2640_neutraal
 -------------------------------
 Charge =  0 Multiplicity = 1

 SCF Done:  E(RB3LYP) =  -533.728650622     A.U. after    1 cycles

  Exact polarizability: 129.190   4.244 122.031  -5.276   3.391  63.314
 Approx polarizability: 195.246  14.171 191.247  -7.936   7.192 104.301

                      1                      2                      3
                      A                      A                      A
 Frequencies --     33.9715                77.2673               130.1952
 Red. masses --      5.8940                 6.5980                 2.0825
 Frc consts  --      0.0040                 0.0232                 0.0208
 IR Inten    --      4.6920                 5.3892                 6.5159

                      4                      5                      6
                      A                      A                      A
 Frequencies --    158.4653               189.9045               221.1245
 Red. masses --      1.4457                 2.5404                 2.1185
 Frc consts  --      0.0214                 0.0540                 0.0610
 IR Inten    --      5.1618                10.0254                51.7386

                      7                      8                      9
                      A                      A                      A
 Frequencies --    243.1689               262.8610               268.7618
 Red. masses --      1.0422                 1.9256                 2.9716
 Frc consts  --      0.0363                 0.0784                 0.1265
 IR Inten    --     23.4299                29.9967                 5.7142

                     10                     11                     12
                      A                      A                      A
 Frequencies --    290.1326               332.7480               371.2561
 Red. masses --      2.8281                 4.5256                 4.8567
 Frc consts  --      0.1403                 0.2952                 0.3944
 IR Inten    --      0.6971                 3.3244                 4.0440

                     13                     14                     15
                      A                      A                      A
 Frequencies --    375.7596               434.8510               478.6145
 Red. masses --      3.2341                 7.0121                 6.1226
 Frc consts  --      0.2690                 0.7812                 0.8263
 IR Inten    --      1.5293                 4.3429                 0.4635

                     16                     17                     18
                      A                      A                      A
 Frequencies --    507.1107               541.6780               588.5881
 Red. masses --      3.9477                 4.1290                 3.6190
 Frc consts  --      0.5981                 0.7138                 0.7387
 IR Inten    --      0.3203                11.8439                 5.7533

                     19                     20                     21
                      A                      A                      A
 Frequencies --    596.2652               658.3387               700.0213
 Red. masses --      2.7710                 3.0097                 1.8677
 Frc consts  --      0.5805                 0.7685                 0.5392
 IR Inten    --     30.4412               157.9402               210.2437

                     22                     23                     24
                      A                      A                      A
 Frequencies --    749.6440               788.9326               856.1611
 Red. masses --      6.1036                 3.7077                 1.5429
 Frc consts  --      2.0209                 1.3597                 0.6663
 IR Inten    --      4.0740                 3.7942                35.6819

                     25                     26                     27
                      A                      A                      A
 Frequencies --    857.1982               934.6010               941.0241
 Red. masses --      1.3727                 4.0331                 2.3606
 Frc consts  --      0.5943                 2.0756                 1.2316
 IR Inten    --     11.7175                 1.8041                 2.6585

                     28                     29                     30
                      A                      A                      A
 Frequencies --    977.6006              1015.6271              1054.9587
 Red. masses --      2.6014                 2.9409                 1.8159
 Frc consts  --      1.4648                 1.7873                 1.1907
 IR Inten    --     15.8809                10.3779                 5.4673

                     31                     32                     33
                      A                      A                      A
 Frequencies --   1069.6550              1142.0504              1194.4655
 Red. masses --      1.4634                 1.3603                 2.2068
 Frc consts  --      0.9865                 1.0454                 1.8551
 IR Inten    --      2.0448                 0.8538                 2.2259

                     34                     35                     36
                      A                      A                      A
 Frequencies --   1230.5145              1233.7479              1286.8082
 Red. masses --      1.2083                 1.4966                 2.2094
 Frc consts  --      1.0779                 1.3422                 2.1555
 IR Inten    --     13.3399               107.2749                98.7348

                     37                     38                     39
                      A                      A                      A
 Frequencies --   1329.6780              1349.0631              1379.8090
 Red. masses --      1.4058                 1.4852                 5.2845
 Frc consts  --      1.4645                 1.5926                 5.9277
 IR Inten    --     12.2493                 1.3026                14.4997

                     40                     41                     42
                      A                      A                      A
 Frequencies --   1394.7241              1442.5624              1485.7844
 Red. masses --      3.9425                 1.2614                 1.1096
 Frc consts  --      4.5186                 1.5466                 1.4432
 IR Inten    --     44.9862                 2.7903                14.2446

                     43                     44                     45
                      A                      A                      A
 Frequencies --   1508.4366              1520.1124              1526.3447
 Red. masses --      1.7015                 1.0438                 2.8696
 Frc consts  --      2.2810                 1.4211                 3.9389
 IR Inten    --     13.4845                 7.1830                71.8564

                     46                     47                     48
                      A                      A                      A
 Frequencies --   1554.1448              1668.7251              1683.4373
 Red. masses --      1.7903                 6.0347                 2.7807
 Frc consts  --      2.5478                 9.9009                 4.6430
 IR Inten    --     95.4388                 1.3090                 5.7416

                     49                     50                     51
                      A                      A                      A
 Frequencies --   1698.2183              2371.4150              3022.4628
 Red. masses --      1.4806                12.6004                 1.0421
 Frc consts  --      2.5158                41.7493                 5.6090
 IR Inten    --     86.7942                10.9096                30.6133

                     52                     53                     54
                      A                      A                      A
 Frequencies --   3067.5471              3067.6597              3110.2439
 Red. masses --      1.0979                 1.0609                 1.1037
 Frc consts  --      6.0869                 5.8823                 6.2908
 IR Inten    --     18.7670                10.6467                 1.5574

                     55                     56                     57
                      A                      A                      A
 Frequencies --   3135.1786              3173.3049              3177.0666
 Red. masses --      1.0957                 1.0899                 1.0901
 Frc consts  --      6.3453                 6.4661                 6.4830
 IR Inten    --     10.3934                19.5778                13.8503

                     58                     59                     60
                      A                      A                      A
 Frequencies --   3538.4776              3634.6748              3778.8744
 Red. masses --      1.0483                 1.0971                 1.0656
 Frc consts  --      7.7337                 8.5391                 8.9655
 IR Inten    --      7.8823                 6.4382                53.9863

 - Thermochemistry -
 -------------------
 Temperature   298.150 Kelvin.  Pressure   1.00000 Atm.
 Atom     1 has atomic number  6 and mass  12.00000

 Molecular mass:   162.07931 amu.
 Principal axes and moments of inertia in atomic units:
                           1         2         3
     Eigenvalues --  1436.576312430.367963519.98037
           X            0.99967  -0.01277  -0.02244
           Y            0.01302   0.99985   0.01135
           Z            0.02229  -0.01164   0.99968
 This molecule is an asymmetric top.
 Rotational symmetry number  1.
 Warning -- assumption of classical behavior for rotation
           may cause significant error
 Rotational temperatures (Kelvin)      0.06029     0.03564     0.02461
 Rotational constants (GHZ):           1.25628     0.74258     0.51271
 Zero-point vibrational energy     463026.7 (Joules/Mol)
                                  110.66604 (Kcal/Mol)
 Warning -- explicit consideration of  19 degrees of freedom as
           vibrations may cause significant error
 Vibrational temperatures:     48.88   111.17   187.32   228.00   273.23
          (Kelvin)            318.15   349.87   378.20   386.69   417.44
                              478.75   534.15   540.63   625.65   688.62
                              729.62   779.35   846.85   857.89   947.20
                             1007.17  1078.57  1135.10  1231.82  1233.32
                             1344.68  1353.92  1406.55  1461.26  1517.85
                             1538.99  1643.16  1718.57  1770.44  1775.09
                             1851.43  1913.11  1941.00  1985.24  2006.70
                             2075.53  2137.71  2170.30  2187.10  2196.07
                             2236.07  2400.92  2422.09  2443.36  3411.94
                             4348.65  4413.52  4413.68  4474.95  4510.82
                             4565.68  4571.09  5091.08  5229.49  5436.96

 Zero-point correction=                           0.176358 (Hartree/Particle)
 Thermal correction to Energy=                    0.188344
 Thermal correction to Enthalpy=                  0.189288
 Thermal correction to Gibbs Free Energy=         0.138332
 Sum of electronic and zero-point Energies=           -533.552293
 Sum of electronic and thermal Energies=              -533.540307
 Sum of electronic and thermal Enthalpies=            -533.539363
 Sum of electronic and thermal Free Energies=         -533.590319

                     E (Thermal)             CV                S
                      KCal/Mol        Cal/Mol-Kelvin    Cal/Mol-Kelvin
 Total                  118.188             44.753            107.246
 Electronic               0.000              0.000              0.000
 Translational            0.889              2.981             41.157
 Rotational               0.889              2.981             30.886
 Vibrational            116.410             38.791             35.202
 Vibration     1          0.594              1.983              5.583
 Vibration     2          0.599              1.964              3.959
 Vibration     3          0.612              1.923              2.943
 Vibration     4          0.621              1.893              2.568
 Vibration     5          0.633              1.854              2.229
 Vibration     6          0.648              1.809              1.950
 Vibration     7          0.659              1.774              1.780
 Vibration     8          0.670              1.741              1.643
 Vibration     9          0.673              1.731              1.604
 Vibration    10          0.686              1.692              1.473
 Vibration    11          0.715              1.610              1.247
 Vibration    12          0.743              1.531              1.075
 Vibration    13          0.747              1.522              1.056
 Vibration    14          0.795              1.394              0.843
 Vibration    15          0.835              1.297              0.714
 Vibration    16          0.862              1.234              0.641
 Vibration    17          0.897              1.158              0.562
 Vibration    18          0.946              1.056              0.470
 Vibration    19          0.954              1.040              0.456

                           ! Non-Optimized Parameters !
 Normal termination of Gaussian 16 at Wed Dec  9 18:00:54 2020.

 ----------------------------------------------------------------------
 # B3LYP/6-311++G(d,p) empiricaldispersion=gd3bj scf=xqc pop=npa geom=c
 heck
 ----------------------------------------------------------------------

 ---------------------------------------
 CID_131573014_JID_2640_Energie_neutraal
 ---------------------------------------
 Structure from the checkpoint file:  "JID_2640.chk"
 Charge =  0 Multiplicity = 1

 SCF Done:  E(RB3LYP) =  -533.889309145     A.U. after   16 cycles
 Normal termination of Gaussian 16 at Wed Dec  9 18:04:18 2020.

 ----------------------------------------------------------------------
 # B3LYP/6-311++G(d,p) empiricaldispersion=gd3bj scf=xqc pop=npa geom=c
 heck
 ----------------------------------------------------------------------

 -------------------------------------
 CID_131573014_JID_2640_Energie_kation
 -------------------------------------
 Structure from the checkpoint file:  "JID_2640.chk"
 Charge =  1 Multiplicity = 2

 SCF Done:  E(UB3LYP) =  -533.611951833     A.U. after   22 cycles
 Normal termination of Gaussian 16 at Wed Dec  9 18:08:37 2020.
 Gaussian 16:  ES64L-G16RevA.03 25-Dec-2016

 ----------------------------------------------------------------------
 # B3LYP/6-311++G(d,p) empiricaldispersion=gd3bj scf=xqc pop=npa geom=c
 heck
 ----------------------------------------------------------------------

 ------------------------------------
 CID_131573014_JID_2640_Energie_anion
 ------------------------------------
 Structure from the checkpoint file:  "JID_2640.chk"
 Charge = -1 Multiplicity = 2

                         Standard orientation:
 ---------------------------------------------------------------------
 Center     Atomic      Atomic             Coordinates (Angstroms)
 Number     Number       Type             X           Y           Z
 ---------------------------------------------------------------------
      1          6           0       -1.582679    2.617210    0.298782
      2          6           0       -1.158724    1.184849    0.084915
      3          6           0       -2.063644    0.132384    0.234743
      4          6           0       -1.684418   -1.201872    0.037867
      5          6           0       -0.355585   -1.467384   -0.317055
      6          6           0        0.567095   -0.435018   -0.469212
      7          6           0        0.165680    0.888825   -0.266213
      8          8           0        1.125477    1.858863   -0.437579
      9          6           0        2.011068   -0.724116   -0.832940
     10          6           0        2.904734   -0.634770    0.329828
     11          7           0        3.598264   -0.574676    1.258257
     12          7           0       -2.626284   -2.239719    0.129016
     13          1           0       -2.645827    2.677842    0.545199
     14          1           0       -1.421631    3.229740   -0.599194
     15          1           0       -1.033232    3.090483    1.125395
     16          1           0       -3.092769    0.359358    0.504529
     17          1           0       -0.035626   -2.494534   -0.476707
     18          1           0        0.763343    2.718372   -0.178142
     19          1           0        2.099689   -1.729557   -1.258726
     20          1           0        2.365423   -0.013164   -1.587468
     21          1           0       -3.405554   -2.031377    0.742327
     22          1           0       -2.222652   -3.137953    0.368213
 ---------------------------------------------------------------------

 SCF Done:  E(UB3LYP) =  -533.880880344     A.U. after   33 cycles
 SCF Done:  E(UB3LYP) =  -533.880880344     a.u. after    1 cycles

 The electronic state is 2-A.
 Alpha  occ. eigenvalues --  -19.05513 -14.21516 -14.21379 -10.12857 -10.12648
 Alpha  occ. eigenvalues --  -10.11734 -10.11138 -10.09288 -10.08696 -10.07521
 Alpha  occ. eigenvalues --  -10.07392 -10.07020  -0.96466  -0.81818  -0.81255
 Alpha  occ. eigenvalues --   -0.75376  -0.70934  -0.65729  -0.61802  -0.59800
 Alpha  occ. eigenvalues --   -0.51252  -0.50565  -0.45171  -0.42801  -0.41585
 Alpha  occ. eigenvalues --   -0.39959  -0.36980  -0.35045  -0.34758  -0.33733
 Alpha  occ. eigenvalues --   -0.32052  -0.30832  -0.29692  -0.29353  -0.27795
 Alpha  occ. eigenvalues --   -0.27283  -0.26546  -0.25580  -0.23338  -0.23007
 Alpha  occ. eigenvalues --   -0.19156  -0.15332  -0.09844   0.04018
 Alpha virt. eigenvalues --    0.05860   0.06622   0.07653   0.08398   0.08731
 Alpha virt. eigenvalues --    0.09934   0.10330   0.10908   0.11223   0.12043
 Alpha virt. eigenvalues --    0.12467   0.13023   0.13183   0.14254   0.14837

  Beta  occ. eigenvalues --  -19.05483 -14.21511 -14.21324 -10.12851 -10.12629
  Beta  occ. eigenvalues --  -10.11735 -10.11135 -10.09286 -10.08695 -10.07457
  Beta  occ. eigenvalues --  -10.07375 -10.06995  -0.96411  -0.81758  -0.81241
  Beta  occ. eigenvalues --   -0.75339  -0.70904  -0.65678  -0.61749  -0.59723
  Beta  occ. eigenvalues --   -0.51185  -0.50510  -0.45109  -0.42764  -0.41546
  Beta  occ. eigenvalues --   -0.39896  -0.36926  -0.34997  -0.34705  -0.33682
  Beta  occ. eigenvalues --   -0.31998  -0.30793  -0.29645  -0.29312  -0.27751
  Beta  occ. eigenvalues --   -0.27272  -0.26506  -0.25547  -0.23328  -0.22984
  Beta  occ. eigenvalues --   -0.19116  -0.15302  -0.09803
  Beta virt. eigenvalues --    0.06451   0.07175   0.07408   0.07905   0.09223
  Beta virt. eigenvalues --    0.09376   0.10357   0.10480   0.11465   0.11626
  Beta virt. eigenvalues --    0.12478   0.12649   0.13132   0.13448   0.14753

 Mulliken charges and spin densities:
               1          2
     1  C    3.657861  -4.154473
     2  C   -1.680385   2.508830
     3  C    2.272337  -2.383248
     4  C   -0.388712  -0.452359
     5  C    0.227568   0.137600
     6  C    1.219190   0.005417
     7  C   -4.088371   2.176777
     8  O   -0.253177   0.017405
     9  C    0.888871  -0.779769
    10  C    0.205880  -0.478663
    11  N   -0.360778   0.016644
    12  N   -0.300711   0.006934
    13  H   -0.491747   0.665523
    14  H   -0.358964   0.526539
    15  H   -0.240190   0.405942
    16  H   -0.363935   0.502568
    17  H   -0.350510   0.511429
    18  H   -0.086835   0.375748
    19  H   -0.121066   0.306417
    20  H    0.075876   0.134240
    21  H   -0.203796   0.448993
    22  H   -0.258406   0.501504
 Sum of Mulliken charges =  -1.00000   1.00000

 Dipole moment (field-independent basis, Debye):
    X=              2.6208    Y=             -0.6155    Z=             -2.8401  Tot=              3.9132
 Quadrupole moment (field-independent basis, Debye-Ang):
   XX=           -135.2389   YY=           -126.7910   ZZ=            -98.4981
   XY=             -2.0688   XZ=             -4.6443   YZ=              1.4156

 Summary of Natural Population Analysis:

                                       Natural Population
                Natural  -----------------------------------------------
    Atom  No    Charge         Core      Valence    Rydberg      Total
 -----------------------------------------------------------------------
      C    1   -0.30313      0.99964     2.29645    0.00705     3.30313
      C    2   -0.03464      0.99949     2.02555    0.00960     3.03464
      C    3   -0.10978      0.99949     2.10073    0.00956     3.10978
      C    4    0.07997      0.99949     1.90947    0.01108     2.92003
      C    5   -0.11533      0.99948     2.10647    0.00938     3.11533
      C    6   -0.03040      0.99947     2.02108    0.00986     3.03040
      C    7    0.14491      0.99927     1.84262    0.01320     2.85509
      O    8   -0.34842      0.99988     3.34198    0.00656     4.34842
      C    9   -0.24791      0.99952     2.24058    0.00780     3.24791
      C   10    0.16808      0.99965     1.81560    0.01667     2.83192
      N   11   -0.18961      0.99979     2.67810    0.01172     3.68961
      N   12   -0.39806      0.99972     2.88770    0.01064     3.89806
      H   13    0.11139      0.00000     0.38685    0.00176     0.38861
      H   14    0.10530      0.00000     0.39276    0.00194     0.39470
      H   15    0.10504      0.00000     0.39305    0.00192     0.39496
      H   16    0.10106      0.00000     0.39774    0.00120     0.39894
      H   17    0.09876      0.00000     0.39957    0.00167     0.40124
      H   18    0.24175      0.00000     0.25427    0.00398     0.25825
      H   19    0.12083      0.00000     0.37775    0.00142     0.37917
      H   20    0.12803      0.00000     0.37046    0.00151     0.37197
      H   21    0.18668      0.00000     0.30929    0.00403     0.31332
      H   22    0.18549      0.00000     0.31073    0.00377     0.31451
 =======================================================================
   * Total *   -0.00000     11.99488    30.85880    0.14632    43.00000

 Normal termination of Gaussian 16 at Wed Dec  9 18:15:59 2020.
