 Gaussian 16, Revision A.03,

 -----------------------------------------------------------
 # opt freq B3LYP/6-31G(d) empiricaldispersion=gd3bj scf=xqc
 -----------------------------------------------------------

 ------------------------------
 CID_84014877_JID_5215_neutraal
 ------------------------------
 Symbolic Z-matrix:
 Charge =  0 Multiplicity = 1

 SCF Done:  E(RB3LYP) =  -700.023391036     A.U. after   15 cycles
 SCF Done:  E(RB3LYP) =  -700.027622490     A.U. after   12 cycles
 SCF Done:  E(RB3LYP) =  -700.028019708     A.U. after   11 cycles
 SCF Done:  E(RB3LYP) =  -700.027917748     A.U. after   11 cycles
 SCF Done:  E(RB3LYP) =  -700.028056597     A.U. after   11 cycles
 SCF Done:  E(RB3LYP) =  -700.028064025     A.U. after   10 cycles
 SCF Done:  E(RB3LYP) =  -700.028067060     A.U. after   10 cycles
 SCF Done:  E(RB3LYP) =  -700.028067699     A.U. after    9 cycles
 SCF Done:  E(RB3LYP) =  -700.028067939     A.U. after    8 cycles
 Optimization completed.
    -- Stationary point found.
 Normal termination of Gaussian 16 at Thu Dec 10 14:45:49 2020.

 --------------------------------------------------------------------
 #N Geom=AllCheck Guess=TCheck SCRF=Check GenChk RB3LYP/6-31G(d) Freq
 --------------------------------------------------------------------

 Structure from the checkpoint file:  "JID_5215.chk"
 ------------------------------
 CID_84014877_JID_5215_neutraal
 ------------------------------
 Charge =  0 Multiplicity = 1

 SCF Done:  E(RB3LYP) =  -700.028067939     A.U. after    1 cycles

  Exact polarizability: 223.819  -1.995 121.281   0.299   1.629  47.376
 Approx polarizability: 315.886  -8.190 237.113   1.295   1.777  76.534

                      1                      2                      3
                      A                      A                      A
 Frequencies --     27.7181                45.7354                51.5470
 Red. masses --      8.1275                 5.5597                 5.8937
 Frc consts  --      0.0037                 0.0069                 0.0092
 IR Inten    --      2.8967                 0.5010                 0.0789

                      4                      5                      6
                      A                      A                      A
 Frequencies --    104.5899               146.0771               221.0751
 Red. masses --      6.0145                 6.3284                 7.0303
 Frc consts  --      0.0388                 0.0796                 0.2024
 IR Inten    --      1.5566                 0.4490                 1.1600

                      7                      8                      9
                      A                      A                      A
 Frequencies --    263.8083               296.4194               400.4417
 Red. masses --      8.9926                 4.9445                 4.0240
 Frc consts  --      0.3687                 0.2560                 0.3802
 IR Inten    --      0.1910                 4.5686                 4.3745

                     10                     11                     12
                      A                      A                      A
 Frequencies --    409.4110               416.6147               451.5665
 Red. masses --      4.1278                 3.9025                 4.9419
 Frc consts  --      0.4077                 0.3991                 0.5937
 IR Inten    --      0.2983                 3.2221                 7.2092

                     13                     14                     15
                      A                      A                      A
 Frequencies --    468.4375               521.5383               566.6149
 Red. masses --      7.3446                 7.3614                 3.1472
 Frc consts  --      0.9496                 1.1797                 0.5953
 IR Inten    --     11.9401                 0.3237                 1.5251

                     16                     17                     18
                      A                      A                      A
 Frequencies --    626.4558               633.3364               660.3477
 Red. masses --      1.3900                 6.4147                 8.6790
 Frc consts  --      0.3214                 1.5160                 2.2298
 IR Inten    --     59.1440                 4.4197                15.4424

                     19                     20                     21
                      A                      A                      A
 Frequencies --    671.7827               735.4514               738.8102
 Red. masses --      5.5106                 2.9335                 5.1652
 Frc consts  --      1.4652                 0.9348                 1.6611
 IR Inten    --     34.5775                77.5603                61.7196

                     22                     23                     24
                      A                      A                      A
 Frequencies --    759.3011               800.1594               842.1366
 Red. masses --      1.7801                 2.5076                 7.4098
 Frc consts  --      0.6047                 0.9459                 3.0961
 IR Inten    --     19.3577                29.7028                 0.2763

                     25                     26                     27
                      A                      A                      A
 Frequencies --    845.3978               907.1117               965.3680
 Red. masses --      8.2632                 1.3289                 1.6149
 Frc consts  --      3.4795                 0.6443                 0.8867
 IR Inten    --      2.6809                 0.7446                 3.5925

                     28                     29                     30
                      A                      A                      A
 Frequencies --    980.8851              1000.5238              1007.8914
 Red. masses --      1.4183                 1.4711                 1.2980
 Frc consts  --      0.8040                 0.8676                 0.7769
 IR Inten    --      0.0693                 1.6408                 0.1122

                     31                     32                     33
                      A                      A                      A
 Frequencies --   1013.9030              1037.5438              1077.1011
 Red. masses --      5.6964                 7.5525                 2.8477
 Frc consts  --      3.4502                 4.7902                 1.9465
 IR Inten    --      4.6205                14.1121                 1.3442

                     34                     35                     36
                      A                      A                      A
 Frequencies --   1103.8573              1131.1145              1168.6312
 Red. masses --      2.2639                 1.6046                 4.0900
 Frc consts  --      1.6253                 1.2096                 3.2910
 IR Inten    --      3.4708                 3.1589               358.0466

                     37                     38                     39
                      A                      A                      A
 Frequencies --   1192.9849              1266.2199              1276.3283
 Red. masses --      1.1414                 2.2183                 6.8469
 Frc consts  --      0.9571                 2.0955                 6.5716
 IR Inten    --      4.4738                38.8021                 5.9350

                     40                     41                     42
                      A                      A                      A
 Frequencies --   1297.2698              1308.5526              1337.3035
 Red. masses --      2.2422                 3.7473                 1.5872
 Frc consts  --      2.2233                 3.7805                 1.6724
 IR Inten    --      1.0565                 2.1381                 2.4873

                     43                     44                     45
                      A                      A                      A
 Frequencies --   1350.4366              1415.8510              1421.6957
 Red. masses --      2.6672                 2.4383                 2.4396
 Frc consts  --      2.8658                 2.8799                 2.9053
 IR Inten    --      1.4870               131.8025                51.5245

                     46                     47                     48
                      A                      A                      A
 Frequencies --   1472.4895              1493.3049              1524.6996
 Red. masses --      2.6454                 2.6765                 2.7276
 Frc consts  --      3.3795                 3.5165                 3.7360
 IR Inten    --     38.1656                 0.2445                14.8103

                     49                     50                     51
                      A                      A                      A
 Frequencies --   1593.2105              1628.8782              1638.3259
 Red. masses --      6.2444                 5.6062                 5.1594
 Frc consts  --      9.3388                 8.7639                 8.1593
 IR Inten    --     28.5267                28.4550                26.9718

                     52                     53                     54
                      A                      A                      A
 Frequencies --   1648.4332              1843.1140              3178.2855
 Red. masses --      5.5545                10.4444                 1.0896
 Frc consts  --      8.8928                20.9044                 6.4849
 IR Inten    --     27.3972               272.7681                25.5665

                     55                     56                     57
                      A                      A                      A
 Frequencies --   3178.9505              3200.8772              3218.0411
 Red. masses --      1.0906                 1.0884                 1.0917
 Frc consts  --      6.4937                 6.5703                 6.6609
 IR Inten    --     19.7089                 5.3742                 5.6123

                     58                     59                     60
                      A                      A                      A
 Frequencies --   3219.4307              3225.8753              3693.0103
 Red. masses --      1.0928                 1.0967                 1.0640
 Frc consts  --      6.6734                 6.7240                 8.5496
 IR Inten    --     15.4698                 9.8955                73.4803

 - Thermochemistry -
 -------------------
 Temperature   298.150 Kelvin.  Pressure   1.00000 Atm.
 Atom     1 has atomic number  6 and mass  12.00000

 Molecular mass:   201.05383 amu.
 Principal axes and moments of inertia in atomic units:
                           1         2         3
     Eigenvalues --   752.140066710.643187426.46985
           X            0.99999   0.00495   0.00015
           Y           -0.00495   0.99997   0.00548
           Z           -0.00013  -0.00548   0.99998
 This molecule is an asymmetric top.
 Rotational symmetry number  1.
 Warning -- assumption of classical behavior for rotation
           may cause significant error
 Rotational temperatures (Kelvin)      0.11516     0.01291     0.01166
 Rotational constants (GHZ):           2.39947     0.26894     0.24301
 Zero-point vibrational energy     423013.1 (Joules/Mol)
                                  101.10257 (Kcal/Mol)
 Warning -- explicit consideration of  15 degrees of freedom as
           vibrations may cause significant error
 Vibrational temperatures:     39.88    65.80    74.16   150.48   210.17
          (Kelvin)            318.08   379.56   426.48   576.15   589.05
                              599.42   649.70   673.98   750.38   815.23
                              901.33   911.23   950.09   966.55  1058.15
                             1062.98  1092.46  1151.25  1211.65  1216.34
                             1305.13  1388.95  1411.27  1439.53  1450.13
                             1458.78  1492.79  1549.71  1588.20  1627.42
                             1681.40  1716.44  1821.81  1836.35  1866.48
                             1882.72  1924.08  1942.98  2037.09  2045.50
                             2118.58  2148.53  2193.70  2292.27  2343.59
                             2357.19  2371.73  2651.83  4572.84  4573.80
                             4605.35  4630.04  4632.04  4641.32  5313.42

 Zero-point correction=                           0.161117 (Hartree/Particle)
 Thermal correction to Energy=                    0.172640
 Thermal correction to Enthalpy=                  0.173584
 Thermal correction to Gibbs Free Energy=         0.121248
 Sum of electronic and zero-point Energies=           -699.866951
 Sum of electronic and thermal Energies=              -699.855428
 Sum of electronic and thermal Enthalpies=            -699.854484
 Sum of electronic and thermal Free Energies=         -699.906820

                     E (Thermal)             CV                S
                      KCal/Mol        Cal/Mol-Kelvin    Cal/Mol-Kelvin
 Total                  108.333             43.634            110.149
 Electronic               0.000              0.000              0.000
 Translational            0.889              2.981             41.800
 Rotational               0.889              2.981             31.994
 Vibrational            106.556             37.673             36.355
 Vibration     1          0.593              1.984              5.986
 Vibration     2          0.595              1.979              4.994
 Vibration     3          0.596              1.977              4.757
 Vibration     4          0.605              1.946              3.367
 Vibration     5          0.617              1.907              2.723
 Vibration     6          0.648              1.809              1.950
 Vibration     7          0.670              1.739              1.636
 Vibration     8          0.690              1.680              1.437
 Vibration     9          0.766              1.469              0.961
 Vibration    10          0.774              1.450              0.929
 Vibration    11          0.780              1.434              0.904
 Vibration    12          0.810              1.357              0.791
 Vibration    13          0.826              1.320              0.742
 Vibration    14          0.877              1.202              0.606
 Vibration    15          0.923              1.103              0.511

                           ! Non-Optimized Parameters !
 Normal termination of Gaussian 16 at Thu Dec 10 14:51:37 2020.

 ----------------------------------------------------------------------
 # B3LYP/6-311++G(d,p) empiricaldispersion=gd3bj scf=xqc pop=npa geom=c
 heck
 ----------------------------------------------------------------------

 --------------------------------------
 CID_84014877_JID_5215_Energie_neutraal
 --------------------------------------
 Structure from the checkpoint file:  "JID_5215.chk"
 Charge =  0 Multiplicity = 1

 SCF Done:  E(RB3LYP) =  -700.220223735     A.U. after   15 cycles
 Normal termination of Gaussian 16 at Thu Dec 10 14:54:10 2020.

 ----------------------------------------------------------------------
 # B3LYP/6-311++G(d,p) empiricaldispersion=gd3bj scf=xqc pop=npa geom=c
 heck
 ----------------------------------------------------------------------

 ------------------------------------
 CID_84014877_JID_5215_Energie_kation
 ------------------------------------
 Structure from the checkpoint file:  "JID_5215.chk"
 Charge =  1 Multiplicity = 2

 SCF Done:  E(UB3LYP) =  -699.891770229     A.U. after   29 cycles
 Normal termination of Gaussian 16 at Thu Dec 10 15:01:04 2020.
 Gaussian 16:  ES64L-G16RevA.03 25-Dec-2016

 ----------------------------------------------------------------------
 # B3LYP/6-311++G(d,p) empiricaldispersion=gd3bj scf=xqc pop=npa geom=c
 heck
 ----------------------------------------------------------------------

 -----------------------------------
 CID_84014877_JID_5215_Energie_anion
 -----------------------------------
 Structure from the checkpoint file:  "JID_5215.chk"
 Charge = -1 Multiplicity = 2

                         Standard orientation:
 ---------------------------------------------------------------------
 Center     Atomic      Atomic             Coordinates (Angstroms)
 Number     Number       Type             X           Y           Z
 ---------------------------------------------------------------------
      1          6           0        4.043186    1.100187    0.219728
      2          6           0        4.635105   -0.139941   -0.008871
      3          6           0        3.798231   -1.239344   -0.210502
      4          7           0        2.466753   -1.164887   -0.209615
      5          6           0        1.895129    0.035996   -0.000209
      6          6           0        2.654337    1.192796    0.230037
      7          6           0        0.416723    0.058539   -0.012252
      8          6           0       -0.342274    1.223464   -0.185674
      9          7           0       -1.674545    1.229600   -0.182355
     10          6           0       -2.269690    0.044189   -0.012177
     11          7           0       -1.661023   -1.138057    0.141333
     12          6           0       -0.328315   -1.121349    0.138662
     13          6           0       -3.779268    0.073800   -0.000365
     14          8           0       -4.440403    1.079747   -0.117991
     15          8           0       -4.315957   -1.154440    0.158806
     16          1           0        4.651482    1.982590    0.395332
     17          1           0        5.713612   -0.258736   -0.024671
     18          1           0        4.218810   -2.228092   -0.383361
     19          1           0        2.171570    2.142691    0.431200
     20          1           0        0.134716    2.187163   -0.352173
     21          1           0        0.184580   -2.070723    0.259914
     22          1           0       -5.281168   -1.013947    0.151441
 ---------------------------------------------------------------------

 SCF Done:  E(UB3LYP) =  -700.260390232     A.U. after   25 cycles

 The electronic state is 2-A.
 Alpha  occ. eigenvalues --  -19.03301 -18.96411 -14.17764 -14.17001 -14.16940
 Alpha  occ. eigenvalues --  -10.15088 -10.08947 -10.08300 -10.08087 -10.07546
 Alpha  occ. eigenvalues --  -10.07254 -10.06887 -10.06003 -10.05575 -10.04003
 Alpha  occ. eigenvalues --   -0.97198  -0.87868  -0.84117  -0.82113  -0.74379
 Alpha  occ. eigenvalues --   -0.68646  -0.67848  -0.62612  -0.55700  -0.52894
 Alpha  occ. eigenvalues --   -0.50336  -0.49727  -0.46712  -0.41098  -0.39616
 Alpha  occ. eigenvalues --   -0.37858  -0.35751  -0.35046  -0.34053  -0.32308
 Alpha  occ. eigenvalues --   -0.32238  -0.30038  -0.29149  -0.28438  -0.27332
 Alpha  occ. eigenvalues --   -0.26947  -0.25705  -0.25405  -0.19432  -0.18407
 Alpha  occ. eigenvalues --   -0.17790  -0.17169  -0.16897  -0.14187  -0.13672
 Alpha  occ. eigenvalues --   -0.12035  -0.10432   0.01738
 Alpha virt. eigenvalues --    0.07354   0.08030   0.08987   0.09283   0.09760
 Alpha virt. eigenvalues --    0.10225   0.10411   0.11795   0.12796   0.13428
 Alpha virt. eigenvalues --    0.15148   0.15507   0.16039   0.16451   0.16723

  Beta  occ. eigenvalues --  -19.03253 -18.96183 -14.17547 -14.16967 -14.16910
  Beta  occ. eigenvalues --  -10.14989 -10.09015 -10.08166 -10.07730 -10.07481
  Beta  occ. eigenvalues --  -10.07239 -10.06808 -10.05954 -10.05364 -10.03777
  Beta  occ. eigenvalues --   -0.97000  -0.87539  -0.83792  -0.81764  -0.74129
  Beta  occ. eigenvalues --   -0.68331  -0.67386  -0.62239  -0.55054  -0.52794
  Beta  occ. eigenvalues --   -0.50140  -0.49491  -0.46427  -0.40991  -0.39396
  Beta  occ. eigenvalues --   -0.37684  -0.35509  -0.34865  -0.33864  -0.32121
  Beta  occ. eigenvalues --   -0.31288  -0.29869  -0.28479  -0.28144  -0.27239
  Beta  occ. eigenvalues --   -0.26188  -0.25492  -0.25238  -0.18493  -0.17150
  Beta  occ. eigenvalues --   -0.17053  -0.16947  -0.16074  -0.13917  -0.13407
  Beta  occ. eigenvalues --   -0.10719  -0.10276
  Beta virt. eigenvalues --    0.06987   0.07327   0.08323   0.08949   0.09290
  Beta virt. eigenvalues --    0.10205   0.10429   0.11718   0.11908   0.12795
  Beta virt. eigenvalues --    0.13468   0.15162   0.15505   0.16163   0.16484

 Mulliken charges and spin densities:
               1          2
     1  C   -0.510653   0.001495
     2  C   -0.149907   0.173066
     3  C   -0.084403  -0.046753
     4  N    0.041687   0.105717
     5  C   -0.638937   0.057081
     6  C   -0.044775   0.050638
     7  C    0.506525   0.134753
     8  C   -0.273246   0.065481
     9  N   -0.051568   0.006018
    10  C   -0.496359   0.224239
    11  N   -0.097742   0.003927
    12  C   -0.020892   0.078149
    13  C    0.224038   0.071502
    14  O   -0.359209   0.080675
    15  O   -0.181978   0.011657
    16  H    0.139261  -0.002514
    17  H    0.128098  -0.012154
    18  H    0.146585   0.003244
    19  H    0.113031   0.001449
    20  H    0.135748  -0.002323
    21  H    0.206244  -0.004528
    22  H    0.268452  -0.000818
 Sum of Mulliken charges =  -1.00000   1.00000

 Dipole moment (field-independent basis, Debye):
    X=              4.7307    Y=             -0.1266    Z=              0.5309  Tot=              4.7620
 Quadrupole moment (field-independent basis, Debye-Ang):
   XX=           -131.2776   YY=           -100.6509   ZZ=            -92.5251
   XY=             12.0070   XZ=             -0.5956   YZ=              1.4331

 Summary of Natural Population Analysis:

                                       Natural Population
                Natural  -----------------------------------------------
    Atom  No    Charge         Core      Valence    Rydberg      Total
 -----------------------------------------------------------------------
      C    1   -0.09019      0.99958     2.08165    0.00896     3.09019
      C    2   -0.09876      0.99957     2.08998    0.00921     3.09876
      C    3    0.01030      0.99960     1.97546    0.01464     2.98970
      N    4   -0.20692      0.99969     2.69635    0.01088     3.70692
      C    5    0.12634      0.99942     1.86103    0.01322     2.87366
      C    6   -0.10874      0.99955     2.10077    0.00843     3.10874
      C    7   -0.03888      0.99949     2.03096    0.00843     3.03888
      C    8    0.05533      0.99956     1.93188    0.01323     2.94467
      N    9   -0.22540      0.99969     2.71564    0.01008     3.72540
      C   10    0.21095      0.99956     1.77163    0.01786     2.78905
      N   11   -0.23180      0.99969     2.72211    0.01000     3.73180
      C   12    0.06727      0.99956     1.91904    0.01412     2.93273
      C   13    0.39265      0.99971     1.58179    0.02585     2.60735
      O   14   -0.29044      0.99987     3.28302    0.00755     4.29044
      O   15   -0.33772      0.99988     3.33142    0.00643     4.33772
      H   16    0.09298      0.00000     0.40599    0.00102     0.40702
      H   17    0.09245      0.00000     0.40643    0.00112     0.40755
      H   18    0.08208      0.00000     0.41669    0.00124     0.41792
      H   19    0.09840      0.00000     0.40006    0.00154     0.40160
      H   20    0.08091      0.00000     0.41770    0.00140     0.41909
      H   21    0.09416      0.00000     0.40447    0.00137     0.40584
      H   22    0.22505      0.00000     0.26903    0.00593     0.27495
 =======================================================================
   * Total *    0.00000     14.99442    36.81309    0.19249    52.00000

 Normal termination of Gaussian 16 at Thu Dec 10 15:07:36 2020.
