 Gaussian 16, Revision A.03,

 -----------------------------------------------------------
 # opt freq B3LYP/6-31G(d) empiricaldispersion=gd3bj scf=xqc
 -----------------------------------------------------------

 -------------------------------
 CID_61433881_JID_10860_neutraal
 -------------------------------
 Symbolic Z-matrix:
 Charge =  0 Multiplicity = 1

 SCF Done:  E(RB3LYP) =  -1204.64895988     A.U. after   14 cycles
 SCF Done:  E(RB3LYP) =  -1204.65654332     A.U. after   12 cycles
 SCF Done:  E(RB3LYP) =  -1204.65774630     A.U. after   12 cycles
 SCF Done:  E(RB3LYP) =  -1204.65839860     A.U. after   11 cycles
 SCF Done:  E(RB3LYP) =  -1204.65868054     A.U. after   12 cycles
 SCF Done:  E(RB3LYP) =  -1204.65882804     A.U. after   12 cycles
 SCF Done:  E(RB3LYP) =  -1204.65889356     A.U. after   11 cycles
 SCF Done:  E(RB3LYP) =  -1204.65892997     A.U. after   10 cycles
 SCF Done:  E(RB3LYP) =  -1204.65893788     A.U. after   10 cycles
 SCF Done:  E(RB3LYP) =  -1204.65894249     A.U. after   10 cycles
 SCF Done:  E(RB3LYP) =  -1204.65982571     A.U. after   10 cycles
 SCF Done:  E(RB3LYP) =  -1204.65982737     A.U. after   10 cycles
 SCF Done:  E(RB3LYP) =  -1204.65982857     A.U. after    9 cycles
 SCF Done:  E(RB3LYP) =  -1204.65982875     A.U. after    7 cycles
 SCF Done:  E(RB3LYP) =  -1204.65982878     A.U. after    7 cycles
 Optimization completed.
    -- Stationary point found.
 Normal termination of Gaussian 16 at Sun Dec 13 13:49:33 2020.

 --------------------------------------------------------------------
 #N Geom=AllCheck Guess=TCheck SCRF=Check GenChk RB3LYP/6-31G(d) Freq
 --------------------------------------------------------------------

 Structure from the checkpoint file:  "JID_10860.chk"
 -------------------------------
 CID_61433881_JID_10860_neutraal
 -------------------------------
 Charge =  0 Multiplicity = 1

 SCF Done:  E(RB3LYP) =  -1204.65982878     A.U. after    1 cycles

  Exact polarizability: 256.269 -12.306 166.230 -14.468 -28.325 160.741
 Approx polarizability: 345.523 -31.023 254.543 -22.689 -69.054 278.936

                      1                      2                      3
                      A                      A                      A
 Frequencies --     17.1176                21.2059                34.8108
 Red. masses --      5.7892                 4.5725                 3.9595
 Frc consts  --      0.0010                 0.0012                 0.0028
 IR Inten    --      0.2387                 0.1794                 0.5041

                      4                      5                      6
                      A                      A                      A
 Frequencies --     35.5782                49.4571                65.7396
 Red. masses --      5.1494                 4.2787                 2.8513
 Frc consts  --      0.0038                 0.0062                 0.0073
 IR Inten    --      0.4538                 0.6675                 0.1686

                      7                      8                      9
                      A                      A                      A
 Frequencies --     83.1473               118.9402               137.4173
 Red. masses --      4.2953                 3.7312                 4.4958
 Frc consts  --      0.0175                 0.0311                 0.0500
 IR Inten    --      0.3879                 0.8216                 0.7341

                     10                     11                     12
                      A                      A                      A
 Frequencies --    187.9916               213.9534               236.4362
 Red. masses --      3.8901                 4.9168                 3.9794
 Frc consts  --      0.0810                 0.1326                 0.1311
 IR Inten    --      1.6299                 0.5624                 0.1825

                     13                     14                     15
                      A                      A                      A
 Frequencies --    239.0691               267.8333               284.6846
 Red. masses --      1.0493                 3.4034                 3.3040
 Frc consts  --      0.0353                 0.1438                 0.1578
 IR Inten    --     23.7909                 1.0507                 7.6582

                     16                     17                     18
                      A                      A                      A
 Frequencies --    325.4562               333.7774               366.0604
 Red. masses --      2.5055                 3.2304                 3.1547
 Frc consts  --      0.1564                 0.2120                 0.2491
 IR Inten    --      0.1665                 0.0031                 3.3921

                     19                     20                     21
                      A                      A                      A
 Frequencies --    369.1257               393.7769               422.7561
 Red. masses --      4.1042                 3.3477                 3.2521
 Frc consts  --      0.3295                 0.3058                 0.3425
 IR Inten    --      4.9780                 5.7846                 0.5092

                     22                     23                     24
                      A                      A                      A
 Frequencies --    449.6630               460.2799               496.4216
 Red. masses --      5.2236                 4.6601                 2.6285
 Frc consts  --      0.6223                 0.5817                 0.3817
 IR Inten    --      4.7393                 0.2496                 5.3223

                     25                     26                     27
                      A                      A                      A
 Frequencies --    521.2113               527.2199               577.9791
 Red. masses --      2.3290                 3.4757                 4.4104
 Frc consts  --      0.3728                 0.5692                 0.8681
 IR Inten    --     25.7180                 0.6650                 3.8052

                     28                     29                     30
                      A                      A                      A
 Frequencies --    608.5634               641.7333               662.5292
 Red. masses --      3.4870                 5.8467                 6.3992
 Frc consts  --      0.7609                 1.4186                 1.6550
 IR Inten    --      4.4382                 2.6168                 0.5012

                     31                     32                     33
                      A                      A                      A
 Frequencies --    672.7642               685.5469               714.0514
 Red. masses --      1.6963                 1.2335                 3.9593
 Frc consts  --      0.4524                 0.3416                 1.1894
 IR Inten    --    336.6745                 2.0661                48.5177

                     34                     35                     36
                      A                      A                      A
 Frequencies --    717.7189               747.2462               760.3988
 Red. masses --      3.5053                 1.9560                 2.0243
 Frc consts  --      1.0639                 0.6435                 0.6896
 IR Inten    --      8.5295                12.4638                 9.8729

                     37                     38                     39
                      A                      A                      A
 Frequencies --    784.1729               805.1190               808.9455
 Red. masses --      1.2450                 1.2984                 1.6576
 Frc consts  --      0.4511                 0.4959                 0.6391
 IR Inten    --     50.6485                 7.9151                19.7809

                     40                     41                     42
                      A                      A                      A
 Frequencies --    814.4077               827.8746               833.8943
 Red. masses --      1.3212                 1.6724                 1.7444
 Frc consts  --      0.5163                 0.6753                 0.7147
 IR Inten    --      0.9815                15.6395                65.5573

                     43                     44                     45
                      A                      A                      A
 Frequencies --    836.0193               862.9371               864.0731
 Red. masses --      2.6408                 4.6273                 4.0703
 Frc consts  --      1.0875                 2.0302                 1.7905
 IR Inten    --      4.4453                11.5061                14.6314

                     46                     47                     48
                      A                      A                      A
 Frequencies --    907.5588               907.9139               918.1716
 Red. masses --      1.3015                 1.2823                 2.9910
 Frc consts  --      0.6316                 0.6228                 1.4856
 IR Inten    --      1.7495                 0.6645                 4.1037

                     49                     50                     51
                      A                      A                      A
 Frequencies --    934.6905               952.0407               967.2948
 Red. masses --      1.2828                 3.2823                 3.0630
 Frc consts  --      0.6603                 1.7529                 1.6886
 IR Inten    --      0.4422                14.0601                 5.3719

                     52                     53                     54
                      A                      A                      A
 Frequencies --    999.4850              1029.5251              1041.0584
 Red. masses --      2.1449                 2.7116                 1.7681
 Frc consts  --      1.2624                 1.6933                 1.1290
 IR Inten    --     28.0571                 0.2349                25.4001

                     55                     56                     57
                      A                      A                      A
 Frequencies --   1060.6004              1080.6214              1085.6315
 Red. masses --      1.9050                 2.8074                 3.8582
 Frc consts  --      1.2625                 1.9316                 2.6792
 IR Inten    --      5.1909                17.6169                77.2148

                     58                     59                     60
                      A                      A                      A
 Frequencies --   1093.2723              1107.0229              1110.2396
 Red. masses --      1.4239                 1.4554                 1.1118
 Frc consts  --      1.0027                 1.0509                 0.8074
 IR Inten    --      6.9317                 4.9014                 6.2851

                     61                     62                     63
                      A                      A                      A
 Frequencies --   1137.8413              1157.1594              1162.8819
 Red. masses --      1.3399                 1.4680                 1.7779
 Frc consts  --      1.0221                 1.1582                 1.4165
 IR Inten    --     25.6159                 8.2104                14.4676

                     64                     65                     66
                      A                      A                      A
 Frequencies --   1167.3652              1192.3573              1207.1909
 Red. masses --      1.3881                 1.4984                 1.3902
 Frc consts  --      1.1145                 1.2551                 1.1936
 IR Inten    --     18.9354                 7.2298                 2.9691

                     67                     68                     69
                      A                      A                      A
 Frequencies --   1210.9356              1235.0067              1245.8022
 Red. masses --      1.1474                 2.0859                 1.6725
 Frc consts  --      0.9913                 1.8745                 1.5294
 IR Inten    --      8.4409                23.3217                72.5813

                     70                     71                     72
                      A                      A                      A
 Frequencies --   1259.9427              1278.6686              1306.0721
 Red. masses --      1.6326                 2.5197                 1.2631
 Frc consts  --      1.5270                 2.4273                 1.2695
 IR Inten    --     11.3866               232.7706                 3.7065

                     73                     74                     75
                      A                      A                      A
 Frequencies --   1313.3483              1324.4199              1341.1038
 Red. masses --      2.7799                 1.9667                 1.2606
 Frc consts  --      2.8251                 2.0325                 1.3359
 IR Inten    --     33.1293                33.7336                20.1940

                     76                     77                     78
                      A                      A                      A
 Frequencies --   1350.4031              1373.7807              1383.3030
 Red. masses --      1.6591                 1.5385                 2.8023
 Frc consts  --      1.7826                 1.7107                 3.1594
 IR Inten    --     27.9353                21.6847                34.1177

                     79                     80                     81
                      A                      A                      A
 Frequencies --   1400.1219              1432.0950              1439.0363
 Red. masses --      1.3623                 2.0066                 1.7688
 Frc consts  --      1.5734                 2.4247                 2.1581
 IR Inten    --      9.2561                14.8812                10.7958

                     82                     83                     84
                      A                      A                      A
 Frequencies --   1450.8651              1478.8489              1491.2681
 Red. masses --      1.4693                 4.9516                 3.0320
 Frc consts  --      1.8222                 6.3803                 3.9727
 IR Inten    --     15.3334                39.4834                 0.7187

                     85                     86                     87
                      A                      A                      A
 Frequencies --   1494.6851              1523.7597              1532.7638
 Red. masses --      1.0941                 1.1241                 1.0942
 Frc consts  --      1.4401                 1.5377                 1.5145
 IR Inten    --      1.5926                 5.5606                 0.6701

                     88                     89                     90
                      A                      A                      A
 Frequencies --   1538.1488              1544.2957              1567.1187
 Red. masses --      1.2873                 1.0959                 2.6305
 Frc consts  --      1.7944                 1.5399                 3.8062
 IR Inten    --     15.2701                 3.4008               277.3458

                     91                     92                     93
                      A                      A                      A
 Frequencies --   1603.4010              1645.2347              1683.2246
 Red. masses --      6.0357                 6.3626                 2.1765
 Frc consts  --      9.1424                10.1471                 3.6332
 IR Inten    --      0.2562                 3.5828                22.6013

                     94                     95                     96
                      A                      A                      A
 Frequencies --   1698.7695              2954.2620              2997.1379
 Red. masses --      1.6864                 1.0742                 1.0718
 Frc consts  --      2.8674                 5.5237                 5.6726
 IR Inten    --     42.5605                39.8244                51.7953

                     97                     98                     99
                      A                      A                      A
 Frequencies --   3044.1803              3066.6557              3106.6185
 Red. masses --      1.0692                 1.0835                 1.0889
 Frc consts  --      5.8379                 6.0035                 6.1920
 IR Inten    --     54.1291                34.8991                11.1214

                    100                    101                    102
                      A                      A                      A
 Frequencies --   3127.9652              3141.3688              3145.6380
 Red. masses --      1.0994                 1.0868                 1.0548
 Frc consts  --      6.3378                 6.3187                 6.1494
 IR Inten    --     36.6990                27.5092                12.6841

                    103                    104                    105
                      A                      A                      A
 Frequencies --   3163.4201              3175.8165              3177.6674
 Red. masses --      1.0602                 1.0891                 1.0886
 Frc consts  --      6.2513                 6.4721                 6.4765
 IR Inten    --     13.2782                18.9015                25.4307

                    106                    107                    108
                      A                      A                      A
 Frequencies --   3213.8138              3223.3070              3226.1896
 Red. masses --      1.0928                 1.1181                 1.0904
 Frc consts  --      6.6499                 6.8446                 6.6870
 IR Inten    --      8.3594                11.3180                16.7651

                    109                    110                    111
                      A                      A                      A
 Frequencies --   3241.7320              3250.3878              3258.8344
 Red. masses --      1.0893                 1.1130                 1.0934
 Frc consts  --      6.7446                 6.9284                 6.8414
 IR Inten    --      0.8298                10.6608                 1.0717

                    112                    113                    114
                      A                      A                      A
 Frequencies --   3272.0813              3534.1045              3630.2730
 Red. masses --      1.0983                 1.0483                 1.0968
 Frc consts  --      6.9279                 7.7145                 8.5165
 IR Inten    --      1.1828                 5.9924                 5.1279

 - Thermochemistry -
 -------------------
 Temperature   298.150 Kelvin.  Pressure   1.00000 Atm.
 Atom     1 has atomic number  6 and mass  12.00000

 Molecular mass:   288.12964 amu.
 Principal axes and moments of inertia in atomic units:
                           1         2         3
     Eigenvalues --  3345.25069********************
           X            0.99991   0.01365  -0.00111
           Y           -0.01365   0.99990   0.00452
           Z            0.00117  -0.00451   0.99999
 This molecule is an asymmetric top.
 Rotational symmetry number  1.
 Warning -- assumption of classical behavior for rotation
           may cause significant error
 Rotational temperatures (Kelvin)      0.02589     0.00596     0.00549
 Rotational constants (GHZ):           0.53949     0.12419     0.11446
 Zero-point vibrational energy     880468.9 (Joules/Mol)
                                  210.43712 (Kcal/Mol)
 Warning -- explicit consideration of  28 degrees of freedom as
           vibrations may cause significant error
 Vibrational temperatures:     24.63    30.51    50.08    51.19    71.16
          (Kelvin)             94.58   119.63   171.13   197.71   270.48
                              307.83   340.18   343.97   385.35   409.60
                              468.26   480.23   526.68   531.09   566.56
                              608.25   646.96   662.24   714.24   749.91
                              758.55   831.58   875.59   923.31   953.23
                              967.96   986.35  1027.36  1032.64  1075.12
                             1094.04  1128.25  1158.39  1163.89  1171.75
                             1191.13  1199.79  1202.85  1241.57  1243.21
                             1305.77  1306.29  1321.04  1344.81  1369.77
                             1391.72  1438.04  1481.26  1497.85  1525.97
                             1554.77  1561.98  1572.97  1592.76  1597.39
                             1637.10  1664.89  1673.13  1679.58  1715.54
                             1736.88  1742.27  1776.90  1792.43  1812.78
                             1839.72  1879.15  1889.62  1905.54  1929.55
                             1942.93  1976.56  1990.26  2014.46  2060.47
                             2070.45  2087.47  2127.73  2145.60  2150.52
                             2192.35  2205.31  2213.05  2221.90  2254.73
                             2306.94  2367.13  2421.78  2444.15  4250.52
                             4312.21  4379.90  4412.23  4469.73  4500.44
                             4519.73  4525.87  4551.46  4569.29  4571.95
                             4623.96  4637.62  4641.77  4664.13  4676.58
                             4688.74  4707.80  5084.79  5223.15

 Zero-point correction=                           0.335353 (Hartree/Particle)
 Thermal correction to Energy=                    0.354483
 Thermal correction to Enthalpy=                  0.355427
 Thermal correction to Gibbs Free Energy=         0.284385
 Sum of electronic and zero-point Energies=          -1204.324476
 Sum of electronic and thermal Energies=             -1204.305346
 Sum of electronic and thermal Enthalpies=           -1204.304402
 Sum of electronic and thermal Free Energies=        -1204.375444

                     E (Thermal)             CV                S
                      KCal/Mol        Cal/Mol-Kelvin    Cal/Mol-Kelvin
 Total                  222.441             73.925            149.520
 Electronic               0.000              0.000              0.000
 Translational            0.889              2.981             42.872
 Rotational               0.889              2.981             34.993
 Vibrational            220.664             67.963             71.655
 Vibration     1          0.593              1.986              6.943
 Vibration     2          0.593              1.985              6.518
 Vibration     3          0.594              1.983              5.534
 Vibration     4          0.594              1.982              5.491
 Vibration     5          0.595              1.978              4.839
 Vibration     6          0.597              1.971              4.277
 Vibration     7          0.600              1.961              3.815
 Vibration     8          0.609              1.934              3.118
 Vibration     9          0.614              1.916              2.840
 Vibration    10          0.633              1.856              2.248
 Vibration    11          0.644              1.820              2.010
 Vibration    12          0.655              1.785              1.830
 Vibration    13          0.657              1.781              1.810
 Vibration    14          0.673              1.732              1.610
 Vibration    15          0.683              1.702              1.505
 Vibration    16          0.710              1.625              1.283
 Vibration    17          0.715              1.608              1.242
 Vibration    18          0.739              1.542              1.096
 Vibration    19          0.741              1.536              1.083
 Vibration    20          0.761              1.483              0.986
 Vibration    21          0.785              1.421              0.883
 Vibration    22          0.809              1.362              0.797
 Vibration    23          0.818              1.338              0.765
 Vibration    24          0.852              1.258              0.667
 Vibration    25          0.876              1.203              0.607
 Vibration    26          0.882              1.190              0.593
 Vibration    27          0.935              1.079              0.489
 Vibration    28          0.967              1.014              0.435

                           ! Non-Optimized Parameters !
 Normal termination of Gaussian 16 at Sun Dec 13 14:08:11 2020.

 ----------------------------------------------------------------------
 # B3LYP/6-311++G(d,p) empiricaldispersion=gd3bj scf=xqc pop=npa geom=c
 heck
 ----------------------------------------------------------------------

 ---------------------------------------
 CID_61433881_JID_10860_Energie_neutraal
 ---------------------------------------
 Structure from the checkpoint file:  "JID_10860.chk"
 Charge =  0 Multiplicity = 1

 SCF Done:  E(RB3LYP) =  -1204.90927524     A.U. after   15 cycles
 Normal termination of Gaussian 16 at Sun Dec 13 14:17:32 2020.

 ----------------------------------------------------------------------
 # B3LYP/6-311++G(d,p) empiricaldispersion=gd3bj scf=xqc pop=npa geom=c
 heck
 ----------------------------------------------------------------------

 -------------------------------------
 CID_61433881_JID_10860_Energie_kation
 -------------------------------------
 Structure from the checkpoint file:  "JID_10860.chk"
 Charge =  1 Multiplicity = 2

 SCF Done:  E(UB3LYP) =  -1204.65563122     A.U. after   21 cycles
 Normal termination of Gaussian 16 at Sun Dec 13 14:35:54 2020.
 Gaussian 16:  ES64L-G16RevA.03 25-Dec-2016

 ----------------------------------------------------------------------
 # B3LYP/6-311++G(d,p) empiricaldispersion=gd3bj scf=xqc pop=npa geom=c
 heck
 ----------------------------------------------------------------------

 ------------------------------------
 CID_61433881_JID_10860_Energie_anion
 ------------------------------------
 Structure from the checkpoint file:  "JID_10860.chk"
 Charge = -1 Multiplicity = 2

                         Standard orientation:
 ---------------------------------------------------------------------
 Center     Atomic      Atomic             Coordinates (Angstroms)
 Number     Number       Type             X           Y           Z
 ---------------------------------------------------------------------
      1          6           0        1.779315    2.858338    1.745137
      2          6           0        3.077238    2.267448    1.241305
      3          6           0        1.895298    2.345395    0.321128
      4          7           0        1.171687    1.188312   -0.165398
      5          6           0       -0.259047    1.464906   -0.304878
      6          6           0       -0.837359    0.732195   -1.519074
      7          8           0       -2.231948    0.967237   -1.665641
      8          6           0       -3.110120    0.278781   -0.864235
      9          6           0       -4.459641    0.620475   -1.011492
     10          6           0       -5.440107   -0.023545   -0.268945
     11          6           0       -5.104930   -1.033493    0.648131
     12          6           0       -3.754209   -1.368223    0.790112
     13          6           0       -2.763809   -0.722756    0.046614
     14          7           0       -6.092703   -1.638762    1.446141
     15          6           0        1.440741   -0.080743    0.505416
     16          6           0        2.754178   -0.697246    0.092897
     17          6           0        3.536989   -1.471474    0.907304
     18         16           0        4.944469   -2.069345    0.084418
     19          6           0        4.475438   -1.260808   -1.380003
     20          6           0        3.302408   -0.578720   -1.225584
     21          1           0        1.708820    3.929904    1.909171
     22          1           0        1.207724    2.261196    2.451088
     23          1           0        3.911668    2.931960    1.035743
     24          1           0        3.377635    1.301574    1.630224
     25          1           0        1.953738    3.116961   -0.444692
     26          1           0       -0.827296    1.215928    0.606281
     27          1           0       -0.392120    2.538110   -0.467027
     28          1           0       -0.376390    1.126711   -2.427828
     29          1           0       -0.626349   -0.344518   -1.487399
     30          1           0       -4.721472    1.397264   -1.722848
     31          1           0       -6.482161    0.260675   -0.396021
     32          1           0       -3.464994   -2.140926    1.498736
     33          1           0       -1.731183   -1.015919    0.193491
     34          1           0       -5.846811   -2.571350    1.757817
     35          1           0       -7.010932   -1.646770    1.017048
     36          1           0        1.386492   -0.007399    1.607084
     37          1           0        0.634008   -0.766405    0.221337
     38          1           0        3.369096   -1.722819    1.946302
     39          1           0        5.097529   -1.334372   -2.261585
     40          1           0        2.829893    0.011798   -2.000682
 ---------------------------------------------------------------------

 SCF Done:  E(UB3LYP) =  -1204.89853594     A.U. after   33 cycles
 SCF Done:  E(UB3LYP) =  -1204.89853594     a.u. after    1 cycles

 The electronic state is 2-A.
 Alpha  occ. eigenvalues --  -88.79076 -19.06244 -14.23107 -14.21775 -10.14145
 Alpha  occ. eigenvalues --  -10.13762 -10.12275 -10.12261 -10.11684 -10.11438
 Alpha  occ. eigenvalues --  -10.11304 -10.10711 -10.09673 -10.08933 -10.08867
 Alpha  occ. eigenvalues --  -10.08559 -10.08514 -10.08239 -10.08106 -10.07951
 Alpha  occ. eigenvalues --   -7.87690  -5.83976  -5.83611  -5.83305  -0.97785
 Alpha  occ. eigenvalues --   -0.85763  -0.82172  -0.79589  -0.76035  -0.74912
 Alpha  occ. eigenvalues --   -0.68924  -0.66564  -0.65666  -0.64394  -0.62247
 Alpha  occ. eigenvalues --   -0.59254  -0.55403  -0.52993  -0.52008  -0.49677
 Alpha  occ. eigenvalues --   -0.49368  -0.48432  -0.45643  -0.45054  -0.43178
 Alpha  occ. eigenvalues --   -0.42744  -0.41989  -0.41150  -0.40025  -0.38477
 Alpha  occ. eigenvalues --   -0.37731  -0.36022  -0.35111  -0.34203  -0.33551
 Alpha  occ. eigenvalues --   -0.33088  -0.32364  -0.31319  -0.31051  -0.30679
 Alpha  occ. eigenvalues --   -0.29876  -0.29383  -0.28739  -0.28361  -0.28045
 Alpha  occ. eigenvalues --   -0.26579  -0.25932  -0.25781  -0.23954  -0.23429
 Alpha  occ. eigenvalues --   -0.21840  -0.19307  -0.16800  -0.16703  -0.15504
 Alpha  occ. eigenvalues --   -0.13376  -0.10384   0.03834
 Alpha virt. eigenvalues --    0.04993   0.05647   0.06116   0.06388   0.07119
 Alpha virt. eigenvalues --    0.07329   0.07393   0.07757   0.08514   0.08993
 Alpha virt. eigenvalues --    0.09225   0.09317   0.10007   0.10333   0.10945

  Beta  occ. eigenvalues --  -88.79064 -19.06241 -14.23105 -14.21714 -10.14142
  Beta  occ. eigenvalues --  -10.13762 -10.12259 -10.12256 -10.11682 -10.11436
  Beta  occ. eigenvalues --  -10.11241 -10.10635 -10.09668 -10.08927 -10.08854
  Beta  occ. eigenvalues --  -10.08541 -10.08512 -10.08237 -10.08091 -10.07933
  Beta  occ. eigenvalues --   -7.87680  -5.83970  -5.83606  -5.83267  -0.97778
  Beta  occ. eigenvalues --   -0.85750  -0.82103  -0.79518  -0.76020  -0.74883
  Beta  occ. eigenvalues --   -0.68891  -0.66535  -0.65641  -0.64296  -0.62207
  Beta  occ. eigenvalues --   -0.59196  -0.55381  -0.52963  -0.51964  -0.49641
  Beta  occ. eigenvalues --   -0.49319  -0.48323  -0.45602  -0.45019  -0.43146
  Beta  occ. eigenvalues --   -0.42708  -0.41946  -0.41091  -0.39984  -0.38446
  Beta  occ. eigenvalues --   -0.37709  -0.35988  -0.35089  -0.34179  -0.33514
  Beta  occ. eigenvalues --   -0.33062  -0.32319  -0.31271  -0.31012  -0.30647
  Beta  occ. eigenvalues --   -0.29829  -0.29339  -0.28691  -0.28339  -0.27946
  Beta  occ. eigenvalues --   -0.26545  -0.25895  -0.25745  -0.23940  -0.23408
  Beta  occ. eigenvalues --   -0.21819  -0.19279  -0.16726  -0.16596  -0.15174
  Beta  occ. eigenvalues --   -0.13352  -0.10354
  Beta virt. eigenvalues --    0.05603   0.06177   0.06352   0.06472   0.06756
  Beta virt. eigenvalues --    0.07259   0.07444   0.07841   0.07932   0.08706
  Beta virt. eigenvalues --    0.09179   0.09316   0.09546   0.10103   0.10491

 Mulliken charges and spin densities:
               1          2
     1  C    0.518422  -0.960402
     2  C    0.111894  -0.406473
     3  C   -1.011280   0.854300
     4  N    0.371287  -0.042803
     5  C   -0.441839  -0.030525
     6  C   -0.211670  -0.247056
     7  O   -0.041768   0.000630
     8  C    0.119834  -0.491407
     9  C   -1.207804   0.917028
    10  C    0.559765  -0.472084
    11  C    0.685956  -1.166109
    12  C   -0.690907   0.622898
    13  C    1.244489  -0.766038
    14  N   -0.258179  -0.041539
    15  C    0.893250  -1.254284
    16  C   -0.187994  -0.224681
    17  C    0.067732   0.355439
    18  S   -0.241765  -0.163052
    19  C   -0.217752  -0.226202
    20  C   -0.556779   0.726611
    21  H   -0.015521   0.159753
    22  H   -0.110894   0.258512
    23  H   -0.125628   0.288567
    24  H    0.184669  -0.035405
    25  H   -0.010222   0.228350
    26  H    0.236365  -0.060138
    27  H    0.107460   0.056725
    28  H    0.201085  -0.024298
    29  H    0.042424   0.129710
    30  H    0.080845   0.081216
    31  H   -0.274938   0.436181
    32  H   -0.609882   0.799133
    33  H    0.218227  -0.158756
    34  H   -0.204914   0.449900
    35  H   -0.237361   0.479396
    36  H   -0.031306   0.218878
    37  H    0.216153  -0.146749
    38  H   -0.435168   0.708672
    39  H    0.194987   0.037919
    40  H    0.068727   0.108182
 Sum of Mulliken charges =  -1.00000   1.00000

 Dipole moment (field-independent basis, Debye):
    X=              8.1893    Y=              3.1896    Z=             -5.4239  Tot=             10.3274
 Quadrupole moment (field-independent basis, Debye-Ang):
   XX=           -268.9322   YY=           -174.5950   ZZ=           -165.7974
   XY=            -25.0167   XZ=              6.8162   YZ=              4.2739

 Summary of Natural Population Analysis:

                                       Natural Population
                Natural  -----------------------------------------------
    Atom  No    Charge         Core      Valence    Rydberg      Total
 -----------------------------------------------------------------------
      C    1   -0.21366      0.99962     2.20693    0.00710     3.21366
      C    2   -0.20309      0.99962     2.19415    0.00932     3.20309
      C    3   -0.00645      0.99957     1.99413    0.01275     3.00645
      N    4   -0.28176      0.99970     2.76899    0.01308     3.78176
      C    5   -0.09376      0.99960     2.08517    0.00899     3.09376
      C    6   -0.01117      0.99957     2.00055    0.01105     3.01117
      O    7   -0.28006      0.99986     3.27149    0.00871     4.28006
      C    8    0.13911      0.99937     1.84792    0.01360     2.86089
      C    9   -0.11314      0.99953     2.10467    0.00894     3.11314
      C   10   -0.11492      0.99953     2.10537    0.01002     3.11492
      C   11    0.07246      0.99948     1.91670    0.01135     2.92754
      C   12   -0.11314      0.99953     2.10333    0.01028     3.11314
      C   13   -0.13627      0.99952     2.12851    0.00823     3.13627
      N   14   -0.39739      0.99972     2.88698    0.01069     3.89739
      C   15   -0.09114      0.99956     2.07943    0.01215     3.09114
      C   16   -0.04851      0.99947     2.03738    0.01165     3.04851
      C   17   -0.18528      0.99945     2.17323    0.01259     3.18528
      S   18    0.19670      4.99946     2.78229    0.02155     7.80330
      C   19   -0.18476      0.99954     2.17428    0.01094     3.18476
      C   20   -0.12186      0.99948     2.11346    0.00892     3.12186
      H   21    0.10166      0.00000     0.39730    0.00104     0.39834
      H   22    0.10414      0.00000     0.39490    0.00096     0.39586
      H   23    0.10324      0.00000     0.39594    0.00082     0.39676
      H   24    0.11137      0.00000     0.38704    0.00158     0.38863
      H   25    0.09722      0.00000     0.40168    0.00110     0.40278
      H   26    0.09079      0.00000     0.40758    0.00163     0.40921
      H   27    0.09964      0.00000     0.39918    0.00118     0.40036
      H   28    0.09234      0.00000     0.40636    0.00131     0.40766
      H   29    0.08327      0.00000     0.41530    0.00143     0.41673
      H   30    0.10375      0.00000     0.39521    0.00104     0.39625
      H   31    0.10073      0.00000     0.39833    0.00093     0.39927
      H   32    0.10233      0.00000     0.39649    0.00118     0.39767
      H   33    0.10129      0.00000     0.39670    0.00201     0.39871
      H   34    0.18652      0.00000     0.30855    0.00492     0.31348
      H   35    0.18575      0.00000     0.30954    0.00471     0.31425
      H   36    0.09208      0.00000     0.40586    0.00206     0.40792
      H   37    0.10192      0.00000     0.39639    0.00169     0.39808
      H   38    0.11174      0.00000     0.38686    0.00140     0.38826
      H   39    0.10653      0.00000     0.39273    0.00073     0.39347
      H   40    0.11178      0.00000     0.38679    0.00143     0.38822
 =======================================================================
   * Total *   -0.00000     23.99118    52.75372    0.25510    77.00000

 Normal termination of Gaussian 16 at Sun Dec 13 15:05:37 2020.
