 Gaussian 16, Revision A.03,

 -----------------------------------------------------------
 # opt freq B3LYP/6-31G(d) empiricaldispersion=gd3bj scf=xqc
 -----------------------------------------------------------

 ------------------------------
 CID_10824591_JID_9112_neutraal
 ------------------------------
 Symbolic Z-matrix:
 Charge =  0 Multiplicity = 1

 SCF Done:  E(RB3LYP) =  -772.054636953     A.U. after   15 cycles
 SCF Done:  E(RB3LYP) =  -772.057657991     A.U. after   13 cycles
 SCF Done:  E(RB3LYP) =  -772.056038958     A.U. after   14 cycles
 SCF Done:  E(RB3LYP) =  -772.056517450     A.U. after   13 cycles
 SCF Done:  E(RB3LYP) =  -772.058054605     A.U. after    9 cycles
 SCF Done:  E(RB3LYP) =  -772.058456473     A.U. after   12 cycles
 SCF Done:  E(RB3LYP) =  -772.058526217     A.U. after   11 cycles
 SCF Done:  E(RB3LYP) =  -772.058587342     A.U. after   12 cycles
 SCF Done:  E(RB3LYP) =  -772.058619865     A.U. after   11 cycles
 SCF Done:  E(RB3LYP) =  -772.058654111     A.U. after   11 cycles
 SCF Done:  E(RB3LYP) =  -772.059577836     A.U. after    9 cycles
 SCF Done:  E(RB3LYP) =  -772.059579685     A.U. after    9 cycles
 SCF Done:  E(RB3LYP) =  -772.059580600     A.U. after    9 cycles
 SCF Done:  E(RB3LYP) =  -772.059580684     A.U. after    8 cycles
 SCF Done:  E(RB3LYP) =  -772.059580686     A.U. after    6 cycles
 SCF Done:  E(RB3LYP) =  -772.059580687     A.U. after    7 cycles
 Optimization completed.
    -- Stationary point found.
 Normal termination of Gaussian 16 at Mon Dec 14 13:51:51 2020.

 --------------------------------------------------------------------
 #N Geom=AllCheck Guess=TCheck SCRF=Check GenChk RB3LYP/6-31G(d) Freq
 --------------------------------------------------------------------

 Structure from the checkpoint file:  "JID_9112.chk"
 ------------------------------
 CID_10824591_JID_9112_neutraal
 ------------------------------
 Charge =  0 Multiplicity = 1

 SCF Done:  E(RB3LYP) =  -772.059580687     A.U. after    1 cycles

  Exact polarizability: 252.567  -1.257 210.309 -14.847  -4.166 130.829
 Approx polarizability: 379.115   0.666 349.420 -29.811 -16.615 209.089

                      1                      2                      3
                      A                      A                      A
 Frequencies --     20.0483                22.9868                28.4959
 Red. masses --      2.3155                 1.2632                 3.8204
 Frc consts  --      0.0005                 0.0004                 0.0018
 IR Inten    --      0.2733                 0.1687                 0.0993

                      4                      5                      6
                      A                      A                      A
 Frequencies --     48.4541                54.9621                77.2299
 Red. masses --      1.0208                 4.1448                 6.2233
 Frc consts  --      0.0014                 0.0074                 0.0219
 IR Inten    --      0.3106                 0.0581                 1.0771

                      7                      8                      9
                      A                      A                      A
 Frequencies --    112.8938               121.5544               132.0877
 Red. masses --      2.7082                 1.8512                 3.3959
 Frc consts  --      0.0203                 0.0161                 0.0349
 IR Inten    --      0.4322                 2.0364                 0.7614

                     10                     11                     12
                      A                      A                      A
 Frequencies --    156.0756               179.4051               193.4177
 Red. masses --      1.8169                 4.4133                 2.8128
 Frc consts  --      0.0261                 0.0837                 0.0620
 IR Inten    --      0.5892                 3.1910                 4.7491

                     13                     14                     15
                      A                      A                      A
 Frequencies --    219.3716               239.8614               281.8682
 Red. masses --      3.0144                 4.3473                 3.2467
 Frc consts  --      0.0855                 0.1474                 0.1520
 IR Inten    --      0.9107                 1.4672                 0.9545

                     16                     17                     18
                      A                      A                      A
 Frequencies --    305.1051               328.7528               357.9661
 Red. masses --      3.5300                 3.4130                 4.2839
 Frc consts  --      0.1936                 0.2173                 0.3234
 IR Inten    --      0.3659                 0.1992                 0.0903

                     19                     20                     21
                      A                      A                      A
 Frequencies --    370.8219               409.6183               449.2323
 Red. masses --      2.9717                 2.9303                 2.9871
 Frc consts  --      0.2408                 0.2897                 0.3552
 IR Inten    --      0.8933                 0.9232                 3.6428

                     22                     23                     24
                      A                      A                      A
 Frequencies --    462.2483               479.1015               503.7807
 Red. masses --      4.3004                 3.2685                 4.7127
 Frc consts  --      0.5414                 0.4420                 0.7047
 IR Inten    --      2.6714                 4.1696                30.8950

                     25                     26                     27
                      A                      A                      A
 Frequencies --    532.2634               546.6001               573.8670
 Red. masses --      4.8406                 3.9876                 4.2265
 Frc consts  --      0.8080                 0.7019                 0.8201
 IR Inten    --      0.2993                 0.5970                 4.4705

                     28                     29                     30
                      A                      A                      A
 Frequencies --    607.6004               635.7716               697.1465
 Red. masses --      4.1892                 4.8954                 5.7133
 Frc consts  --      0.9112                 1.1659                 1.6360
 IR Inten    --      5.1494                 0.7412                 5.7100

                     31                     32                     33
                      A                      A                      A
 Frequencies --    710.0179               726.9990               753.6601
 Red. masses --      2.3120                 5.4644                 3.8713
 Frc consts  --      0.6867                 1.7016                 1.2956
 IR Inten    --     11.6608                 8.0266                 3.9305

                     34                     35                     36
                      A                      A                      A
 Frequencies --    765.0695               803.1807               824.9630
 Red. masses --      3.9137                 1.5023                 4.3502
 Frc consts  --      1.3497                 0.5710                 1.7443
 IR Inten    --      1.6108                18.9313                 9.5601

                     37                     38                     39
                      A                      A                      A
 Frequencies --    832.0781               906.9378               907.9202
 Red. masses --      1.3231                 1.3335                 1.3394
 Frc consts  --      0.5397                 0.6463                 0.6505
 IR Inten    --     15.1776                 1.4354                 1.6196

                     40                     41                     42
                      A                      A                      A
 Frequencies --    923.1736               928.1508               958.4288
 Red. masses --      1.9130                 2.0254                 1.2974
 Frc consts  --      0.9606                 1.0280                 0.7022
 IR Inten    --      0.9043                 6.9139                 0.2875

                     43                     44                     45
                      A                      A                      A
 Frequencies --    966.0675               980.9708               983.5054
 Red. masses --      1.4996                 1.4782                 1.9044
 Frc consts  --      0.8246                 0.8381                 1.0853
 IR Inten    --     11.9823                 1.5242                11.1909

                     46                     47                     48
                      A                      A                      A
 Frequencies --   1017.6998              1020.7342              1039.4307
 Red. masses --      1.8248                 3.9076                 1.7185
 Frc consts  --      1.1135                 2.3988                 1.0939
 IR Inten    --     16.3562                 0.2337                 2.8576

                     49                     50                     51
                      A                      A                      A
 Frequencies --   1044.0836              1044.6600              1063.6894
 Red. masses --      1.7205                 1.4296                 2.7216
 Frc consts  --      1.1050                 0.9192                 1.8143
 IR Inten    --     15.0461                 2.5348                58.3824

                     52                     53                     54
                      A                      A                      A
 Frequencies --   1075.0852              1078.2729              1080.2417
 Red. masses --      1.6544                 1.5231                 1.5367
 Frc consts  --      1.1266                 1.0433                 1.0565
 IR Inten    --     13.7500                13.1263                 0.6679

                     55                     56                     57
                      A                      A                      A
 Frequencies --   1135.4259              1169.9201              1195.1986
 Red. masses --      1.6276                 1.9452                 1.6950
 Frc consts  --      1.2363                 1.5687                 1.4266
 IR Inten    --      9.5401                41.4851                20.6629

                     58                     59                     60
                      A                      A                      A
 Frequencies --   1203.4156              1212.8070              1244.1296
 Red. masses --      1.5902                 1.2640                 1.9767
 Frc consts  --      1.3568                 1.0954                 1.8027
 IR Inten    --      0.7562                 1.9327                 1.3609

                     61                     62                     63
                      A                      A                      A
 Frequencies --   1267.9074              1290.5553              1319.9849
 Red. masses --      3.1353                 3.2186                 1.5560
 Frc consts  --      2.9697                 3.1585                 1.5974
 IR Inten    --     16.0442                 0.5044                 2.8905

                     64                     65                     66
                      A                      A                      A
 Frequencies --   1339.5152              1344.6254              1371.2179
 Red. masses --      4.1674                 2.3800                 2.2542
 Frc consts  --      4.4056                 2.5353                 2.4972
 IR Inten    --      2.4112                19.7365                 0.8143

                     67                     68                     69
                      A                      A                      A
 Frequencies --   1403.4379              1441.1703              1443.3031
 Red. masses --      1.6437                 1.5261                 1.2493
 Frc consts  --      1.9075                 1.8676                 1.5334
 IR Inten    --      6.1030                 0.4928                 3.3662

                     70                     71                     72
                      A                      A                      A
 Frequencies --   1443.8170              1446.8759              1458.6108
 Red. masses --      1.2846                 1.2664                 2.1511
 Frc consts  --      1.5778                 1.5620                 2.6964
 IR Inten    --      0.7688                 4.2822                17.1773

                     73                     74                     75
                      A                      A                      A
 Frequencies --   1480.8664              1513.1404              1517.7547
 Red. masses --      2.2531                 1.0537                 1.0555
 Frc consts  --      2.9111                 1.4215                 1.4325
 IR Inten    --     10.3362                 7.5921                 4.2304

                     76                     77                     78
                      A                      A                      A
 Frequencies --   1518.1229              1519.2033              1522.7977
 Red. masses --      1.0577                 1.0996                 1.4056
 Frc consts  --      1.4362                 1.4953                 1.9205
 IR Inten    --      2.0591                 8.3054                12.6314

                     79                     80                     81
                      A                      A                      A
 Frequencies --   1529.6645              1540.4518              1550.2665
 Red. masses --      1.1225                 1.7766                 2.7525
 Frc consts  --      1.5475                 2.4839                 3.8976
 IR Inten    --     16.2468                17.9118                15.8162

                     82                     83                     84
                      A                      A                      A
 Frequencies --   1628.1024              1637.2085              1651.0668
 Red. masses --      5.2220                 5.1867                 6.6681
 Frc consts  --      8.1556                 8.1912                10.7098
 IR Inten    --      4.0267                12.7377               183.4350

                     85                     86                     87
                      A                      A                      A
 Frequencies --   1666.7262              1673.9078              1789.3702
 Red. masses --      5.7544                 6.3228                 9.1733
 Frc consts  --      9.4185                10.4381                17.3053
 IR Inten    --     24.4417                76.7773               163.7515

                     88                     89                     90
                      A                      A                      A
 Frequencies --   2931.1984              3041.9683              3044.9966
 Red. masses --      1.0843                 1.0408                 1.0389
 Frc consts  --      5.4890                 5.6744                 5.6755
 IR Inten    --    144.6160                34.0478                28.3786

                     91                     92                     93
                      A                      A                      A
 Frequencies --   3052.4904              3099.3686              3100.5041
 Red. masses --      1.0377                 1.0954                 1.0985
 Frc consts  --      5.6968                 6.1997                 6.2217
 IR Inten    --     19.5768                21.4417                17.0434

                     94                     95                     96
                      A                      A                      A
 Frequencies --   3110.2282              3126.9626              3130.2768
 Red. masses --      1.0981                 1.1027                 1.1019
 Frc consts  --      6.2587                 6.3527                 6.3618
 IR Inten    --     14.5730                14.9231                12.6478

                     97                     98                     99
                      A                      A                      A
 Frequencies --   3132.4314              3159.9271              3173.0899
 Red. masses --      1.1029                 1.0867                 1.0882
 Frc consts  --      6.3760                 6.3933                 6.4557
 IR Inten    --     14.9632                 1.0117                19.6274

                    100                    101                    102
                      A                      A                      A
 Frequencies --   3173.4138              3179.9985              3190.8220
 Red. masses --      1.0884                 1.0869                 1.0899
 Frc consts  --      6.4578                 6.4757                 6.5381
 IR Inten    --      5.7388                 4.6061                12.6319

                    103                    104                    105
                      A                      A                      A
 Frequencies --   3190.9922              3207.6903              3234.3535
 Red. masses --      1.0943                 1.0964                 1.0898
 Frc consts  --      6.5652                 6.6464                 6.7171
 IR Inten    --     28.8852                31.1103                 1.6758

 - Thermochemistry -
 -------------------
 Temperature   298.150 Kelvin.  Pressure   1.00000 Atm.
 Atom     1 has atomic number  6 and mass  12.00000

 Molecular mass:   250.13577 amu.
 Principal axes and moments of inertia in atomic units:
                           1         2         3
     Eigenvalues --  3790.722376141.022328204.97535
           X            0.99987  -0.01184  -0.01092
           Y            0.01202   0.99979   0.01652
           Z            0.01072  -0.01665   0.99980
 This molecule is an asymmetric top.
 Rotational symmetry number  1.
 Warning -- assumption of classical behavior for rotation
           may cause significant error
 Rotational temperatures (Kelvin)      0.02285     0.01410     0.01056
 Rotational constants (GHZ):           0.47609     0.29388     0.21996
 Zero-point vibrational energy     809482.4 (Joules/Mol)
                                  193.47094 (Kcal/Mol)
 Warning -- explicit consideration of  28 degrees of freedom as
           vibrations may cause significant error
 Vibrational temperatures:     28.85    33.07    41.00    69.71    79.08
          (Kelvin)            111.12   162.43   174.89   190.04   224.56
                              258.12   278.28   315.63   345.11   405.55
                              438.98   473.00   515.03   533.53   589.35
                              646.35   665.07   689.32   724.83   765.81
                              786.44   825.67   874.20   914.73  1003.04
                             1021.56  1045.99  1084.35  1100.76  1155.60
                             1186.94  1197.17  1304.88  1306.29  1328.24
                             1335.40  1378.97  1389.96  1411.40  1415.04
                             1464.24  1468.61  1495.51  1502.20  1503.03
                             1530.41  1546.81  1551.39  1554.23  1633.62
                             1683.25  1719.62  1731.45  1744.96  1790.03
                             1824.24  1856.82  1899.16  1927.26  1934.62
                             1972.88  2019.23  2073.52  2076.59  2077.33
                             2081.73  2098.62  2130.64  2177.07  2183.71
                             2184.24  2185.79  2190.97  2200.85  2216.37
                             2230.49  2342.48  2355.58  2375.52  2398.05
                             2408.38  2574.50  4217.34  4376.71  4381.07
                             4391.85  4459.30  4460.93  4474.92  4499.00
                             4503.77  4506.87  4546.43  4565.37  4565.83
                             4575.31  4590.88  4591.13  4615.15  4653.51

 Zero-point correction=                           0.308316 (Hartree/Particle)
 Thermal correction to Energy=                    0.326874
 Thermal correction to Enthalpy=                  0.327819
 Thermal correction to Gibbs Free Energy=         0.258712
 Sum of electronic and zero-point Energies=           -771.751265
 Sum of electronic and thermal Energies=              -771.732706
 Sum of electronic and thermal Enthalpies=            -771.731762
 Sum of electronic and thermal Free Energies=         -771.800869

                     E (Thermal)             CV                S
                      KCal/Mol        Cal/Mol-Kelvin    Cal/Mol-Kelvin
 Total                  205.117             68.689            145.447
 Electronic               0.000              0.000              0.000
 Translational            0.889              2.981             42.451
 Rotational               0.889              2.981             33.612
 Vibrational            203.339             62.727             69.384
 Vibration     1          0.593              1.986              6.629
 Vibration     2          0.593              1.985              6.358
 Vibration     3          0.593              1.984              5.931
 Vibration     4          0.595              1.978              4.880
 Vibration     5          0.596              1.976              4.630
 Vibration     6          0.599              1.964              3.960
 Vibration     7          0.607              1.939              3.219
 Vibration     8          0.609              1.931              3.076
 Vibration     9          0.612              1.921              2.915
 Vibration    10          0.620              1.896              2.597
 Vibration    11          0.629              1.868              2.335
 Vibration    12          0.635              1.849              2.195
 Vibration    13          0.647              1.812              1.964
 Vibration    14          0.657              1.779              1.804
 Vibration    15          0.681              1.707              1.522
 Vibration    16          0.696              1.664              1.389
 Vibration    17          0.712              1.618              1.266
 Vibration    18          0.733              1.559              1.131
 Vibration    19          0.743              1.532              1.076
 Vibration    20          0.774              1.449              0.928
 Vibration    21          0.808              1.363              0.798
 Vibration    22          0.820              1.334              0.760
 Vibration    23          0.836              1.296              0.712
 Vibration    24          0.859              1.242              0.649
 Vibration    25          0.887              1.179              0.582
 Vibration    26          0.902              1.147              0.551
 Vibration    27          0.930              1.088              0.497
 Vibration    28          0.966              1.016              0.437

                           ! Non-Optimized Parameters !
 Normal termination of Gaussian 16 at Mon Dec 14 14:10:41 2020.

 ----------------------------------------------------------------------
 # B3LYP/6-311++G(d,p) empiricaldispersion=gd3bj scf=xqc pop=npa geom=c
 heck
 ----------------------------------------------------------------------

 --------------------------------------
 CID_10824591_JID_9112_Energie_neutraal
 --------------------------------------
 Structure from the checkpoint file:  "JID_9112.chk"
 Charge =  0 Multiplicity = 1

 SCF Done:  E(RB3LYP) =  -772.258635421     A.U. after   17 cycles
 Normal termination of Gaussian 16 at Mon Dec 14 14:20:05 2020.

 ----------------------------------------------------------------------
 # B3LYP/6-311++G(d,p) empiricaldispersion=gd3bj scf=xqc pop=npa geom=c
 heck
 ----------------------------------------------------------------------

 ------------------------------------
 CID_10824591_JID_9112_Energie_kation
 ------------------------------------
 Structure from the checkpoint file:  "JID_9112.chk"
 Charge =  1 Multiplicity = 2

 SCF Done:  E(UB3LYP) =  -771.969884225     A.U. after   25 cycles
 Normal termination of Gaussian 16 at Mon Dec 14 14:40:03 2020.
 Gaussian 16:  ES64L-G16RevA.03 25-Dec-2016

 ----------------------------------------------------------------------
 # B3LYP/6-311++G(d,p) empiricaldispersion=gd3bj scf=xqc pop=npa geom=c
 heck
 ----------------------------------------------------------------------

 -----------------------------------
 CID_10824591_JID_9112_Energie_anion
 -----------------------------------
 Structure from the checkpoint file:  "JID_9112.chk"
 Charge = -1 Multiplicity = 2

                         Standard orientation:
 ---------------------------------------------------------------------
 Center     Atomic      Atomic             Coordinates (Angstroms)
 Number     Number       Type             X           Y           Z
 ---------------------------------------------------------------------
      1          6           0       -2.239928   -3.055154   -0.564471
      2          6           0       -2.560716   -1.589566   -0.396570
      3          6           0       -1.546971   -0.633927   -0.429686
      4          6           0       -1.823580    0.740743   -0.291768
      5          6           0       -3.164261    1.140372   -0.144695
      6          6           0       -4.184390    0.194497   -0.100112
      7          6           0       -3.885335   -1.161357   -0.220606
      8          6           0       -0.799986    1.779204   -0.307812
      9          6           0        0.542498    1.691607   -0.143296
     10          6           0        1.320697    2.953617   -0.283382
     11          8           0        0.846909    4.051182   -0.518219
     12          6           0        1.327986    0.469470    0.169566
     13          6           0        1.205373   -0.196410    1.407909
     14          6           0        2.003888   -1.323036    1.627222
     15          6           0        2.903190   -1.784171    0.667954
     16          6           0        3.044685   -1.121974   -0.555237
     17          6           0        2.253344    0.008685   -0.776768
     18          6           0        3.999435   -1.622397   -1.611404
     19          6           0        0.238897    0.264955    2.469636
     20          1           0       -2.506849   -3.407342   -1.569149
     21          1           0       -1.172377   -3.245812   -0.418823
     22          1           0       -2.796416   -3.669990    0.151756
     23          1           0       -0.524017   -0.958779   -0.574342
     24          1           0       -3.395174    2.198137   -0.052379
     25          1           0       -5.214678    0.513996    0.027812
     26          1           0       -4.685023   -1.897336   -0.184359
     27          1           0       -1.167664    2.791131   -0.476477
     28          1           0        2.416387    2.826764   -0.152005
     29          1           0        1.924278   -1.845004    2.577795
     30          1           0        3.509830   -2.662101    0.877314
     31          1           0        2.339987    0.540149   -1.722102
     32          1           0        4.890245   -2.074582   -1.162699
     33          1           0        3.529199   -2.388082   -2.242533
     34          1           0        4.325713   -0.812179   -2.271384
     35          1           0        0.494268   -0.169588    3.440813
     36          1           0        0.236204    1.354798    2.569337
     37          1           0       -0.788128   -0.034589    2.228304
 ---------------------------------------------------------------------

 SCF Done:  E(UB3LYP) =  -772.292672883     A.U. after   26 cycles

 The electronic state is 2-A.
 Alpha  occ. eigenvalues --  -18.93568 -10.07628 -10.07526 -10.07211 -10.06388
 Alpha  occ. eigenvalues --  -10.06161 -10.06079 -10.06024 -10.05777 -10.05677
 Alpha  occ. eigenvalues --  -10.05220 -10.04781 -10.04741 -10.04245 -10.03817
 Alpha  occ. eigenvalues --  -10.03735 -10.03252 -10.01637 -10.01235  -0.87061
 Alpha  occ. eigenvalues --   -0.75084  -0.73163  -0.68453  -0.66456  -0.65021
 Alpha  occ. eigenvalues --   -0.62833  -0.61422  -0.59119  -0.56914  -0.54746
 Alpha  occ. eigenvalues --   -0.51430  -0.48977  -0.47124  -0.45862  -0.44127
 Alpha  occ. eigenvalues --   -0.39337  -0.38391  -0.36735  -0.36203  -0.34281
 Alpha  occ. eigenvalues --   -0.34090  -0.32778  -0.31683  -0.31560  -0.31330
 Alpha  occ. eigenvalues --   -0.30048  -0.29914  -0.29323  -0.28890  -0.28202
 Alpha  occ. eigenvalues --   -0.27016  -0.26905  -0.26559  -0.25459  -0.24329
 Alpha  occ. eigenvalues --   -0.23548  -0.23237  -0.22862  -0.22206  -0.21069
 Alpha  occ. eigenvalues --   -0.19892  -0.16139  -0.13903  -0.12870  -0.12382
 Alpha  occ. eigenvalues --   -0.09282  -0.09055   0.02081
 Alpha virt. eigenvalues --    0.06943   0.07816   0.08398   0.08949   0.09556
 Alpha virt. eigenvalues --    0.09608   0.09870   0.10456   0.11043   0.11146
 Alpha virt. eigenvalues --    0.11435   0.12002   0.12190   0.12653   0.12731

  Beta  occ. eigenvalues --  -18.93160 -10.07628 -10.07328 -10.07220 -10.06372
  Beta  occ. eigenvalues --  -10.06156 -10.06066 -10.06004 -10.05772 -10.05754
  Beta  occ. eigenvalues --  -10.05179 -10.04835 -10.04741 -10.04253 -10.03591
  Beta  occ. eigenvalues --  -10.03578 -10.03089 -10.01544 -10.00847  -0.86322
  Beta  occ. eigenvalues --   -0.75021  -0.72947  -0.68339  -0.66187  -0.64903
  Beta  occ. eigenvalues --   -0.62549  -0.61403  -0.58770  -0.56700  -0.54689
  Beta  occ. eigenvalues --   -0.50798  -0.48762  -0.46984  -0.45736  -0.43767
  Beta  occ. eigenvalues --   -0.39112  -0.38320  -0.36650  -0.36033  -0.34070
  Beta  occ. eigenvalues --   -0.33975  -0.32763  -0.31574  -0.31472  -0.31298
  Beta  occ. eigenvalues --   -0.30019  -0.29864  -0.29283  -0.28826  -0.28064
  Beta  occ. eigenvalues --   -0.26851  -0.26692  -0.26415  -0.25253  -0.23758
  Beta  occ. eigenvalues --   -0.23248  -0.22871  -0.22139  -0.21328  -0.20941
  Beta  occ. eigenvalues --   -0.19673  -0.14760  -0.13572  -0.12611  -0.11883
  Beta  occ. eigenvalues --   -0.08819  -0.07583
  Beta virt. eigenvalues --    0.06928   0.07635   0.07802   0.08387   0.08936
  Beta virt. eigenvalues --    0.09594   0.09782   0.10055   0.10581   0.11098
  Beta virt. eigenvalues --    0.11151   0.11486   0.12067   0.12463   0.12690

 Mulliken charges and spin densities:
               1          2
     1  C   -0.580460   0.015237
     2  C    0.346633  -0.041025
     3  C   -0.137841   0.140501
     4  C    0.105972  -0.123639
     5  C   -0.483455   0.158056
     6  C   -0.356742  -0.034006
     7  C   -0.388620   0.208905
     8  C   -0.582022   0.315939
     9  C    0.547377   0.002986
    10  C   -0.299929   0.189231
    11  O   -0.353889   0.144784
    12  C    0.544476   0.007065
    13  C    0.587062  -0.050212
    14  C   -0.340051   0.011879
    15  C   -0.442347   0.018348
    16  C    0.329801   0.015758
    17  C   -0.465320   0.029747
    18  C   -0.675245   0.004228
    19  C   -0.832688   0.051357
    20  H    0.134928  -0.000702
    21  H    0.133823   0.000805
    22  H    0.127253  -0.000151
    23  H    0.162097  -0.011808
    24  H    0.114292  -0.002728
    25  H    0.124211   0.002055
    26  H    0.114812  -0.015005
    27  H    0.190959  -0.023360
    28  H    0.043795  -0.012574
    29  H    0.131604  -0.000232
    30  H    0.131346  -0.001866
    31  H    0.210033  -0.006687
    32  H    0.119496   0.000071
    33  H    0.163019  -0.000685
    34  H    0.133529   0.003227
    35  H    0.105177  -0.002491
    36  H    0.168685   0.006482
    37  H    0.168232   0.000509
 Sum of Mulliken charges =  -1.00000   1.00000

 Dipole moment (field-independent basis, Debye):
    X=              1.3093    Y=             -7.6779    Z=              1.0870  Tot=              7.8642
 Quadrupole moment (field-independent basis, Debye-Ang):
   XX=           -142.8524   YY=           -159.4359   ZZ=           -123.5727
   XY=             -8.3062   XZ=             -3.2788   YZ=              4.4758

 Summary of Natural Population Analysis:

                                       Natural Population
                Natural  -----------------------------------------------
    Atom  No    Charge         Core      Valence    Rydberg      Total
 -----------------------------------------------------------------------
      C    1   -0.28858      0.99964     2.28424    0.00470     3.28858
      C    2   -0.04116      0.99952     2.03366    0.00798     3.04116
      C    3   -0.06013      0.99948     2.05338    0.00727     3.06013
      C    4   -0.03796      0.99951     2.03010    0.00834     3.03796
      C    5   -0.06309      0.99953     2.05508    0.00848     3.06309
      C    6   -0.12195      0.99957     2.11304    0.00934     3.12195
      C    7   -0.06350      0.99952     2.05484    0.00914     3.06350
      C    8    0.01969      0.99947     1.97258    0.00826     2.98031
      C    9   -0.07705      0.99945     2.06491    0.01269     3.07705
      C   10    0.23081      0.99967     1.74902    0.02049     2.76919
      O   11   -0.26135      0.99988     3.25402    0.00744     4.26135
      C   12   -0.00944      0.99946     1.99762    0.01236     3.00944
      C   13   -0.00945      0.99946     2.00019    0.00980     3.00945
      C   14   -0.10167      0.99952     2.09401    0.00813     3.10167
      C   15   -0.10694      0.99952     2.09883    0.00859     3.10694
      C   16   -0.02839      0.99951     2.02121    0.00767     3.02839
      C   17   -0.08878      0.99947     2.08147    0.00784     3.08878
      C   18   -0.28983      0.99964     2.28557    0.00462     3.28983
      C   19   -0.29562      0.99964     2.29151    0.00447     3.29562
      H   20    0.09630      0.00000     0.40267    0.00103     0.40370
      H   21    0.10151      0.00000     0.39764    0.00085     0.39849
      H   22    0.09554      0.00000     0.40350    0.00096     0.40446
      H   23    0.10160      0.00000     0.39702    0.00138     0.39840
      H   24    0.09351      0.00000     0.40513    0.00136     0.40649
      H   25    0.09129      0.00000     0.40759    0.00112     0.40871
      H   26    0.08647      0.00000     0.41210    0.00142     0.41353
      H   27    0.09924      0.00000     0.39880    0.00196     0.40076
      H   28    0.03427      0.00000     0.46340    0.00233     0.46573
      H   29    0.09235      0.00000     0.40630    0.00134     0.40765
      H   30    0.09084      0.00000     0.40773    0.00143     0.40916
      H   31    0.09990      0.00000     0.39897    0.00113     0.40010
      H   32    0.09677      0.00000     0.40231    0.00092     0.40323
      H   33    0.09945      0.00000     0.39955    0.00100     0.40055
      H   34    0.10035      0.00000     0.39878    0.00087     0.39965
      H   35    0.09188      0.00000     0.40729    0.00083     0.40812
      H   36    0.11059      0.00000     0.38855    0.00086     0.38941
      H   37    0.11253      0.00000     0.38643    0.00103     0.38747
 =======================================================================
   * Total *    0.00000     18.99148    47.81904    0.18948    67.00000

 Normal termination of Gaussian 16 at Mon Dec 14 15:00:28 2020.
