 Gaussian 16, Revision A.03,

 -----------------------------------------------------------
 # opt freq B3LYP/6-31G(d) empiricaldispersion=gd3bj scf=xqc
 -----------------------------------------------------------

 -------------------------------
 CID_150830814_JID_2255_neutraal
 -------------------------------
 Symbolic Z-matrix:
 Charge =  0 Multiplicity = 1

 SCF Done:  E(RB3LYP) =  -675.737447372     A.U. after   17 cycles
 SCF Done:  E(RB3LYP) =  -675.744331703     A.U. after   16 cycles
 SCF Done:  E(RB3LYP) =  -675.736294128     A.U. after   17 cycles
 SCF Done:  E(RB3LYP) =  -675.744460868     A.U. after   15 cycles
 SCF Done:  E(RB3LYP) =  -675.746053959     A.U. after   12 cycles
 SCF Done:  E(RB3LYP) =  -675.746517601     A.U. after   14 cycles
 SCF Done:  E(RB3LYP) =  -675.746656406     A.U. after   15 cycles
 SCF Done:  E(RB3LYP) =  -675.746664792     A.U. after   17 cycles
 SCF Done:  E(RB3LYP) =  -675.746954551     A.U. after   14 cycles
 SCF Done:  E(RB3LYP) =  -675.747248468     A.U. after   17 cycles
 SCF Done:  E(RB3LYP) =  -675.750338416     A.U. after   13 cycles
 SCF Done:  E(RB3LYP) =  -675.750346425     A.U. after   11 cycles
 SCF Done:  E(RB3LYP) =  -675.750352938     A.U. after   12 cycles
 SCF Done:  E(RB3LYP) =  -675.750353402     A.U. after    9 cycles
 SCF Done:  E(RB3LYP) =  -675.750353671     A.U. after    9 cycles
 Optimization completed.
    -- Stationary point found.
 Normal termination of Gaussian 16 at Wed Dec  9 17:15:12 2020.

 --------------------------------------------------------------------
 #N Geom=AllCheck Guess=TCheck SCRF=Check GenChk RB3LYP/6-31G(d) Freq
 --------------------------------------------------------------------

 Structure from the checkpoint file:  "JID_2255.chk"
 -------------------------------
 CID_150830814_JID_2255_neutraal
 -------------------------------
 Charge =  0 Multiplicity = 1

 SCF Done:  E(RB3LYP) =  -675.750353671     A.U. after    2 cycles

  Exact polarizability: 101.427  -8.524  68.336  14.509  -2.837  73.212
 Approx polarizability: 156.442 -15.004 108.763  53.888 -11.571 145.106

                      1                      2                      3
                      A                      A                      A
 Frequencies --     34.0370                43.1343                56.8038
 Red. masses --      9.7694                12.7786                 8.5645
 Frc consts  --      0.0067                 0.0140                 0.0163
 IR Inten    --      1.3257                 0.3186                 1.5519

                      4                      5                      6
                      A                      A                      A
 Frequencies --     80.9369               158.3011               199.4182
 Red. masses --     13.3820                 8.1446                 4.1460
 Frc consts  --      0.0516                 0.1203                 0.0971
 IR Inten    --      1.0755                 4.0883                 1.9593

                      7                      8                      9
                      A                      A                      A
 Frequencies --    218.0717               242.5428               264.5806
 Red. masses --      1.0696                 1.3952                 3.1717
 Frc consts  --      0.0300                 0.0484                 0.1308
 IR Inten    --      0.1716                 0.2895                 0.2427

                     10                     11                     12
                      A                      A                      A
 Frequencies --    271.0721               324.1134               337.2589
 Red. masses --      3.2259                 3.7462                 3.1615
 Frc consts  --      0.1397                 0.2319                 0.2119
 IR Inten    --      1.5191                 0.3320                 6.5686

                     13                     14                     15
                      A                      A                      A
 Frequencies --    344.4908               432.7781               436.7983
 Red. masses --      6.8242                 9.1085                 5.7460
 Frc consts  --      0.4772                 1.0051                 0.6459
 IR Inten    --     11.0333                 3.5481                 7.5652

                     16                     17                     18
                      A                      A                      A
 Frequencies --    523.2192               533.3868               663.5679
 Red. masses --     11.3589                 5.6497                 5.2957
 Frc consts  --      1.8321                 0.9470                 1.3739
 IR Inten    --     10.1749                 4.7361                 8.7146

                     19                     20                     21
                      A                      A                      A
 Frequencies --    708.5024               751.6845               761.1238
 Red. masses --      8.3677                 4.6143                 6.9936
 Frc consts  --      2.4748                 1.5361                 2.3870
 IR Inten    --      3.0713                 0.0907                 1.1717

                     22                     23                     24
                      A                      A                      A
 Frequencies --    860.0151               865.3574               894.0902
 Red. masses --     10.4621                11.3479                 6.5019
 Frc consts  --      4.5591                 5.0067                 3.0623
 IR Inten    --     20.9109                32.1174                20.5393

                     25                     26                     27
                      A                      A                      A
 Frequencies --    966.5368               975.2570              1042.0168
 Red. masses --      2.7175                 1.4367                 1.3348
 Frc consts  --      1.4957                 0.8051                 0.8539
 IR Inten    --     24.0719                 2.2295                11.0524

                     28                     29                     30
                      A                      A                      A
 Frequencies --   1132.0640              1161.4022              1195.2861
 Red. masses --      3.9846                13.8760                 2.0045
 Frc consts  --      3.0087                11.0276                 1.6873
 IR Inten    --    252.0171                34.6368                 9.0972

                     31                     32                     33
                      A                      A                      A
 Frequencies --   1243.8906              1290.9230              1406.2222
 Red. masses --      4.2661                 3.4219                 4.0367
 Frc consts  --      3.8890                 3.3598                 4.7031
 IR Inten    --     13.0447                17.8610                64.9417

                     34                     35                     36
                      A                      A                      A
 Frequencies --   1428.8280              1457.9793              1505.4947
 Red. masses --      1.2629                 1.4817                 1.0471
 Frc consts  --      1.5191                 1.8558                 1.3982
 IR Inten    --     14.6765                42.7992                 4.8073

                     37                     38                     39
                      A                      A                      A
 Frequencies --   1509.8566              1522.9497              1533.9079
 Red. masses --      1.0480                 1.0535                 1.0566
 Frc consts  --      1.4076                 1.4397                 1.4648
 IR Inten    --      0.6403                13.4801                17.7635

                     40                     41                     42
                      A                      A                      A
 Frequencies --   1671.6491              1869.5010              2208.8361
 Red. masses --     13.3452                12.9101                14.0008
 Frc consts  --     21.9718                26.5847                40.2467
 IR Inten    --    246.7460               162.1903               246.0367

                     43                     44                     45
                      A                      A                      A
 Frequencies --   3079.7862              3084.1719              3155.1596
 Red. masses --      1.0366                 1.0356                 1.1002
 Frc consts  --      5.7927                 5.8038                 6.4529
 IR Inten    --      4.6032                 7.4657                 2.4108

                     46                     47                     48
                      A                      A                      A
 Frequencies --   3162.3787              3176.2578              3179.7960
 Red. masses --      1.1031                 1.1041                 1.1048
 Frc consts  --      6.4999                 6.5631                 6.5816
 IR Inten    --      8.2573                 3.7103                 5.3553

 - Thermochemistry -
 -------------------
 Temperature   298.150 Kelvin.  Pressure   1.00000 Atm.
 Atom     1 has atomic number  6 and mass  12.00000

 Molecular mass:   174.03890 amu.
 Principal axes and moments of inertia in atomic units:
                           1         2         3
     Eigenvalues --  1080.801132775.845152980.31102
           X            0.99955  -0.03010  -0.00055
           Y            0.03010   0.99954   0.00344
           Z            0.00044  -0.00346   0.99999
 This molecule is an asymmetric top.
 Rotational symmetry number  1.
 Warning -- assumption of classical behavior for rotation
           may cause significant error
 Rotational temperatures (Kelvin)      0.08014     0.03120     0.02906
 Rotational constants (GHZ):           1.66982     0.65016     0.60555
 Zero-point vibrational energy     322785.0 (Joules/Mol)
                                   77.14746 (Kcal/Mol)
 Warning -- explicit consideration of  17 degrees of freedom as
           vibrations may cause significant error
 Vibrational temperatures:     48.97    62.06    81.73   116.45   227.76
          (Kelvin)            286.92   313.76   348.96   380.67   390.01
                              466.33   485.24   495.65   622.67   628.46
                              752.80   767.42   954.73  1019.38  1081.51
                             1095.09  1237.37  1245.06  1286.40  1390.63
                             1403.18  1499.23  1628.79  1671.00  1719.75
                             1789.68  1857.35  2023.24  2055.76  2097.71
                             2166.07  2172.35  2191.18  2206.95  2405.13
                             2689.80  3178.02  4431.13  4437.44  4539.57
                             4549.96  4569.93  4575.02

 Zero-point correction=                           0.122942 (Hartree/Particle)
 Thermal correction to Energy=                    0.135166
 Thermal correction to Enthalpy=                  0.136111
 Thermal correction to Gibbs Free Energy=         0.083120
 Sum of electronic and zero-point Energies=           -675.627411
 Sum of electronic and thermal Energies=              -675.615187
 Sum of electronic and thermal Enthalpies=            -675.614243
 Sum of electronic and thermal Free Energies=         -675.667234

                     E (Thermal)             CV                S
                      KCal/Mol        Cal/Mol-Kelvin    Cal/Mol-Kelvin
 Total                   84.818             42.216            111.529
 Electronic               0.000              0.000              0.000
 Translational            0.889              2.981             41.370
 Rotational               0.889              2.981             30.570
 Vibrational             83.041             36.255             39.589
 Vibration     1          0.594              1.983              5.579
 Vibration     2          0.595              1.980              5.110
 Vibration     3          0.596              1.975              4.565
 Vibration     4          0.600              1.962              3.868
 Vibration     5          0.621              1.893              2.570
 Vibration     6          0.638              1.841              2.138
 Vibration     7          0.646              1.814              1.975
 Vibration     8          0.659              1.775              1.784
 Vibration     9          0.671              1.738              1.631
 Vibration    10          0.675              1.727              1.589
 Vibration    11          0.709              1.627              1.289
 Vibration    12          0.718              1.601              1.225
 Vibration    13          0.723              1.586              1.191
 Vibration    14          0.794              1.399              0.850
 Vibration    15          0.797              1.390              0.837
 Vibration    16          0.878              1.199              0.603
 Vibration    17          0.888              1.176              0.580

 Optimization completed.
    -- Stationary point found.
 Normal termination of Gaussian 16 at Wed Dec  9 17:19:02 2020.

 ----------------------------------------------------------------------
 # B3LYP/6-311++G(d,p) empiricaldispersion=gd3bj scf=xqc pop=npa geom=c
 heck
 ----------------------------------------------------------------------

 ---------------------------------------
 CID_150830814_JID_2255_Energie_neutraal
 ---------------------------------------
 Structure from the checkpoint file:  "JID_2255.chk"
 Charge =  0 Multiplicity = 1

 SCF Done:  E(RB3LYP) =  -675.951212635     A.U. after   16 cycles
 Normal termination of Gaussian 16 at Wed Dec  9 17:20:51 2020.

 ----------------------------------------------------------------------
 # B3LYP/6-311++G(d,p) empiricaldispersion=gd3bj scf=xqc pop=npa geom=c
 heck
 ----------------------------------------------------------------------

 -------------------------------------
 CID_150830814_JID_2255_Energie_kation
 -------------------------------------
 Structure from the checkpoint file:  "JID_2255.chk"
 Charge =  1 Multiplicity = 2

 SCF Done:  E(UB3LYP) =  -675.572330808     A.U. after   32 cycles
 Normal termination of Gaussian 16 at Wed Dec  9 17:26:25 2020.
 Gaussian 16:  ES64L-G16RevA.03 25-Dec-2016

 ----------------------------------------------------------------------
 # B3LYP/6-311++G(d,p) empiricaldispersion=gd3bj scf=xqc pop=npa geom=c
 heck
 ----------------------------------------------------------------------

 ------------------------------------
 CID_150830814_JID_2255_Energie_anion
 ------------------------------------
 Structure from the checkpoint file:  "JID_2255.chk"
 Charge = -1 Multiplicity = 2

                         Standard orientation:
 ---------------------------------------------------------------------
 Center     Atomic      Atomic             Coordinates (Angstroms)
 Number     Number       Type             X           Y           Z
 ---------------------------------------------------------------------
      1          6           0       -1.906699    1.078660    1.265479
      2          6           0       -1.241784    0.480046    0.025280
      3          6           0       -1.813301    1.019868   -1.282462
      4          6           0        0.277448    0.687693    0.094965
      5          8           0        0.860731    1.366715    0.893741
      6          8           0        0.869456   -0.004387   -0.927989
      7          7           0        2.284544    0.256099   -1.085029
      8          7           0        2.896520   -0.276202   -0.117162
      9          7           0        3.606598   -0.694381    0.665758
     10          7           0       -1.467207   -1.040741    0.110672
     11          8           0       -2.367527   -1.527785   -0.556574
     12          8           0       -0.746846   -1.645671    0.899662
     13          1           0       -1.742774    2.158464    1.274301
     14          1           0       -1.477475    0.655027    2.175092
     15          1           0       -2.981375    0.878836    1.236333
     16          1           0       -1.595761    2.090662   -1.347167
     17          1           0       -1.371225    0.517853   -2.144714
     18          1           0       -2.895077    0.877152   -1.303798
 ---------------------------------------------------------------------

 SCF Done:  E(UB3LYP) =  -675.989000832     A.U. after   33 cycles
 SCF Done:  E(UB3LYP) =  -675.989000832     a.u. after    1 cycles

 The electronic state is 2-A.
 Alpha  occ. eigenvalues --  -19.05166 -18.99580 -18.99076 -18.98555 -14.35749
 Alpha  occ. eigenvalues --  -14.29755 -14.24468 -14.21804 -10.17993 -10.12139
 Alpha  occ. eigenvalues --  -10.06377 -10.06127  -1.06555  -1.01255  -0.95991
 Alpha  occ. eigenvalues --   -0.91114  -0.89628  -0.78482  -0.72057  -0.59496
 Alpha  occ. eigenvalues --   -0.57042  -0.52942  -0.45510  -0.40955  -0.39125
 Alpha  occ. eigenvalues --   -0.37391  -0.37050  -0.36706  -0.35080  -0.34050
 Alpha  occ. eigenvalues --   -0.32288  -0.31022  -0.29991  -0.29097  -0.29044
 Alpha  occ. eigenvalues --   -0.27836  -0.26825  -0.25191  -0.22458  -0.18306
 Alpha  occ. eigenvalues --   -0.16773  -0.16371  -0.14855  -0.13997  -0.10679
 Alpha  occ. eigenvalues --    0.03064
 Alpha virt. eigenvalues --    0.05498   0.08432   0.10283   0.11017   0.12064
 Alpha virt. eigenvalues --    0.13036   0.14336   0.14779   0.14986   0.15629
 Alpha virt. eigenvalues --    0.16459   0.17899   0.19082   0.19714   0.20591

  Beta  occ. eigenvalues --  -19.04881 -18.99560 -18.98781 -18.98223 -14.35142
  Beta  occ. eigenvalues --  -14.29403 -14.24427 -14.21152 -10.17980 -10.12163
  Beta  occ. eigenvalues --  -10.06373 -10.06083  -1.05724  -1.00705  -0.95430
  Beta  occ. eigenvalues --   -0.90761  -0.89034  -0.77933  -0.71849  -0.59416
  Beta  occ. eigenvalues --   -0.56593  -0.52160  -0.45049  -0.40368  -0.38269
  Beta  occ. eigenvalues --   -0.36830  -0.35960  -0.35628  -0.34650  -0.33535
  Beta  occ. eigenvalues --   -0.31613  -0.30147  -0.29554  -0.29008  -0.28620
  Beta  occ. eigenvalues --   -0.27380  -0.26509  -0.25055  -0.21362  -0.18044
  Beta  occ. eigenvalues --   -0.16115  -0.14648  -0.14521  -0.13691  -0.10391
  Beta virt. eigenvalues --    0.08396   0.09849   0.10037   0.10470   0.11253
  Beta virt. eigenvalues --    0.12231   0.13024   0.14340   0.14881   0.15082
  Beta virt. eigenvalues --    0.15953   0.16567   0.17917   0.19084   0.19720

 Mulliken charges and spin densities:
               1          2
     1  C   -0.597134   0.032610
     2  C    0.380486   0.000592
     3  C   -0.496279  -0.013082
     4  C   -0.352682  -0.002601
     5  O   -0.245179   0.005192
     6  O    0.117058   0.045854
     7  N   -0.620171   0.051159
     8  N    0.503904   0.094686
     9  N   -0.263650   0.353870
    10  N   -0.126149   0.186820
    11  O   -0.144466   0.110867
    12  O   -0.146510   0.121496
    13  H    0.149655   0.002137
    14  H    0.205347   0.000139
    15  H    0.143426   0.000586
    16  H    0.124401   0.001604
    17  H    0.201048   0.003133
    18  H    0.166896   0.004938
 Sum of Mulliken charges =  -1.00000   1.00000

 Dipole moment (field-independent basis, Debye):
    X=             -4.2068    Y=              4.2697    Z=             -0.9644  Tot=              6.0710
 Quadrupole moment (field-independent basis, Debye-Ang):
   XX=           -103.4079   YY=            -85.3974   ZZ=            -79.7989
   XY=             -7.9784   XZ=             -4.1336   YZ=              0.4460

 Summary of Natural Population Analysis:

                                       Natural Population
                Natural  -----------------------------------------------
    Atom  No    Charge         Core      Valence    Rydberg      Total
 -----------------------------------------------------------------------
      C    1   -0.28277      0.99963     2.27691    0.00623     3.28277
      C    2   -0.00087      0.99950     1.98464    0.01672     3.00087
      C    3   -0.29169      0.99962     2.28531    0.00676     3.29169
      C    4    0.40765      0.99962     1.56504    0.02769     2.59235
      O    5   -0.29607      0.99986     3.28936    0.00685     4.29607
      O    6   -0.19048      0.99986     3.18049    0.01013     4.19048
      N    7   -0.08444      0.99974     2.56914    0.01556     3.58444
      N    8    0.11961      0.99971     2.36470    0.01597     3.38039
      N    9    0.06418      0.99982     2.42301    0.01299     3.43582
      N   10    0.30617      0.99973     2.16127    0.03283     3.19383
      O   11   -0.19751      0.99989     3.18961    0.00802     4.19751
      O   12   -0.18649      0.99990     3.17879    0.00781     4.18649
      H   13    0.10200      0.00000     0.39706    0.00094     0.39800
      H   14    0.11337      0.00000     0.38550    0.00113     0.38663
      H   15    0.09865      0.00000     0.40031    0.00104     0.40135
      H   16    0.09754      0.00000     0.40153    0.00093     0.40246
      H   17    0.11473      0.00000     0.38431    0.00096     0.38527
      H   18    0.10642      0.00000     0.39247    0.00111     0.39358
 =======================================================================
   * Total *    0.00000     11.99688    32.82947    0.17365    45.00000

 Normal termination of Gaussian 16 at Wed Dec  9 17:31:36 2020.
