 Gaussian 16, Revision A.03,

 -----------------------------------------------------------
 # opt freq B3LYP/6-31G(d) empiricaldispersion=gd3bj scf=xqc
 -----------------------------------------------------------

 -------------------------------
 CID_65830506_JID_10366_neutraal
 -------------------------------
 Symbolic Z-matrix:
 Charge =  0 Multiplicity = 1

 SCF Done:  E(RB3LYP) =  -1234.34754255     A.U. after   16 cycles
 SCF Done:  E(RB3LYP) =  -1234.35367007     A.U. after   14 cycles
 SCF Done:  E(RB3LYP) =  -1234.34921942     A.U. after   15 cycles
 SCF Done:  E(RB3LYP) =  -1234.35225504     A.U. after   14 cycles
 SCF Done:  E(RB3LYP) =  -1234.35622827     A.U. after   11 cycles
 SCF Done:  E(RB3LYP) =  -1234.35724994     A.U. after   15 cycles
 SCF Done:  E(RB3LYP) =  -1234.35748837     A.U. after   13 cycles
 SCF Done:  E(RB3LYP) =  -1234.35760916     A.U. after   12 cycles
 SCF Done:  E(RB3LYP) =  -1234.35766596     A.U. after   12 cycles
 SCF Done:  E(RB3LYP) =  -1234.35767606     A.U. after   10 cycles
 SCF Done:  E(RB3LYP) =  -1234.35772724     A.U. after   10 cycles
 SCF Done:  E(RB3LYP) =  -1234.35773130     A.U. after   10 cycles
 SCF Done:  E(RB3LYP) =  -1234.35772963     A.U. after   10 cycles
 SCF Done:  E(RB3LYP) =  -1234.35773236     A.U. after   10 cycles
 SCF Done:  E(RB3LYP) =  -1234.35773212     A.U. after    9 cycles
 SCF Done:  E(RB3LYP) =  -1234.35773247     A.U. after    9 cycles
 Optimization completed.
    -- Stationary point found.
 Normal termination of Gaussian 16 at Sat Dec 12 15:35:19 2020.

 --------------------------------------------------------------------
 #N Geom=AllCheck Guess=TCheck SCRF=Check GenChk RB3LYP/6-31G(d) Freq
 --------------------------------------------------------------------

 Structure from the checkpoint file:  "JID_10366.chk"
 -------------------------------
 CID_65830506_JID_10366_neutraal
 -------------------------------
 Charge =  0 Multiplicity = 1

 SCF Done:  E(RB3LYP) =  -1234.35773247     A.U. after    1 cycles

  Exact polarizability: 227.446   2.300 202.285 -42.994  -1.063 128.878
 Approx polarizability: 351.551  -3.913 370.315 -97.371  -3.742 227.368

                      1                      2                      3
                      A                      A                      A
 Frequencies --     19.8811                27.3901                50.5502
 Red. masses --      5.8749                 4.9732                 2.4810
 Frc consts  --      0.0014                 0.0022                 0.0037
 IR Inten    --      0.2677                 0.1878                 0.4151

                      4                      5                      6
                      A                      A                      A
 Frequencies --     55.1357                73.1943                92.7750
 Red. masses --      1.5007                 4.7906                 4.5954
 Frc consts  --      0.0027                 0.0151                 0.0233
 IR Inten    --      0.1590                 0.5439                 0.6036

                      7                      8                      9
                      A                      A                      A
 Frequencies --    132.5678               167.4432               176.9418
 Red. masses --      2.8897                 5.3244                 6.1411
 Frc consts  --      0.0299                 0.0880                 0.1133
 IR Inten    --      2.8062                 4.9902                 5.0062

                     10                     11                     12
                      A                      A                      A
 Frequencies --    201.2849               223.3309               241.9847
 Red. masses --      5.2231                 4.5277                 3.9880
 Frc consts  --      0.1247                 0.1331                 0.1376
 IR Inten    --      0.2390                 4.5197                 1.5451

                     13                     14                     15
                      A                      A                      A
 Frequencies --    254.5297               263.9436               283.0465
 Red. masses --      5.5115                 2.7050                 1.3350
 Frc consts  --      0.2104                 0.1110                 0.0630
 IR Inten    --      1.7463                 3.7968                11.8733

                     16                     17                     18
                      A                      A                      A
 Frequencies --    307.8879               325.0417               378.8172
 Red. masses --      5.7660                 2.9034                 5.9888
 Frc consts  --      0.3220                 0.1807                 0.5063
 IR Inten    --      4.5456                 1.4331                 3.3761

                     19                     20                     21
                      A                      A                      A
 Frequencies --    428.9404               442.8967               467.3777
 Red. masses --      5.8108                 3.0695                 4.5781
 Frc consts  --      0.6299                 0.3548                 0.5892
 IR Inten    --     21.3227                 1.7393                 4.8370

                     22                     23                     24
                      A                      A                      A
 Frequencies --    477.0997               538.3432               548.8888
 Red. masses --      3.1939                 5.4164                 3.7222
 Frc consts  --      0.4283                 0.9249                 0.6607
 IR Inten    --     19.7703                 0.5529                 6.7585

                     25                     26                     27
                      A                      A                      A
 Frequencies --    559.6862               575.5592               580.5023
 Red. masses --      2.3659                 4.1755                 5.1247
 Frc consts  --      0.4367                 0.8150                 1.0175
 IR Inten    --     71.6845                 1.0478                20.3145

                     28                     29                     30
                      A                      A                      A
 Frequencies --    589.0018               614.8529               629.0554
 Red. masses --      4.4452                 2.5716                 7.2671
 Frc consts  --      0.9086                 0.5728                 1.6943
 IR Inten    --     85.4620               100.4181                 2.5618

                     31                     32                     33
                      A                      A                      A
 Frequencies --    672.1686               692.8385               722.7660
 Red. masses --      4.6460                 7.1449                 5.0058
 Frc consts  --      1.2368                 2.0207                 1.5407
 IR Inten    --     10.0056                 3.0091                12.9253

                     34                     35                     36
                      A                      A                      A
 Frequencies --    746.7126               761.8081               783.6729
 Red. masses --      3.9199                 1.4351                 4.8120
 Frc consts  --      1.2877                 0.4907                 1.7412
 IR Inten    --      1.1170                52.0654                16.3067

                     37                     38                     39
                      A                      A                      A
 Frequencies --    792.6622               809.7794               843.3420
 Red. masses --      3.9737                 4.6962                 1.3095
 Frc consts  --      1.4710                 1.8144                 0.5488
 IR Inten    --      1.2287                13.4240                21.4412

                     40                     41                     42
                      A                      A                      A
 Frequencies --    858.4715               863.2842               909.9258
 Red. masses --      5.9254                 1.5147                 1.4160
 Frc consts  --      2.5729                 0.6651                 0.6908
 IR Inten    --      3.0229                 0.1652                 1.5686

                     43                     44                     45
                      A                      A                      A
 Frequencies --    929.8564               941.3873               971.5197
 Red. masses --      1.8603                 1.3412                 1.3331
 Frc consts  --      0.9477                 0.7003                 0.7413
 IR Inten    --      3.8280                 0.7795                 0.2863

                     46                     47                     48
                      A                      A                      A
 Frequencies --    982.7232              1032.8452              1039.7877
 Red. masses --      1.2545                 3.2394                 2.1407
 Frc consts  --      0.7138                 2.0361                 1.3636
 IR Inten    --      0.0205                20.6458                 4.6586

                     49                     50                     51
                      A                      A                      A
 Frequencies --   1059.3467              1071.9736              1081.2654
 Red. masses --      3.9122                 3.2236                 4.0827
 Frc consts  --      2.5867                 2.1825                 2.8123
 IR Inten    --     37.3667                44.9727                82.0222

                     52                     53                     54
                      A                      A                      A
 Frequencies --   1092.2019              1118.9500              1145.3044
 Red. masses --      2.2088                 2.2302                 1.2370
 Frc consts  --      1.5524                 1.6452                 0.9560
 IR Inten    --     36.5538                 1.7020                 5.8332

                     55                     56                     57
                      A                      A                      A
 Frequencies --   1158.8279              1165.3408              1171.2523
 Red. masses --      1.3045                 1.8824                 1.3529
 Frc consts  --      1.0322                 1.5061                 1.0935
 IR Inten    --      7.0130                 4.8102                 4.7680

                     58                     59                     60
                      A                      A                      A
 Frequencies --   1206.0244              1235.0482              1249.6239
 Red. masses --      1.4342                 1.4546                 1.3485
 Frc consts  --      1.2291                 1.3073                 1.2407
 IR Inten    --      8.3743                 2.2386                 5.1806

                     61                     62                     63
                      A                      A                      A
 Frequencies --   1282.0360              1286.7670              1335.2865
 Red. masses --      3.1257                 2.1631                 3.2984
 Frc consts  --      3.0269                 2.1102                 3.4649
 IR Inten    --     13.6925                34.6891                10.4436

                     64                     65                     66
                      A                      A                      A
 Frequencies --   1337.4669              1368.2067              1403.7348
 Red. masses --      2.4174                 1.6198                 3.7183
 Frc consts  --      2.5478                 1.7865                 4.3168
 IR Inten    --     11.5421                40.9585                24.2429

                     67                     68                     69
                      A                      A                      A
 Frequencies --   1412.6821              1440.6319              1460.7086
 Red. masses --      3.9439                 3.3770                 1.7662
 Frc consts  --      4.6373                 4.1294                 2.2203
 IR Inten    --      1.6638                18.3879                 7.9252

                     70                     71                     72
                      A                      A                      A
 Frequencies --   1467.9015              1481.1388              1487.6218
 Red. masses --      2.5436                 1.3150                 1.7567
 Frc consts  --      3.2291                 1.6997                 2.2905
 IR Inten    --     62.9722                15.4566                13.3630

                     73                     74                     75
                      A                      A                      A
 Frequencies --   1513.1768              1527.3160              1529.5719
 Red. masses --      1.0742                 2.3810                 1.4607
 Frc consts  --      1.4492                 3.2724                 2.0134
 IR Inten    --      5.7977                27.4062                 3.3856

                     76                     77                     78
                      A                      A                      A
 Frequencies --   1542.3962              1553.1338              1612.1590
 Red. masses --      1.8031                 4.8808                 5.9163
 Frc consts  --      2.5273                 6.9368                 9.0598
 IR Inten    --      9.2214                22.2055                15.8712

                     79                     80                     81
                      A                      A                      A
 Frequencies --   1629.7059              1634.2843              1672.1960
 Red. masses --      6.3128                 5.8870                 6.6278
 Frc consts  --      9.8786                 9.2641                10.9193
 IR Inten    --      0.2560                12.9555                16.7798

                     82                     83                     84
                      A                      A                      A
 Frequencies --   1702.0641              3055.9938              3089.0318
 Red. masses --      1.1770                 1.0371                 1.0596
 Frc consts  --      2.0091                 5.7068                 5.9569
 IR Inten    --     67.8493                52.1464                 6.7656

                     85                     86                     87
                      A                      A                      A
 Frequencies --   3116.5083              3135.9273              3160.7467
 Red. masses --      1.1043                 1.0889                 1.1072
 Frc consts  --      6.3195                 6.3094                 6.5171
 IR Inten    --     17.1139                35.1328                 0.8441

                     88                     89                     90
                      A                      A                      A
 Frequencies --   3185.4758              3188.1000              3193.3135
 Red. masses --      1.1006                 1.0889                 1.0859
 Frc consts  --      6.5801                 6.5207                 6.5240
 IR Inten    --      1.1480                21.4411                 0.1143

                     91                     92                     93
                      A                      A                      A
 Frequencies --   3200.4728              3211.5548              3212.9731
 Red. masses --      1.0890                 1.0935                 1.0934
 Frc consts  --      6.5720                 6.6452                 6.6503
 IR Inten    --      5.5388                17.3050                 9.3527

                     94                     95                     96
                      A                      A                      A
 Frequencies --   3219.4963              3567.4520              3662.9332
 Red. masses --      1.0970                 1.0479                 1.0985
 Frc consts  --      6.6995                 7.8577                 8.6839
 IR Inten    --     16.3366                47.7360                34.5370

 - Thermochemistry -
 -------------------
 Temperature   298.150 Kelvin.  Pressure   1.00000 Atm.
 Atom     1 has atomic number  6 and mass  12.00000

 Molecular mass:   286.08883 amu.
 Principal axes and moments of inertia in atomic units:
                           1         2         3
     Eigenvalues --  3468.684056844.726088435.78561
           X            0.99994  -0.00160  -0.01119
           Y            0.00153   0.99998  -0.00556
           Z            0.01120   0.00554   0.99992
 This molecule is an asymmetric top.
 Rotational symmetry number  1.
 Warning -- assumption of classical behavior for rotation
           may cause significant error
 Rotational temperatures (Kelvin)      0.02497     0.01265     0.01027
 Rotational constants (GHZ):           0.52030     0.26367     0.21394
 Zero-point vibrational energy     698133.6 (Joules/Mol)
                                  166.85794 (Kcal/Mol)
 Warning -- explicit consideration of  29 degrees of freedom as
           vibrations may cause significant error
 Vibrational temperatures:     28.60    39.41    72.73    79.33   105.31
          (Kelvin)            133.48   190.74   240.91   254.58   289.60
                              321.32   348.16   366.21   379.76   407.24
                              442.98   467.66   545.03   617.15   637.23
                              672.45   686.44   774.56   789.73   805.26
                              828.10   835.21   847.44   884.64   905.07
                              967.10   996.84  1039.90  1074.35  1096.07
                             1127.53  1140.46  1165.09  1213.38  1235.15
                             1242.07  1309.18  1337.86  1354.45  1397.80
                             1413.92  1486.03  1496.02  1524.16  1542.33
                             1555.70  1571.43  1609.92  1647.84  1667.29
                             1676.67  1685.17  1735.20  1776.96  1797.93
                             1844.56  1851.37  1921.18  1924.32  1968.54
                             2019.66  2032.53  2072.75  2101.63  2111.98
                             2131.03  2140.36  2177.12  2197.47  2200.71
                             2219.16  2234.61  2319.54  2344.78  2351.37
                             2405.92  2448.89  4396.89  4444.43  4483.96
                             4511.90  4547.61  4583.19  4586.96  4594.47
                             4604.77  4620.71  4622.75  4632.14  5132.77
                             5270.14

 Zero-point correction=                           0.265905 (Hartree/Particle)
 Thermal correction to Energy=                    0.283759
 Thermal correction to Enthalpy=                  0.284703
 Thermal correction to Gibbs Free Energy=         0.218330
 Sum of electronic and zero-point Energies=          -1234.091827
 Sum of electronic and thermal Energies=             -1234.073973
 Sum of electronic and thermal Enthalpies=           -1234.073029
 Sum of electronic and thermal Free Energies=        -1234.139402

                     E (Thermal)             CV                S
                      KCal/Mol        Cal/Mol-Kelvin    Cal/Mol-Kelvin
 Total                  178.062             68.263            139.694
 Electronic               0.000              0.000              0.000
 Translational            0.889              2.981             42.851
 Rotational               0.889              2.981             33.659
 Vibrational            176.284             62.301             63.183
 Vibration     1          0.593              1.986              6.646
 Vibration     2          0.593              1.984              6.010
 Vibration     3          0.595              1.977              4.796
 Vibration     4          0.596              1.976              4.624
 Vibration     5          0.599              1.967              4.066
 Vibration     6          0.602              1.954              3.601
 Vibration     7          0.613              1.921              2.908
 Vibration     8          0.624              1.883              2.464
 Vibration     9          0.628              1.871              2.360
 Vibration    10          0.638              1.838              2.121
 Vibration    11          0.649              1.806              1.932
 Vibration    12          0.658              1.776              1.788
 Vibration    13          0.665              1.755              1.699
 Vibration    14          0.671              1.739              1.636
 Vibration    15          0.682              1.705              1.515
 Vibration    16          0.698              1.659              1.374
 Vibration    17          0.709              1.625              1.285
 Vibration    18          0.749              1.515              1.044
 Vibration    19          0.790              1.407              0.862
 Vibration    20          0.803              1.377              0.818
 Vibration    21          0.825              1.322              0.745
 Vibration    22          0.834              1.301              0.718
 Vibration    23          0.893              1.165              0.569
 Vibration    24          0.904              1.142              0.546
 Vibration    25          0.915              1.119              0.524
 Vibration    26          0.932              1.084              0.494
 Vibration    27          0.937              1.073              0.484
 Vibration    28          0.946              1.055              0.469
 Vibration    29          0.974              1.000              0.425

                           ! Non-Optimized Parameters !
 Normal termination of Gaussian 16 at Sat Dec 12 15:57:30 2020.

 ----------------------------------------------------------------------
 # B3LYP/6-311++G(d,p) empiricaldispersion=gd3bj scf=xqc pop=npa geom=c
 heck
 ----------------------------------------------------------------------

 ---------------------------------------
 CID_65830506_JID_10366_Energie_neutraal
 ---------------------------------------
 Structure from the checkpoint file:  "JID_10366.chk"
 Charge =  0 Multiplicity = 1

 SCF Done:  E(RB3LYP) =  -1234.61001254     A.U. after   18 cycles
 Normal termination of Gaussian 16 at Sat Dec 12 16:08:22 2020.

 ----------------------------------------------------------------------
 # B3LYP/6-311++G(d,p) empiricaldispersion=gd3bj scf=xqc pop=npa geom=c
 heck
 ----------------------------------------------------------------------

 -------------------------------------
 CID_65830506_JID_10366_Energie_kation
 -------------------------------------
 Structure from the checkpoint file:  "JID_10366.chk"
 Charge =  1 Multiplicity = 2

 SCF Done:  E(UB3LYP) =  -1234.32666973     A.U. after   28 cycles
 Normal termination of Gaussian 16 at Sat Dec 12 16:33:11 2020.
 Gaussian 16:  ES64L-G16RevA.03 25-Dec-2016

 ----------------------------------------------------------------------
 # B3LYP/6-311++G(d,p) empiricaldispersion=gd3bj scf=xqc pop=npa geom=c
 heck
 ----------------------------------------------------------------------

 ------------------------------------
 CID_65830506_JID_10366_Energie_anion
 ------------------------------------
 Structure from the checkpoint file:  "JID_10366.chk"
 Charge = -1 Multiplicity = 2

                         Standard orientation:
 ---------------------------------------------------------------------
 Center     Atomic      Atomic             Coordinates (Angstroms)
 Number     Number       Type             X           Y           Z
 ---------------------------------------------------------------------
      1          6           0       -1.642228    2.831750   -1.343848
      2          7           0       -1.523219    1.420896   -1.046759
      3          6           0       -2.392277    0.629246   -0.344493
      4          6           0       -3.583768    0.923010    0.336006
      5          6           0       -4.206715   -0.128030    0.992800
      6          6           0       -3.672632   -1.437988    0.978677
      7          6           0       -2.499626   -1.726596    0.298499
      8          6           0       -1.846712   -0.681003   -0.378797
      9          6           0       -0.643241   -0.547872   -1.148509
     10          7           0       -0.470195    0.711525   -1.531751
     11          6           0        0.397783   -1.568000   -1.402862
     12         16           0        1.414954   -1.943357    0.136141
     13          8           0        2.553315   -2.816117   -0.343122
     14          6           0        2.076573   -0.262336    0.338776
     15          6           0        1.447274    0.703162    1.140979
     16          6           0        2.094182    1.955209    1.216683
     17          7           0        3.233988    2.257077    0.605476
     18          6           0        3.823666    1.306338   -0.134929
     19          6           0        3.281354    0.034554   -0.289234
     20          7           0        0.299228    0.462969    1.880588
     21          1           0       -2.413270    3.016595   -2.100618
     22          1           0       -1.893457    3.385687   -0.433740
     23          1           0       -0.675885    3.169333   -1.718089
     24          1           0       -4.000834    1.924883    0.349533
     25          1           0       -5.130193    0.058226    1.533053
     26          1           0       -4.194956   -2.227096    1.510394
     27          1           0       -2.090624   -2.732744    0.292520
     28          1           0       -0.014791   -2.541505   -1.684104
     29          1           0        1.117661   -1.240538   -2.155939
     30          1           0        1.641933    2.742070    1.822751
     31          1           0        4.760347    1.576429   -0.616051
     32          1           0        3.776076   -0.738598   -0.869490
     33          1           0       -0.176270    1.293460    2.208812
     34          1           0       -0.351926   -0.219483    1.516325
 ---------------------------------------------------------------------

 SCF Done:  E(UB3LYP) =  -1234.62141581     A.U. after   31 cycles

 The electronic state is 2-A.
 Alpha  occ. eigenvalues --  -88.82711 -18.96828 -14.25821 -14.21332 -14.19236
 Alpha  occ. eigenvalues --  -14.18930 -10.11355 -10.10826 -10.08745 -10.08343
 Alpha  occ. eigenvalues --  -10.08319 -10.08243 -10.08190 -10.06686 -10.06241
 Alpha  occ. eigenvalues --  -10.04952 -10.04885 -10.04821 -10.04709 -10.04327
 Alpha  occ. eigenvalues --   -7.90442  -5.86724  -5.86561  -5.86039  -0.92242
 Alpha  occ. eigenvalues --   -0.89817  -0.83478  -0.80296  -0.73702  -0.73093
 Alpha  occ. eigenvalues --   -0.69378  -0.65073  -0.64156  -0.63258  -0.62631
 Alpha  occ. eigenvalues --   -0.57988  -0.54825  -0.51730  -0.50792  -0.48891
 Alpha  occ. eigenvalues --   -0.47767  -0.44672  -0.41840  -0.41106  -0.40060
 Alpha  occ. eigenvalues --   -0.38886  -0.37647  -0.36867  -0.34660  -0.33921
 Alpha  occ. eigenvalues --   -0.33449  -0.33069  -0.32536  -0.32176  -0.31587
 Alpha  occ. eigenvalues --   -0.30145  -0.29304  -0.28931  -0.28825  -0.27845
 Alpha  occ. eigenvalues --   -0.26669  -0.25112  -0.24504  -0.23056  -0.22440
 Alpha  occ. eigenvalues --   -0.22175  -0.17850  -0.17150  -0.16747  -0.15806
 Alpha  occ. eigenvalues --   -0.14514  -0.13088  -0.12361  -0.10747  -0.09611
 Alpha  occ. eigenvalues --    0.03988
 Alpha virt. eigenvalues --    0.06523   0.07050   0.08372   0.09014   0.09311
 Alpha virt. eigenvalues --    0.09729   0.10301   0.10616   0.11227   0.11427
 Alpha virt. eigenvalues --    0.11861   0.12024   0.12417   0.12611   0.13185

  Beta  occ. eigenvalues --  -88.82687 -18.96816 -14.25742 -14.21324 -14.18759
  Beta  occ. eigenvalues --  -14.18709 -10.11353 -10.10829 -10.08803 -10.08283
  Beta  occ. eigenvalues --  -10.08280 -10.08246 -10.08119 -10.06614 -10.06159
  Beta  occ. eigenvalues --  -10.04951 -10.04912 -10.04685 -10.04496 -10.04038
  Beta  occ. eigenvalues --   -7.90417  -5.86704  -5.86501  -5.86025  -0.91831
  Beta  occ. eigenvalues --   -0.89764  -0.83320  -0.80182  -0.73411  -0.72753
  Beta  occ. eigenvalues --   -0.69181  -0.64899  -0.63865  -0.63114  -0.62194
  Beta  occ. eigenvalues --   -0.57810  -0.54628  -0.51653  -0.50306  -0.48726
  Beta  occ. eigenvalues --   -0.47636  -0.44492  -0.41790  -0.41015  -0.39927
  Beta  occ. eigenvalues --   -0.38656  -0.37554  -0.36503  -0.34574  -0.33800
  Beta  occ. eigenvalues --   -0.33271  -0.32930  -0.32384  -0.32047  -0.31438
  Beta  occ. eigenvalues --   -0.30052  -0.29144  -0.28645  -0.28423  -0.27657
  Beta  occ. eigenvalues --   -0.26596  -0.25024  -0.24398  -0.22453  -0.22059
  Beta  occ. eigenvalues --   -0.21586  -0.17307  -0.16533  -0.16127  -0.15214
  Beta  occ. eigenvalues --   -0.14238  -0.12437  -0.11672  -0.10259  -0.08622
  Beta virt. eigenvalues --    0.06999   0.07649   0.08335   0.08676   0.09126
  Beta virt. eigenvalues --    0.09630   0.09728   0.10390   0.10605   0.11318
  Beta virt. eigenvalues --    0.11424   0.11920   0.12108   0.12482   0.12699

 Mulliken charges and spin densities:
               1          2
     1  C   -0.234911  -0.012650
     2  N    0.090764   0.010324
     3  C    0.281860  -0.037709
     4  C   -0.226125   0.174751
     5  C   -0.404240   0.106337
     6  C   -0.491995  -0.001728
     7  C   -0.227037   0.226295
     8  C   -0.135925   0.009069
     9  C    0.036447   0.023127
    10  N    0.054681   0.252027
    11  C   -0.982028  -0.006112
    12  S    0.556228   0.061060
    13  O   -0.454918   0.002805
    14  C   -0.089657  -0.009024
    15  C   -0.884123  -0.001301
    16  C   -0.449653   0.042013
    17  N   -0.079820   0.078289
    18  C   -0.645394  -0.028890
    19  C    1.115965   0.099518
    20  N   -0.210295   0.010565
    21  H    0.122334   0.032007
    22  H    0.126625   0.004742
    23  H    0.162251  -0.002636
    24  H    0.112595  -0.015209
    25  H    0.118338  -0.008315
    26  H    0.129554   0.002714
    27  H    0.116101  -0.017366
    28  H    0.230484  -0.002317
    29  H    0.251643   0.004111
    30  H    0.111165   0.005026
    31  H    0.134248   0.001291
    32  H    0.227752  -0.006489
    33  H    0.219852   0.003078
    34  H    0.317232   0.000597
 Sum of Mulliken charges =  -1.00000   1.00000

 Dipole moment (field-independent basis, Debye):
    X=             -3.1044    Y=              2.5062    Z=              0.0019  Tot=              3.9898
 Quadrupole moment (field-independent basis, Debye-Ang):
   XX=           -179.2408   YY=           -150.2185   ZZ=           -139.0642
   XY=             -2.7286   XZ=             -3.7380   YZ=             -0.0342

 Summary of Natural Population Analysis:

                                       Natural Population
                Natural  -----------------------------------------------
    Atom  No    Charge         Core      Valence    Rydberg      Total
 -----------------------------------------------------------------------
      C    1   -0.17210      0.99966     2.16617    0.00628     3.17210
      N    2   -0.11345      0.99962     2.60261    0.01122     3.61345
      C    3    0.06910      0.99947     1.91885    0.01258     2.93090
      C    4   -0.09341      0.99954     2.08607    0.00780     3.09341
      C    5   -0.08035      0.99959     2.07131    0.00944     3.08035
      C    6   -0.12853      0.99958     2.11972    0.00923     3.12853
      C    7   -0.04749      0.99954     2.03994    0.00802     3.04749
      C    8   -0.07218      0.99946     2.06043    0.01229     3.07218
      C    9    0.04554      0.99954     1.93782    0.01710     2.95446
      N   10   -0.06125      0.99969     2.54980    0.01176     3.56125
      C   11   -0.25987      0.99954     2.24805    0.01228     3.25987
      S   12    0.59522      4.99937     2.35024    0.05517     7.40478
      O   13   -0.49023      0.99993     3.48275    0.00755     4.49023
      C   14   -0.11374      0.99934     2.09781    0.01659     3.11374
      C   15    0.06659      0.99942     1.91919    0.01480     2.93341
      C   16    0.01721      0.99956     1.96987    0.01336     2.98279
      N   17   -0.20532      0.99971     2.69406    0.01154     3.70532
      C   18   -0.00753      0.99960     1.99346    0.01447     3.00753
      C   19   -0.09902      0.99950     2.09053    0.00899     3.09902
      N   20   -0.39573      0.99971     2.88623    0.00979     3.89573
      H   21    0.08999      0.00000     0.40874    0.00128     0.41001
      H   22    0.09277      0.00000     0.40612    0.00110     0.40723
      H   23    0.10955      0.00000     0.38962    0.00084     0.39045
      H   24    0.09442      0.00000     0.40459    0.00100     0.40558
      H   25    0.09000      0.00000     0.40904    0.00097     0.41000
      H   26    0.09270      0.00000     0.40635    0.00095     0.40730
      H   27    0.09394      0.00000     0.40463    0.00143     0.40606
      H   28    0.10626      0.00000     0.39282    0.00092     0.39374
      H   29    0.11478      0.00000     0.38367    0.00155     0.38522
      H   30    0.07936      0.00000     0.41898    0.00167     0.42064
      H   31    0.08448      0.00000     0.41431    0.00122     0.41552
      H   32    0.11410      0.00000     0.38475    0.00115     0.38590
      H   33    0.18441      0.00000     0.31432    0.00127     0.31559
      H   34    0.19980      0.00000     0.29839    0.00180     0.30020
 =======================================================================
   * Total *    0.00000     23.99137    50.72123    0.28740    75.00000

 Normal termination of Gaussian 16 at Sat Dec 12 16:59:55 2020.
