 Gaussian 16, Revision A.03,

 -----------------------------------------------------------
 # opt freq B3LYP/6-31G(d) empiricaldispersion=gd3bj scf=xqc
 -----------------------------------------------------------

 -------------------------------
 CID_130169068_JID_5992_neutraal
 -------------------------------
 Symbolic Z-matrix:
 Charge =  0 Multiplicity = 1

 SCF Done:  E(RB3LYP) =  -739.469041649     A.U. after   17 cycles
 SCF Done:  E(RB3LYP) =  -739.478179004     A.U. after   14 cycles
 SCF Done:  E(RB3LYP) =  -739.478054530     A.U. after   14 cycles
 SCF Done:  E(RB3LYP) =  -739.479420071     A.U. after   12 cycles
 SCF Done:  E(RB3LYP) =  -739.479533957     A.U. after   13 cycles
 SCF Done:  E(RB3LYP) =  -739.479629414     A.U. after   12 cycles
 SCF Done:  E(RB3LYP) =  -739.479694119     A.U. after   12 cycles
 SCF Done:  E(RB3LYP) =  -739.479717458     A.U. after   11 cycles
 SCF Done:  E(RB3LYP) =  -739.479735050     A.U. after   12 cycles
 SCF Done:  E(RB3LYP) =  -739.479756109     A.U. after   12 cycles
 SCF Done:  E(RB3LYP) =  -739.479833510     A.U. after   13 cycles
 SCF Done:  E(RB3LYP) =  -739.479836583     A.U. after   11 cycles
 SCF Done:  E(RB3LYP) =  -739.479838303     A.U. after   12 cycles
 SCF Done:  E(RB3LYP) =  -739.479838575     A.U. after    8 cycles
 SCF Done:  E(RB3LYP) =  -739.479838592     A.U. after    7 cycles
 SCF Done:  E(RB3LYP) =  -739.479838590     A.U. after    7 cycles
 Optimization completed.
    -- Stationary point found.
 Normal termination of Gaussian 16 at Thu Dec 10 17:52:35 2020.

 --------------------------------------------------------------------
 #N Geom=AllCheck Guess=TCheck SCRF=Check GenChk RB3LYP/6-31G(d) Freq
 --------------------------------------------------------------------

 Structure from the checkpoint file:  "JID_5992.chk"
 -------------------------------
 CID_130169068_JID_5992_neutraal
 -------------------------------
 Charge =  0 Multiplicity = 1

 SCF Done:  E(RB3LYP) =  -739.479838590     A.U. after    1 cycles

  Exact polarizability: 123.562  15.471 120.447  -4.394  -4.481  94.075
 Approx polarizability: 162.538  28.001 195.622 -10.391 -11.096 168.074

                      1                      2                      3
                      A                      A                      A
 Frequencies --     16.0833                34.5112                40.0052
 Red. masses --     11.8284                 7.8244                 5.8843
 Frc consts  --      0.0018                 0.0055                 0.0055
 IR Inten    --      1.2182                 1.4181                 0.9421

                      4                      5                      6
                      A                      A                      A
 Frequencies --     73.8807                83.1054               137.9139
 Red. masses --      3.4909                 6.4357                 4.5090
 Frc consts  --      0.0112                 0.0262                 0.0505
 IR Inten    --      2.3314                 2.5248                 0.0161

                      7                      8                      9
                      A                      A                      A
 Frequencies --    156.7061               180.2246               260.5992
 Red. masses --      4.8484                 3.7461                 4.1567
 Frc consts  --      0.0701                 0.0717                 0.1663
 IR Inten    --      1.3677                 5.7785                 4.1792

                     10                     11                     12
                      A                      A                      A
 Frequencies --    315.2015               341.0587               371.0430
 Red. masses --      4.6553                 5.3933                 3.7209
 Frc consts  --      0.2725                 0.3696                 0.3018
 IR Inten    --      3.7337                 2.0157                 5.2946

                     13                     14                     15
                      A                      A                      A
 Frequencies --    414.7262               445.9752               455.9175
 Red. masses --      3.4971                 5.6027                 1.8532
 Frc consts  --      0.3544                 0.6566                 0.2270
 IR Inten    --      4.7875                 4.6489                 1.8865

                     16                     17                     18
                      A                      A                      A
 Frequencies --    485.2690               552.7403               560.9627
 Red. masses --      3.7218                 6.0235                 2.5946
 Frc consts  --      0.5164                 1.0843                 0.4811
 IR Inten    --      6.2744                 4.9932                24.1784

                     19                     20                     21
                      A                      A                      A
 Frequencies --    607.6815               630.9297               659.4753
 Red. masses --      4.7658                 2.3852                 3.3400
 Frc consts  --      1.0369                 0.5594                 0.8558
 IR Inten    --     22.1993                42.7894                35.1917

                     22                     23                     24
                      A                      A                      A
 Frequencies --    715.7875               766.3275               811.8812
 Red. masses --      2.7403                 4.8169                 2.8435
 Frc consts  --      0.8272                 1.6667                 1.1043
 IR Inten    --     41.3103                 5.7963                 6.2603

                     25                     26                     27
                      A                      A                      A
 Frequencies --    866.2271               877.0991               884.8744
 Red. masses --      2.1272                 2.6244                 2.8424
 Frc consts  --      0.9404                 1.1896                 1.3113
 IR Inten    --      1.2917                10.1759                 1.6286

                     28                     29                     30
                      A                      A                      A
 Frequencies --    906.5793               918.7427               951.3241
 Red. masses --      1.9345                 1.2950                 2.9832
 Frc consts  --      0.9368                 0.6440                 1.5907
 IR Inten    --      6.1044                 1.6311                21.8811

                     31                     32                     33
                      A                      A                      A
 Frequencies --    965.8206               987.3390              1013.2334
 Red. masses --      3.2202                 4.8424                 1.9804
 Frc consts  --      1.7698                 2.7813                 1.1979
 IR Inten    --      8.8012                41.3392                10.0760

                     34                     35                     36
                      A                      A                      A
 Frequencies --   1024.7624              1025.4872              1100.9520
 Red. masses --      3.3221                 2.8375                 2.1903
 Frc consts  --      2.0554                 1.7581                 1.5642
 IR Inten    --      6.0282                 4.3111                43.2963

                     37                     38                     39
                      A                      A                      A
 Frequencies --   1120.5803              1132.6064              1152.4736
 Red. masses --      3.6716                 2.0434                 1.1620
 Frc consts  --      2.7164                 1.5444                 0.9093
 IR Inten    --     42.3798                 2.2859                 7.9788

                     40                     41                     42
                      A                      A                      A
 Frequencies --   1178.8224              1185.1187              1214.0992
 Red. masses --      2.7810                 2.2451                 2.0389
 Frc consts  --      2.2769                 1.8578                 1.7708
 IR Inten    --     99.3626                15.8174                98.4536

                     43                     44                     45
                      A                      A                      A
 Frequencies --   1216.6284              1272.8592              1286.2767
 Red. masses --      2.5415                 1.3139                 1.3114
 Frc consts  --      2.2165                 1.2542                 1.2784
 IR Inten    --     33.2543                 8.9861                10.8663

                     46                     47                     48
                      A                      A                      A
 Frequencies --   1295.2706              1314.9322              1331.2664
 Red. masses --      1.2504                 1.2689                 1.3485
 Frc consts  --      1.2361                 1.2927                 1.4081
 IR Inten    --      1.8677                 4.9776                 7.3160

                     49                     50                     51
                      A                      A                      A
 Frequencies --   1351.4720              1361.9057              1379.4265
 Red. masses --      1.4319                 1.5216                 2.2823
 Frc consts  --      1.5409                 1.6628                 2.5587
 IR Inten    --     10.4838                 6.8704                29.7449

                     52                     53                     54
                      A                      A                      A
 Frequencies --   1396.2777              1416.9464              1417.4906
 Red. masses --      1.2839                 1.6811                 1.4411
 Frc consts  --      1.4747                 1.9887                 1.7061
 IR Inten    --      3.0456                12.9232                24.9137

                     55                     56                     57
                      A                      A                      A
 Frequencies --   1499.8719              1539.0069              1560.8213
 Red. masses --      1.0892                 1.0816                 1.1144
 Frc consts  --      1.4436                 1.5094                 1.5996
 IR Inten    --      6.6552                 0.3328                14.9390

                     58                     59                     60
                      A                      A                      A
 Frequencies --   1642.4496              1718.9400              1804.1198
 Red. masses --     10.7873                 7.6605                12.1615
 Frc consts  --     17.1454                13.3360                23.3221
 IR Inten    --     43.5465                11.1980               146.6450

                     61                     62                     63
                      A                      A                      A
 Frequencies --   1856.1354              3022.2710              3034.5800
 Red. masses --      9.5751                 1.0656                 1.0623
 Frc consts  --     19.4364                 5.7348                 5.7634
 IR Inten    --    339.5199                33.6393                20.0222

                     64                     65                     66
                      A                      A                      A
 Frequencies --   3055.1695              3072.4191              3087.1896
 Red. masses --      1.0669                 1.0840                 1.0939
 Frc consts  --      5.8675                 6.0292                 6.1428
 IR Inten    --      4.6797                 6.2876                 8.4685

                     67                     68                     69
                      A                      A                      A
 Frequencies --   3100.5620              3116.2011              3124.8140
 Red. masses --      1.0960                 1.0978                 1.0892
 Frc consts  --      6.2078                 6.2809                 6.2665
 IR Inten    --     40.7762                36.2748                20.5903

                     70                     71                     72
                      A                      A                      A
 Frequencies --   3130.2626              3147.2208              3684.1721
 Red. masses --      1.0981                 1.0923                 1.0640
 Frc consts  --      6.3396                 6.3745                 8.5091
 IR Inten    --     14.3869                53.1062                49.9211

 - Thermochemistry -
 -------------------
 Temperature   298.150 Kelvin.  Pressure   1.00000 Atm.
 Atom     1 has atomic number  6 and mass  12.00000

 Molecular mass:   209.08004 amu.
 Principal axes and moments of inertia in atomic units:
                           1         2         3
     Eigenvalues --  1528.675805390.446295626.34334
           X            0.99994   0.01003  -0.00397
           Y           -0.01003   0.99995   0.00022
           Z            0.00397  -0.00018   0.99999
 This molecule is an asymmetric top.
 Rotational symmetry number  1.
 Warning -- assumption of classical behavior for rotation
           may cause significant error
 Rotational temperatures (Kelvin)      0.05666     0.01607     0.01539
 Rotational constants (GHZ):           1.18059     0.33480     0.32077
 Zero-point vibrational energy     537488.8 (Joules/Mol)
                                  128.46290 (Kcal/Mol)
 Warning -- explicit consideration of  19 degrees of freedom as
           vibrations may cause significant error
 Vibrational temperatures:     23.14    49.65    57.56   106.30   119.57
          (Kelvin)            198.43   225.47   259.30   374.94   453.50
                              490.71   533.85   596.70   641.66   655.96
                              698.19   795.27   807.10   874.32   907.77
                              948.84  1029.86  1102.57  1168.12  1246.31
                             1261.95  1273.14  1304.37  1321.87  1368.74
                             1389.60  1420.56  1457.82  1474.40  1475.45
                             1584.02  1612.27  1629.57  1658.15  1696.06
                             1705.12  1746.82  1750.46  1831.36  1850.67
                             1863.61  1891.89  1915.40  1944.47  1959.48
                             1984.69  2008.93  2038.67  2039.45  2157.98
                             2214.29  2245.67  2363.12  2473.17  2595.73
                             2670.56  4348.37  4366.08  4395.71  4420.53
                             4441.78  4461.02  4483.52  4495.91  4503.75
                             4528.15  5300.70

 Zero-point correction=                           0.204719 (Hartree/Particle)
 Thermal correction to Energy=                    0.218123
 Thermal correction to Enthalpy=                  0.219068
 Thermal correction to Gibbs Free Energy=         0.161554
 Sum of electronic and zero-point Energies=           -739.275120
 Sum of electronic and thermal Energies=              -739.261715
 Sum of electronic and thermal Enthalpies=            -739.260771
 Sum of electronic and thermal Free Energies=         -739.318285

                     E (Thermal)             CV                S
                      KCal/Mol        Cal/Mol-Kelvin    Cal/Mol-Kelvin
 Total                  136.875             49.211            121.049
 Electronic               0.000              0.000              0.000
 Translational            0.889              2.981             41.916
 Rotational               0.889              2.981             32.206
 Vibrational            135.097             43.249             46.927
 Vibration     1          0.593              1.986              7.067
 Vibration     2          0.594              1.983              5.552
 Vibration     3          0.594              1.981              5.259
 Vibration     4          0.599              1.966              4.047
 Vibration     5          0.600              1.961              3.816
 Vibration     6          0.614              1.915              2.833
 Vibration     7          0.620              1.895              2.589
 Vibration     8          0.629              1.867              2.326
 Vibration     9          0.669              1.745              1.658
 Vibration    10          0.703              1.645              1.335
 Vibration    11          0.721              1.593              1.207
 Vibration    12          0.743              1.532              1.075
 Vibration    13          0.778              1.438              0.910
 Vibration    14          0.805              1.370              0.808
 Vibration    15          0.814              1.348              0.778
 Vibration    16          0.841              1.283              0.696
 Vibration    17          0.908              1.134              0.539
 Vibration    18          0.917              1.116              0.522
 Vibration    19          0.966              1.016              0.437

 Optimization completed.
    -- Stationary point found.
 Normal termination of Gaussian 16 at Thu Dec 10 18:00:12 2020.

 ----------------------------------------------------------------------
 # B3LYP/6-311++G(d,p) empiricaldispersion=gd3bj scf=xqc pop=npa geom=c
 heck
 ----------------------------------------------------------------------

 ---------------------------------------
 CID_130169068_JID_5992_Energie_neutraal
 ---------------------------------------
 Structure from the checkpoint file:  "JID_5992.chk"
 Charge =  0 Multiplicity = 1

 SCF Done:  E(RB3LYP) =  -739.695825810     A.U. after   16 cycles
 Normal termination of Gaussian 16 at Thu Dec 10 18:02:59 2020.

 ----------------------------------------------------------------------
 # B3LYP/6-311++G(d,p) empiricaldispersion=gd3bj scf=xqc pop=npa geom=c
 heck
 ----------------------------------------------------------------------

 -------------------------------------
 CID_130169068_JID_5992_Energie_kation
 -------------------------------------
 Structure from the checkpoint file:  "JID_5992.chk"
 Charge =  1 Multiplicity = 2

 SCF Done:  E(UB3LYP) =  -739.392110078     A.U. after   24 cycles
 Normal termination of Gaussian 16 at Thu Dec 10 18:08:25 2020.
 Gaussian 16:  ES64L-G16RevA.03 25-Dec-2016

 ----------------------------------------------------------------------
 # B3LYP/6-311++G(d,p) empiricaldispersion=gd3bj scf=xqc pop=npa geom=c
 heck
 ----------------------------------------------------------------------

 ------------------------------------
 CID_130169068_JID_5992_Energie_anion
 ------------------------------------
 Structure from the checkpoint file:  "JID_5992.chk"
 Charge = -1 Multiplicity = 2

                         Standard orientation:
 ---------------------------------------------------------------------
 Center     Atomic      Atomic             Coordinates (Angstroms)
 Number     Number       Type             X           Y           Z
 ---------------------------------------------------------------------
      1          6           0       -0.351601    0.258448   -0.782256
      2          6           0       -1.477008   -0.799543   -0.671944
      3          6           0       -0.347217   -1.841579   -0.470981
      4          7           0        0.607877   -0.848266   -1.009262
      5          6           0        1.960198   -0.788136   -0.487353
      6          6           0        2.007897   -0.435189    1.007355
      7          8           0        1.833234   -1.283238    1.858748
      8          7           0        2.187767    0.927038    1.381822
      9          6           0        2.754192    1.659551    0.490431
     10          6           0        3.120046    1.197241   -0.868728
     11          7           0        2.737636    0.086228   -1.370099
     12          6           0       -2.499656   -0.663821    0.452896
     13          6           0       -3.496072    0.450519    0.222769
     14          8           0       -4.700731    0.343417    0.232267
     15          8           0       -2.874491    1.638710   -0.006241
     16          1           0       -0.207986    0.799116    0.164630
     17          1           0       -0.407593    0.983404   -1.598765
     18          1           0       -1.979524   -0.943348   -1.632921
     19          1           0       -0.395438   -2.772373   -1.046764
     20          1           0       -0.188888   -2.078366    0.590382
     21          1           0        2.382948   -1.795498   -0.577340
     22          1           0        2.925103    2.713479    0.725630
     23          1           0        3.684611    1.884649   -1.501824
     24          1           0       -3.071762   -1.587623    0.572886
     25          1           0       -1.976593   -0.466327    1.397805
     26          1           0       -3.586609    2.291830   -0.142265
 ---------------------------------------------------------------------

 SCF Done:  E(UB3LYP) =  -739.753059855     A.U. after   23 cycles

 The electronic state is 2-A.
 Alpha  occ. eigenvalues --  -19.09325 -19.03931 -18.93697 -14.17781 -14.13811
 Alpha  occ. eigenvalues --  -14.13119 -10.22776 -10.09587 -10.09572 -10.08239
 Alpha  occ. eigenvalues --  -10.07948 -10.07933 -10.07345 -10.04543 -10.03902
 Alpha  occ. eigenvalues --   -1.03313  -0.94453  -0.88545  -0.82768  -0.78143
 Alpha  occ. eigenvalues --   -0.73124  -0.69713  -0.62406  -0.56477  -0.55243
 Alpha  occ. eigenvalues --   -0.52280  -0.48779  -0.45259  -0.44016  -0.41666
 Alpha  occ. eigenvalues --   -0.40800  -0.39288  -0.37289  -0.36190  -0.35057
 Alpha  occ. eigenvalues --   -0.34454  -0.32650  -0.31493  -0.30754  -0.29133
 Alpha  occ. eigenvalues --   -0.27998  -0.27293  -0.25462  -0.25009  -0.23993
 Alpha  occ. eigenvalues --   -0.23035  -0.22398  -0.21017  -0.20377  -0.19617
 Alpha  occ. eigenvalues --   -0.14658  -0.13738  -0.12505  -0.10589  -0.05796
 Alpha  occ. eigenvalues --    0.01272
 Alpha virt. eigenvalues --    0.06473   0.07574   0.08723   0.09905   0.10276
 Alpha virt. eigenvalues --    0.11170   0.12321   0.12352   0.12729   0.13474
 Alpha virt. eigenvalues --    0.14180   0.14697   0.15265   0.16535   0.16791

  Beta  occ. eigenvalues --  -19.09325 -19.03930 -18.93353 -14.17695 -14.13252
  Beta  occ. eigenvalues --  -14.12820 -10.22774 -10.09571 -10.09471 -10.08240
  Beta  occ. eigenvalues --  -10.07976 -10.07939 -10.07342 -10.04504 -10.03493
  Beta  occ. eigenvalues --   -1.03312  -0.94451  -0.87952  -0.82582  -0.77422
  Beta  occ. eigenvalues --   -0.72347  -0.69611  -0.62226  -0.56453  -0.54936
  Beta  occ. eigenvalues --   -0.51931  -0.48119  -0.44829  -0.43780  -0.41635
  Beta  occ. eigenvalues --   -0.40794  -0.39165  -0.37226  -0.36041  -0.34767
  Beta  occ. eigenvalues --   -0.34171  -0.32591  -0.31281  -0.30463  -0.28996
  Beta  occ. eigenvalues --   -0.27859  -0.26931  -0.25228  -0.24906  -0.23102
  Beta  occ. eigenvalues --   -0.22760  -0.21776  -0.20886  -0.19970  -0.17913
  Beta  occ. eigenvalues --   -0.14077  -0.12121  -0.11317  -0.10220  -0.05419
  Beta virt. eigenvalues --    0.06453   0.07550   0.08573   0.08721   0.09889
  Beta virt. eigenvalues --    0.10263   0.11160   0.12285   0.12331   0.12746
  Beta virt. eigenvalues --    0.13470   0.14298   0.15092   0.16371   0.16569

 Mulliken charges and spin densities:
               1          2
     1  C   -0.577877  -0.013760
     2  C    0.604590   0.008831
     3  C   -0.547889   0.003511
     4  N    0.108415  -0.015049
     5  C   -0.179388   0.007820
     6  C   -0.291492   0.069127
     7  O   -0.331892   0.118047
     8  N   -0.138454   0.129197
     9  C   -0.106416   0.356760
    10  C   -0.238692   0.062249
    11  N   -0.136850   0.266845
    12  C   -0.499876  -0.000702
    13  C   -0.092842   0.001899
    14  O   -0.288020   0.000388
    15  O   -0.160453  -0.000193
    16  H    0.124283  -0.002686
    17  H    0.175071   0.000832
    18  H    0.170450  -0.000000
    19  H    0.135790  -0.001851
    20  H    0.164290  -0.000553
    21  H    0.201094   0.040878
    22  H    0.117529  -0.024629
    23  H    0.106182  -0.008398
    24  H    0.188183   0.001111
    25  H    0.217684  -0.000591
    26  H    0.276577   0.000917
 Sum of Mulliken charges =  -1.00000   1.00000

 Dipole moment (field-independent basis, Debye):
    X=             -7.6233    Y=              0.7955    Z=             -2.5268  Tot=              8.0705
 Quadrupole moment (field-independent basis, Debye-Ang):
   XX=           -137.5052   YY=            -93.9693   ZZ=           -113.5507
   XY=             -3.4418   XZ=             -2.3510   YZ=              0.2418

 Summary of Natural Population Analysis:

                                       Natural Population
                Natural  -----------------------------------------------
    Atom  No    Charge         Core      Valence    Rydberg      Total
 -----------------------------------------------------------------------
      C    1   -0.07779      0.99963     2.06743    0.01073     3.07779
      C    2   -0.11611      0.99958     2.10829    0.00823     3.11611
      C    3   -0.07525      0.99964     2.06655    0.00906     3.07525
      N    4   -0.26877      0.99971     2.75144    0.01762     3.76877
      C    5    0.02390      0.99953     1.95804    0.01854     2.97610
      C    6    0.33315      0.99964     1.64045    0.02675     2.66685
      O    7   -0.27167      0.99987     3.26383    0.00797     4.27167
      N    8   -0.22906      0.99967     2.71570    0.01368     3.72906
      C    9    0.11154      0.99964     1.86891    0.01990     2.88846
      C   10    0.01476      0.99963     1.97125    0.01437     2.98524
      N   11   -0.13632      0.99970     2.62411    0.01252     3.63632
      C   12   -0.24013      0.99956     2.23228    0.00830     3.24013
      C   13    0.40925      0.99973     1.56554    0.02548     2.59075
      O   14   -0.31223      0.99987     3.30486    0.00750     4.31223
      O   15   -0.34207      0.99988     3.33579    0.00639     4.34207
      H   16    0.09499      0.00000     0.40253    0.00249     0.40501
      H   17    0.09244      0.00000     0.40650    0.00106     0.40756
      H   18    0.09526      0.00000     0.40341    0.00132     0.40474
      H   19    0.08530      0.00000     0.41340    0.00130     0.41470
      H   20    0.09639      0.00000     0.40200    0.00161     0.40361
      H   21    0.10526      0.00000     0.39308    0.00166     0.39474
      H   22    0.06799      0.00000     0.42999    0.00202     0.43201
      H   23    0.07482      0.00000     0.42371    0.00147     0.42518
      H   24    0.10833      0.00000     0.39065    0.00101     0.39167
      H   25    0.11938      0.00000     0.37937    0.00124     0.38062
      H   26    0.23663      0.00000     0.26068    0.00269     0.26337
 =======================================================================
   * Total *   -0.00000     14.99527    39.77979    0.22494    55.00000

 Normal termination of Gaussian 16 at Thu Dec 10 18:13:45 2020.
