 Gaussian 16, Revision A.03,

 -----------------------------------------------------------
 # opt freq B3LYP/6-31G(d) empiricaldispersion=gd3bj scf=xqc
 -----------------------------------------------------------

 ------------------------------
 CID_150651046_JID_109_neutraal
 ------------------------------
 Symbolic Z-matrix:
 Charge =  0 Multiplicity = 1

 SCF Done:  E(RB3LYP) =  -1186.13324734     A.U. after   17 cycles
 SCF Done:  E(RB3LYP) =  -1186.14935187     A.U. after   15 cycles
 SCF Done:  E(RB3LYP) =  -1186.15195333     A.U. after   16 cycles
 SCF Done:  E(RB3LYP) =  -1186.15236359     A.U. after   13 cycles
 SCF Done:  E(RB3LYP) =  -1186.15290964     A.U. after   14 cycles
 SCF Done:  E(RB3LYP) =  -1186.15314381     A.U. after   14 cycles
 SCF Done:  E(RB3LYP) =  -1186.15321292     A.U. after   14 cycles
 SCF Done:  E(RB3LYP) =  -1186.15326116     A.U. after   10 cycles
 SCF Done:  E(RB3LYP) =  -1186.15327515     A.U. after   11 cycles
 SCF Done:  E(RB3LYP) =  -1186.15327902     A.U. after   10 cycles
 SCF Done:  E(RB3LYP) =  -1186.15327947     A.U. after    9 cycles
 Optimization completed.
    -- Stationary point found.
 Normal termination of Gaussian 16 at Tue Dec  8 10:16:01 2020.

 --------------------------------------------------------------------
 #N Geom=AllCheck Guess=TCheck SCRF=Check GenChk RB3LYP/6-31G(d) Freq
 --------------------------------------------------------------------

 Structure from the checkpoint file:  "JID_109.chk"
 ------------------------------
 CID_150651046_JID_109_neutraal
 ------------------------------
 Charge =  0 Multiplicity = 1

 SCF Done:  E(RB3LYP) =  -1186.15327947     A.U. after    1 cycles

  Exact polarizability: 174.214  25.334 112.220  -1.034  -0.611  42.915
 Approx polarizability: 306.206  89.537 227.529  -1.812   0.280  67.730

                      1                      2                      3
                      A                      A                      A
 Frequencies --     53.0574                98.8456               119.8209
 Red. masses --     12.3771                11.7112                 9.0570
 Frc consts  --      0.0205                 0.0674                 0.0766
 IR Inten    --      0.6382                 1.3187                 1.6566

                      4                      5                      6
                      A                      A                      A
 Frequencies --    169.6668               208.7901               266.1533
 Red. masses --      4.6540                 9.3722                 3.5409
 Frc consts  --      0.0789                 0.2407                 0.1478
 IR Inten    --      3.4249                18.1290                17.4516

                      7                      8                      9
                      A                      A                      A
 Frequencies --    274.1950               339.0943               437.1209
 Red. masses --      4.8277                 1.6017                12.6297
 Frc consts  --      0.2139                 0.1085                 1.4218
 IR Inten    --     13.0955                 3.9472                 5.0690

                     10                     11                     12
                      A                      A                      A
 Frequencies --    454.0808               507.7267               524.0637
 Red. masses --      7.4477                 9.0377                 7.0403
 Frc consts  --      0.9048                 1.3727                 1.1392
 IR Inten    --     13.4762                 7.3470                10.3632

                     13                     14                     15
                      A                      A                      A
 Frequencies --    556.2469               619.2847               645.6635
 Red. masses --      2.8759                 4.0625                 6.7684
 Frc consts  --      0.5243                 0.9180                 1.6624
 IR Inten    --     37.7773                31.8135                19.0468

                     16                     17                     18
                      A                      A                      A
 Frequencies --    714.2524               776.7279               820.7745
 Red. masses --      2.7968                 7.7745                 1.3878
 Frc consts  --      0.8406                 2.7635                 0.5508
 IR Inten    --    109.3480                35.5246                30.9306

                     19                     20                     21
                      A                      A                      A
 Frequencies --    957.0086              1011.7650              1044.5523
 Red. masses --      1.3506                 4.9977                 4.9613
 Frc consts  --      0.7288                 3.0143                 3.1894
 IR Inten    --    118.1004                 0.8617                16.1215

                     22                     23                     24
                      A                      A                      A
 Frequencies --   1111.0960              1188.0755              1229.4128
 Red. masses --      1.8296                 4.8479                 2.7817
 Frc consts  --      1.3308                 4.0317                 2.4772
 IR Inten    --     27.7926                30.4481                95.7788

                     25                     26                     27
                      A                      A                      A
 Frequencies --   1291.1550              1399.7192              1412.3861
 Red. masses --     11.2751                 3.3026                 3.3125
 Frc consts  --     11.0746                 3.8123                 3.8933
 IR Inten    --    113.7681               157.9218                 4.7831

                     28                     29                     30
                      A                      A                      A
 Frequencies --   1463.0051              1637.6873              2276.6534
 Red. masses --      2.4790                 7.1086                 7.2681
 Frc consts  --      3.1262                11.2330                22.1955
 IR Inten    --     30.3125               464.3902               620.8692

                     31                     32                     33
                      A                      A                      A
 Frequencies --   2281.0293              3311.9261              3496.1907
 Red. masses --      1.1143                 1.0982                 1.0766
 Frc consts  --      3.4159                 7.0974                 7.7533
 IR Inten    --    439.4820                 5.5174                21.9524

 - Thermochemistry -
 -------------------
 Temperature   298.150 Kelvin.  Pressure   1.00000 Atm.
 Atom     1 has atomic number  6 and mass  12.00000

 Molecular mass:   172.98299 amu.
 Principal axes and moments of inertia in atomic units:
                           1         2         3
     Eigenvalues --   896.909213107.675883983.09066
           X            0.99999  -0.00307  -0.00168
           Y            0.00307   0.99999  -0.00440
           Z            0.00170   0.00440   0.99999
 This molecule is an asymmetric top.
 Rotational symmetry number  1.
 Warning -- assumption of classical behavior for rotation
           may cause significant error
 Rotational temperatures (Kelvin)      0.09657     0.02787     0.02175
 Rotational constants (GHZ):           2.01218     0.58074     0.45310
 Zero-point vibrational energy     195572.9 (Joules/Mol)
                                   46.74303 (Kcal/Mol)
 Warning -- explicit consideration of  14 degrees of freedom as
           vibrations may cause significant error
 Vibrational temperatures:     76.34   142.22   172.40   244.11   300.40
          (Kelvin)            382.94   394.51   487.88   628.92   653.32
                              730.51   754.01   800.32   891.01   928.97
                             1027.65  1117.54  1180.91  1376.92  1455.70
                             1502.88  1598.62  1709.38  1768.85  1857.68
                             2013.88  2032.11  2104.94  2356.27  3275.60
                             3281.89  4765.12  5030.24

 Zero-point correction=                           0.074490 (Hartree/Particle)
 Thermal correction to Energy=                    0.083932
 Thermal correction to Enthalpy=                  0.084876
 Thermal correction to Gibbs Free Energy=         0.038449
 Sum of electronic and zero-point Energies=          -1186.078790
 Sum of electronic and thermal Energies=             -1186.069348
 Sum of electronic and thermal Enthalpies=           -1186.068404
 Sum of electronic and thermal Free Energies=        -1186.114830

                     E (Thermal)             CV                S
                      KCal/Mol        Cal/Mol-Kelvin    Cal/Mol-Kelvin
 Total                   52.668             33.206             97.713
 Electronic               0.000              0.000              0.000
 Translational            0.889              2.981             41.352
 Rotational               0.889              2.981             30.785
 Vibrational             50.890             27.245             25.577
 Vibration     1          0.596              1.976              4.700
 Vibration     2          0.604              1.950              3.477
 Vibration     3          0.609              1.933              3.103
 Vibration     4          0.625              1.880              2.439
 Vibration     5          0.642              1.827              2.054
 Vibration     6          0.672              1.735              1.621
 Vibration     7          0.677              1.721              1.570
 Vibration     8          0.719              1.597              1.216
 Vibration     9          0.797              1.389              0.836
 Vibration    10          0.813              1.352              0.784
 Vibration    11          0.863              1.233              0.639
 Vibration    12          0.879              1.197              0.601
 Vibration    13          0.912              1.126              0.531
 Vibration    14          0.979              0.991              0.418

                           ! Non-Optimized Parameters !
 Normal termination of Gaussian 16 at Tue Dec  8 10:17:51 2020.

 ----------------------------------------------------------------------
 # B3LYP/6-311++G(d,p) empiricaldispersion=gd3bj scf=xqc pop=npa geom=c
 heck
 ----------------------------------------------------------------------

 --------------------------------------
 CID_150651046_JID_109_Energie_neutraal
 --------------------------------------
 Structure from the checkpoint file:  "JID_109.chk"
 Charge =  0 Multiplicity = 1

 SCF Done:  E(RB3LYP) =  -1186.31692156     A.U. after   17 cycles
 Normal termination of Gaussian 16 at Tue Dec  8 10:18:33 2020.

 ----------------------------------------------------------------------
 # B3LYP/6-311++G(d,p) empiricaldispersion=gd3bj scf=xqc pop=npa geom=c
 heck
 ----------------------------------------------------------------------

 ------------------------------------
 CID_150651046_JID_109_Energie_kation
 ------------------------------------
 Structure from the checkpoint file:  "JID_109.chk"
 Charge =  1 Multiplicity = 2

 SCF Done:  E(UB3LYP) =  -1186.02098447     A.U. after   29 cycles
 Normal termination of Gaussian 16 at Tue Dec  8 10:20:03 2020.
 Gaussian 16:  ES64L-G16RevA.03 25-Dec-2016

 ----------------------------------------------------------------------
 # B3LYP/6-311++G(d,p) empiricaldispersion=gd3bj scf=xqc pop=npa geom=c
 heck
 ----------------------------------------------------------------------

 -----------------------------------
 CID_150651046_JID_109_Energie_anion
 -----------------------------------
 Structure from the checkpoint file:  "JID_109.chk"
 Charge = -1 Multiplicity = 2

                         Standard orientation:
 ---------------------------------------------------------------------
 Center     Atomic      Atomic             Coordinates (Angstroms)
 Number     Number       Type             X           Y           Z
 ---------------------------------------------------------------------
      1          6           0        0.118975   -1.527179   -0.011429
      2          6           0        1.165077   -0.657720   -0.062243
      3          7           0        0.703492    0.660718   -0.105572
      4          7           0       -0.685685    0.550899   -0.257237
      5          6           0       -1.094057   -0.757376   -0.080620
      6         16           0       -2.696107   -1.214275    0.087896
      7         16           0       -1.686467    1.946181    0.069760
      8          7           0        2.516959   -0.972166   -0.070155
      9          7           0        3.332555   -0.042452    0.080432
     10          7           0        4.195532    0.690224    0.194092
     11          1           0        0.166982   -2.597192    0.110015
     12          1           0        1.113940    1.272754   -0.810422
     13          1           0       -2.739691    1.057031    0.212738
 ---------------------------------------------------------------------

 SCF Done:  E(UB3LYP) =  -1186.34406297     A.U. after   33 cycles
 SCF Done:  E(UB3LYP) =  -1186.34406297     a.u. after    1 cycles

 The electronic state is 2-A.
 Alpha  occ. eigenvalues --  -88.73930 -88.65133 -14.33321 -14.25417 -14.25073
 Alpha  occ. eigenvalues --  -14.24548 -14.24528 -10.11253 -10.09782 -10.03311
 Alpha  occ. eigenvalues --   -7.82435  -7.73894  -5.79008  -5.78396  -5.77733
 Alpha  occ. eigenvalues --   -5.70275  -5.69667  -5.69546  -1.01303  -0.92744
 Alpha  occ. eigenvalues --   -0.85897  -0.73509  -0.68156  -0.60791  -0.56754
 Alpha  occ. eigenvalues --   -0.52035  -0.47019  -0.43008  -0.39130  -0.38312
 Alpha  occ. eigenvalues --   -0.35877  -0.34046  -0.32479  -0.31156  -0.29982
 Alpha  occ. eigenvalues --   -0.24387  -0.22864  -0.22354  -0.19673  -0.17825
 Alpha  occ. eigenvalues --   -0.14732  -0.09201  -0.08059  -0.07419   0.03385
 Alpha virt. eigenvalues --    0.08491   0.08950   0.09522   0.11531   0.12341
 Alpha virt. eigenvalues --    0.13097   0.14283   0.14490   0.15916   0.16447
 Alpha virt. eigenvalues --    0.16721   0.16908   0.17765   0.18492   0.19142

  Beta  occ. eigenvalues --  -88.73878 -88.65103 -14.32861 -14.25163 -14.24947
  Beta  occ. eigenvalues --  -14.24752 -14.23989 -10.10846 -10.09530 -10.03352
  Beta  occ. eigenvalues --   -7.82383  -7.73867  -5.78875  -5.78360  -5.77691
  Beta  occ. eigenvalues --   -5.70267  -5.69587  -5.69507  -1.00540  -0.92384
  Beta  occ. eigenvalues --   -0.85608  -0.73078  -0.67709  -0.60258  -0.56539
  Beta  occ. eigenvalues --   -0.51678  -0.46815  -0.42611  -0.38217  -0.36885
  Beta  occ. eigenvalues --   -0.35306  -0.33485  -0.31416  -0.30668  -0.29476
  Beta  occ. eigenvalues --   -0.24111  -0.22561  -0.20997  -0.19520  -0.16785
  Beta  occ. eigenvalues --   -0.14072  -0.08302  -0.07920  -0.06597
  Beta virt. eigenvalues --    0.08843   0.09111   0.09591   0.10479   0.11561
  Beta virt. eigenvalues --    0.12474   0.14185   0.14601   0.14795   0.15987
  Beta virt. eigenvalues --    0.16485   0.16788   0.17359   0.17751   0.18804

 Mulliken charges and spin densities:
               1          2
     1  C    0.236052  -0.031949
     2  C   -0.591041   0.214970
     3  N   -0.263369   0.062055
     4  N    0.350589   0.056041
     5  C    0.085598   0.176655
     6  S   -0.936316   0.062923
     7  S   -0.136293   0.070928
     8  N   -0.032074  -0.074309
     9  N    0.225441   0.118425
    10  N   -0.352765   0.293598
    11  H    0.147575   0.008180
    12  H    0.234551   0.021437
    13  H    0.032052   0.021043
 Sum of Mulliken charges =  -1.00000   1.00000

 Dipole moment (field-independent basis, Debye):
    X=              1.6290    Y=              1.4810    Z=             -1.1213  Tot=              2.4707
 Quadrupole moment (field-independent basis, Debye-Ang):
   XX=           -121.9103   YY=            -88.4403   ZZ=            -80.2714
   XY=             -8.0609   XZ=             -2.5966   YZ=             -2.1455

 Summary of Natural Population Analysis:

                                       Natural Population
                Natural  -----------------------------------------------
    Atom  No    Charge         Core      Valence    Rydberg      Total
 -----------------------------------------------------------------------
      C    1   -0.18265      0.99942     2.17325    0.00998     3.18265
      C    2    0.24037      0.99947     1.74624    0.01393     2.75963
      N    3   -0.19662      0.99966     2.68411    0.01285     3.69662
      N    4   -0.17893      0.99959     2.66536    0.01397     3.67893
      C    5    0.06798      0.99956     1.91726    0.01520     2.93202
      S    6   -0.14071      4.99957     3.12494    0.01619     8.14071
      S    7    0.05312      4.99960     2.92599    0.02128     7.94688
      N    8   -0.22190      0.99964     2.70931    0.01295     3.72190
      N    9    0.15587      0.99970     2.32789    0.01653     3.34413
      N   10    0.03140      0.99982     2.45557    0.01321     3.46860
      H   11    0.11000      0.00000     0.38901    0.00099     0.39000
      H   12    0.19083      0.00000     0.30767    0.00150     0.30917
      H   13    0.07124      0.00000     0.42463    0.00412     0.42876
 =======================================================================
   * Total *   -0.00000     17.99604    25.85125    0.15271    44.00000

 Normal termination of Gaussian 16 at Tue Dec  8 10:21:48 2020.
