 Gaussian 16, Revision A.03,

 -----------------------------------------------------------
 # opt freq B3LYP/6-31G(d) empiricaldispersion=gd3bj scf=xqc
 -----------------------------------------------------------

 -----------------------------
 CID_84648462_JID_148_neutraal
 -----------------------------
 Symbolic Z-matrix:
 Charge =  0 Multiplicity = 1

 SCF Done:  E(RB3LYP) =  -407.919255384     A.U. after   12 cycles
 SCF Done:  E(RB3LYP) =  -407.922633565     A.U. after   11 cycles
 SCF Done:  E(RB3LYP) =  -407.923079468     A.U. after   10 cycles
 SCF Done:  E(RB3LYP) =  -407.923186151     A.U. after   10 cycles
 SCF Done:  E(RB3LYP) =  -407.923197634     A.U. after    8 cycles
 SCF Done:  E(RB3LYP) =  -407.923202182     A.U. after    8 cycles
 SCF Done:  E(RB3LYP) =  -407.923202904     A.U. after    7 cycles
 SCF Done:  E(RB3LYP) =  -407.923203231     A.U. after    7 cycles
 SCF Done:  E(RB3LYP) =  -407.923203311     A.U. after    6 cycles
 SCF Done:  E(RB3LYP) =  -407.923203347     A.U. after    5 cycles
 Optimization completed.
    -- Stationary point found.

 1\1\GINC-NODE210\FOpt\RB3LYP\6-31G(d)\C9H17N1\VSC10255\08-Dec-2020\0\\
 # opt freq B3LYP/6-31G(d) empiricaldispersion=gd3bj scf=xqc\\CID_84648
 462_JID_148_neutraal\\0,1\C,1.1132067674,0.0733025661,0.0627271631\C,1
 .2983570496,-1.0405560958,-0.9446159071\C,2.3134035734,-2.1407638834,-
 0.7223729376\C,0.8376082881,-2.4644701537,-0.7106222223\C,0.1823459045
 ,-2.8630922583,0.6052357353\C,-1.3124201153,-2.5238474159,0.6791424078
 \C,-1.9499072125,-2.9639528978,1.9795342123\C,-3.4222012886,-3.2807784
 855,2.0445395702\C,-2.4051183161,-4.3932369809,2.1471282258\N,0.365950

 Normal termination of Gaussian 16 at Tue Dec  8 10:18:04 2020.

 --------------------------------------------------------------------
 #N Geom=AllCheck Guess=TCheck SCRF=Check GenChk RB3LYP/6-31G(d) Freq
 --------------------------------------------------------------------

 Structure from the checkpoint file:  "JID_148.chk"
 -----------------------------
 CID_84648462_JID_148_neutraal
 -----------------------------
 Charge =  0 Multiplicity = 1

 SCF Done:  E(RB3LYP) =  -407.923203347     A.U. after    1 cycles

  Exact polarizability: 110.841   1.922  93.742   2.057  -1.469  86.640
 Approx polarizability: 131.819   2.913 133.524   2.409  -1.425 131.102

                      1                      2                      3
                      A                      A                      A
 Frequencies --     46.4709                57.3563               116.2759
 Red. masses --      2.5872                 3.1876                 2.8597
 Frc consts  --      0.0033                 0.0062                 0.0228
 IR Inten    --      0.0783                 0.2406                 0.0985

                      4                      5                      6
                      A                      A                      A
 Frequencies --    119.3011               183.1274               209.0593
 Red. masses --      2.4337                 1.3241                 1.6124
 Frc consts  --      0.0204                 0.0262                 0.0415
 IR Inten    --      0.1925                 0.3606                 7.1709

                      7                      8                      9
                      A                      A                      A
 Frequencies --    231.1476               293.3577               301.2678
 Red. masses --      2.1334                 2.7149                 1.5109
 Frc consts  --      0.0672                 0.1377                 0.0808
 IR Inten    --      0.8387                 0.6735                19.6430

                     10                     11                     12
                      A                      A                      A
 Frequencies --    343.1752               378.9697               426.5517
 Red. masses --      2.1249                 2.2279                 2.2861
 Frc consts  --      0.1474                 0.1885                 0.2451
 IR Inten    --      9.4912                 3.2114                 4.2414

                     13                     14                     15
                      A                      A                      A
 Frequencies --    446.6885               460.1191               526.0151
 Red. masses --      2.7838                 2.0856                 2.8080
 Frc consts  --      0.3273                 0.2601                 0.4578
 IR Inten    --      3.0127                 4.9083                 3.2164

                     16                     17                     18
                      A                      A                      A
 Frequencies --    729.7387               770.9836               785.9379
 Red. masses --      2.9391                 1.1771                 1.5007
 Frc consts  --      0.9222                 0.4122                 0.5462
 IR Inten    --      3.6671                 4.0400                 4.9343

                     19                     20                     21
                      A                      A                      A
 Frequencies --    797.5246               831.1206               846.6583
 Red. masses --      1.6579                 1.2767                 2.0638
 Frc consts  --      0.6213                 0.5196                 0.8716
 IR Inten    --     11.0422                 4.6453                 8.8838

                     22                     23                     24
                      A                      A                      A
 Frequencies --    887.2361               894.8645               925.5682
 Red. masses --      1.7202                 1.2215                 2.3398
 Frc consts  --      0.7978                 0.5763                 1.1810
 IR Inten    --    174.3763                 2.5820                12.5894

                     25                     26                     27
                      A                      A                      A
 Frequencies --    934.3520               956.0662               971.7219
 Red. masses --      2.1195                 1.6072                 1.8787
 Frc consts  --      1.0902                 0.8656                 1.0452
 IR Inten    --      0.9527                12.7654                 9.1328

                     28                     29                     30
                      A                      A                      A
 Frequencies --   1018.2883              1043.6978              1057.3239
 Red. masses --      1.3846                 1.6515                 1.2949
 Frc consts  --      0.8459                 1.0599                 0.8529
 IR Inten    --      1.8985                 9.4218                 3.7294

                     31                     32                     33
                      A                      A                      A
 Frequencies --   1065.3253              1073.8222              1082.6637
 Red. masses --      1.5221                 2.2367                 1.5150
 Frc consts  --      1.0178                 1.5196                 1.0463
 IR Inten    --      4.2077                 1.2893                 1.3319

                     34                     35                     36
                      A                      A                      A
 Frequencies --   1104.0514              1143.0927              1145.2595
 Red. masses --      1.6441                 1.7582                 1.1548
 Frc consts  --      1.1808                 1.3536                 0.8924
 IR Inten    --      1.8043                 3.0928                 0.2926

                     37                     38                     39
                      A                      A                      A
 Frequencies --   1153.4469              1201.0642              1210.6210
 Red. masses --      1.6515                 1.6575                 1.3993
 Frc consts  --      1.2945                 1.4087                 1.2083
 IR Inten    --      4.4131                 0.2587                 0.5254

                     40                     41                     42
                      A                      A                      A
 Frequencies --   1235.8386              1248.2852              1273.5174
 Red. masses --      1.6866                 1.7067                 1.4200
 Frc consts  --      1.5177                 1.5669                 1.3569
 IR Inten    --      1.0568                 1.1303                 8.6025

                     43                     44                     45
                      A                      A                      A
 Frequencies --   1293.1686              1310.0486              1324.5596
 Red. masses --      2.0872                 1.4118                 1.6416
 Frc consts  --      2.0565                 1.4276                 1.6969
 IR Inten    --     11.4976                 3.6033                 4.1248

                     46                     47                     48
                      A                      A                      A
 Frequencies --   1353.6298              1401.7789              1431.2944
 Red. masses --      1.2505                 1.5246                 1.3791
 Frc consts  --      1.3500                 1.7651                 1.6646
 IR Inten    --      2.2409                 2.4377                 1.6655

                     49                     50                     51
                      A                      A                      A
 Frequencies --   1439.8879              1454.1292              1495.1840
 Red. masses --      1.6461                 1.4760                 1.0896
 Frc consts  --      2.0108                 1.8389                 1.4352
 IR Inten    --      1.1271                 0.2694                 0.9341

                     52                     53                     54
                      A                      A                      A
 Frequencies --   1508.2410              1514.5828              1523.9301
 Red. masses --      1.1391                 1.2983                 1.1292
 Frc consts  --      1.5267                 1.7547                 1.5451
 IR Inten    --      4.4791                 4.4542                 1.1234

                     55                     56                     57
                      A                      A                      A
 Frequencies --   1527.1270              1537.7269              1539.0906
 Red. masses --      1.0866                 1.3032                 1.1434
 Frc consts  --      1.4930                 1.8157                 1.5958
 IR Inten    --      5.4107                 3.1828                 7.9757

                     58                     59                     60
                      A                      A                      A
 Frequencies --   1693.9928              3020.1000              3024.8703
 Red. masses --      1.1037                 1.0635                 1.0653
 Frc consts  --      1.8661                 5.7151                 5.7427
 IR Inten    --      9.6332                 8.9060                43.3197

                     61                     62                     63
                      A                      A                      A
 Frequencies --   3041.7611              3056.5385              3077.0690
 Red. masses --      1.0373                 1.0941                 1.0995
 Frc consts  --      5.6547                 6.0224                 6.1339
 IR Inten    --     27.5724                13.2631                64.3918

                     64                     65                     66
                      A                      A                      A
 Frequencies --   3097.0089              3115.3360              3138.8038
 Red. masses --      1.1019                 1.0987                 1.0809
 Frc consts  --      6.2272                 6.2824                 6.2741
 IR Inten    --     34.8766                21.2790                27.6080

                     67                     68                     69
                      A                      A                      A
 Frequencies --   3139.4338              3142.0257              3145.2026
 Red. masses --      1.0539                 1.0557                 1.0635
 Frc consts  --      6.1198                 6.1408                 6.1987
 IR Inten    --     21.3337                19.1500                 7.6298

                     70                     71                     72
                      A                      A                      A
 Frequencies --   3162.1424              3213.4959              3227.9468
 Red. masses --      1.0886                 1.1189                 1.1157
 Frc consts  --      6.4131                 6.8079                 6.8495
 IR Inten    --     19.3581                 0.5775                31.5586

                     73                     74                     75
                      A                      A                      A
 Frequencies --   3230.9197              3448.8424              3533.3715
 Red. masses --      1.1164                 1.0486                 1.0923
 Frc consts  --      6.8662                 7.3486                 8.0347
 IR Inten    --     12.4068                 6.7759                 0.7975

 - Thermochemistry -
 -------------------
 Temperature   298.150 Kelvin.  Pressure   1.00000 Atm.
 Atom     1 has atomic number  6 and mass  12.00000

 Molecular mass:   139.13610 amu.
 Principal axes and moments of inertia in atomic units:
                           1         2         3
     Eigenvalues --   720.289632822.715833135.30412
           X            0.99995   0.01004   0.00189
           Y           -0.01004   0.99994  -0.00366
           Z           -0.00193   0.00364   0.99999
 This molecule is an asymmetric top.
 Rotational symmetry number  1.
 Warning -- assumption of classical behavior for rotation
           may cause significant error
 Rotational temperatures (Kelvin)      0.12025     0.03068     0.02763
 Rotational constants (GHZ):           2.50558     0.63936     0.57562
 Zero-point vibrational energy     650111.7 (Joules/Mol)
                                  155.38043 (Kcal/Mol)
 Warning -- explicit consideration of  15 degrees of freedom as
           vibrations may cause significant error
 Vibrational temperatures:     66.86    82.52   167.30   171.65   263.48
          (Kelvin)            300.79   332.57   422.08   433.46   493.75
                              545.25   613.71   642.69   662.01   756.82
                             1049.93  1109.27  1130.79  1147.46  1195.80
                             1218.15  1276.53  1287.51  1331.69  1344.32
                             1375.57  1398.09  1465.09  1501.65  1521.25
                             1532.77  1544.99  1557.71  1588.48  1644.66
                             1647.77  1659.55  1728.06  1741.81  1778.10
                             1796.00  1832.31  1860.58  1884.87  1905.75
                             1947.57  2016.85  2059.31  2071.68  2092.17
                             2151.24  2170.02  2179.15  2192.60  2197.20
                             2212.45  2214.41  2437.28  4345.25  4352.11
                             4376.42  4397.68  4427.22  4455.91  4482.27
                             4516.04  4516.94  4520.67  4525.25  4549.62
                             4623.50  4644.30  4648.57  4962.12  5083.73

 Zero-point correction=                           0.247614 (Hartree/Particle)
 Thermal correction to Energy=                    0.258935
 Thermal correction to Enthalpy=                  0.259880
 Thermal correction to Gibbs Free Energy=         0.210366
 Sum of electronic and zero-point Energies=           -407.675589
 Sum of electronic and thermal Energies=              -407.664268
 Sum of electronic and thermal Enthalpies=            -407.663324
 Sum of electronic and thermal Free Energies=         -407.712837

                     E (Thermal)             CV                S
                      KCal/Mol        Cal/Mol-Kelvin    Cal/Mol-Kelvin
 Total                  162.484             43.107            104.210
 Electronic               0.000              0.000              0.000
 Translational            0.889              2.981             40.703
 Rotational               0.889              2.981             30.234
 Vibrational            160.707             37.145             33.274
 Vibration     1          0.595              1.979              4.962
 Vibration     2          0.596              1.975              4.546
 Vibration     3          0.608              1.936              3.161
 Vibration     4          0.609              1.933              3.112
 Vibration     5          0.631              1.863              2.296
 Vibration     6          0.642              1.827              2.052
 Vibration     7          0.653              1.793              1.870
 Vibration     8          0.688              1.686              1.455
 Vibration     9          0.693              1.671              1.410
 Vibration    10          0.722              1.589              1.197
 Vibration    11          0.749              1.515              1.043
 Vibration    12          0.788              1.412              0.870
 Vibration    13          0.806              1.368              0.806
 Vibration    14          0.818              1.339              0.766
 Vibration    15          0.881              1.192              0.596

                           ! Non-Optimized Parameters !

 1\1\GINC-NODE210\Freq\RB3LYP\6-31G(d)\C9H17N1\VSC10255\08-Dec-2020\0\\
 #N Geom=AllCheck Guess=TCheck SCRF=Check GenChk RB3LYP/6-31G(d) Freq\\
 CID_84648462_JID_148_neutraal\\0,1\C,1.1132067674,0.0733025661,0.06272
 71631\C,1.2983570496,-1.0405560958,-0.9446159071\C,2.3134035734,-2.140
 7638834,-0.7223729376\C,0.8376082881,-2.4644701537,-0.7106222223\C,0.1
 823459045,-2.8630922583,0.6052357353\C,-1.3124201153,-2.5238474159,0.6
 791424078\C,-1.9499072125,-2.9639528978,1.9795342123\C,-3.4222012886,-
 3.2807784855,2.0445395702\C,-2.4051183161,-4.3932369809,2.1471282258\N

 Normal termination of Gaussian 16 at Tue Dec  8 10:22:41 2020.

 ----------------------------------------------------------------------
 # B3LYP/6-311++G(d,p) empiricaldispersion=gd3bj scf=xqc pop=npa geom=c
 heck
 ----------------------------------------------------------------------

 -------------------------------------
 CID_84648462_JID_148_Energie_neutraal
 -------------------------------------
 Structure from the checkpoint file:  "JID_148.chk"
 Charge =  0 Multiplicity = 1

 SCF Done:  E(RB3LYP) =  -408.043358207     A.U. after   15 cycles
 Normal termination of Gaussian 16 at Tue Dec  8 10:24:56 2020.

 ----------------------------------------------------------------------
 # B3LYP/6-311++G(d,p) empiricaldispersion=gd3bj scf=xqc pop=npa geom=c
 heck
 ----------------------------------------------------------------------

 -----------------------------------
 CID_84648462_JID_148_Energie_kation
 -----------------------------------
 Structure from the checkpoint file:  "JID_148.chk"
 Charge =  1 Multiplicity = 2

 SCF Done:  E(UB3LYP) =  -407.726599676     A.U. after   24 cycles
 Normal termination of Gaussian 16 at Tue Dec  8 10:30:14 2020.
 Gaussian 16:  ES64L-G16RevA.03 25-Dec-2016

 ----------------------------------
 CID_84648462_JID_148_Energie_anion
 ----------------------------------
 Structure from the checkpoint file:  "JID_148.chk"
 Charge = -1 Multiplicity = 2

                         Standard orientation:
 ---------------------------------------------------------------------
 Center     Atomic      Atomic             Coordinates (Angstroms)
 Number     Number       Type             X           Y           Z
 ---------------------------------------------------------------------
      1          6           0        2.189172    1.918860   -0.218631
      2          6           0        2.429960    0.430164   -0.343163
      3          6           0        2.664823   -0.433002    0.877473
      4          6           0        1.411030   -0.617682    0.054799
      5          6           0        0.071266   -0.210891    0.654220
      6          6           0       -0.975364    0.197021   -0.391269
      7          6           0       -2.309407    0.559601    0.225144
      8          6           0       -3.585746    0.409102   -0.562615
      9          6           0       -3.291458   -0.528709    0.584752
     10          7           0        1.426559   -1.796381   -0.794466
     11          1           0        1.642876    2.312913   -1.084526
     12          1           0        3.142040    2.457991   -0.153796
     13          1           0        1.613635    2.168491    0.678712
     14          1           0        3.015334    0.141492   -1.213471
     15          1           0        3.418894   -1.211329    0.817552
     16          1           0        2.562870    0.035794    1.853758
     17          1           0       -0.320981   -1.051662    1.245647
     18          1           0        0.208846    0.614028    1.363747
     19          1           0       -0.593054    1.041630   -0.980529
     20          1           0       -1.127069   -0.629642   -1.099846
     21          1           0       -2.270591    1.406024    0.910235
     22          1           0       -4.367712    1.152218   -0.433631
     23          1           0       -3.512447    0.014681   -1.573209
     24          1           0       -3.017488   -1.553480    0.344451
     25          1           0       -3.873378   -0.429061    1.496643
     26          1           0        1.037071   -2.591413   -0.287055
     27          1           0        0.829582   -1.650789   -1.607677
 ---------------------------------------------------------------------

 SCF Done:  E(UB3LYP) =  -408.024997593     A.U. after   28 cycles

 The electronic state is 2-A.
 Alpha  occ. eigenvalues --  -14.18841 -10.09950 -10.07073 -10.06965 -10.06339
 Alpha  occ. eigenvalues --  -10.06213 -10.06123 -10.06012 -10.05997 -10.05975
 Alpha  occ. eigenvalues --   -0.80527  -0.75402  -0.71766  -0.65572  -0.60779
 Alpha  occ. eigenvalues --   -0.54520  -0.49436  -0.48330  -0.46044  -0.43205
 Alpha  occ. eigenvalues --   -0.39588  -0.38864  -0.37297  -0.36027  -0.33692
 Alpha  occ. eigenvalues --   -0.33177  -0.30614  -0.29865  -0.28184  -0.27628
 Alpha  occ. eigenvalues --   -0.25839  -0.25017  -0.24790  -0.23307  -0.19448
 Alpha  occ. eigenvalues --   -0.18581  -0.17858  -0.16311  -0.13906   0.04839
 Alpha virt. eigenvalues --    0.06989   0.07173   0.07995   0.09132   0.09398
 Alpha virt. eigenvalues --    0.09696   0.10296   0.10782   0.11480   0.11824
 Alpha virt. eigenvalues --    0.12531   0.12936   0.14149   0.14315   0.15200

  Beta  occ. eigenvalues --  -14.18806 -10.09948 -10.07064 -10.06953 -10.06318
  Beta  occ. eigenvalues --  -10.06187 -10.06112 -10.05981 -10.05978 -10.05955
  Beta  occ. eigenvalues --   -0.80492  -0.75374  -0.71716  -0.65539  -0.60730
  Beta  occ. eigenvalues --   -0.54473  -0.49360  -0.48283  -0.45976  -0.43146
  Beta  occ. eigenvalues --   -0.39553  -0.38813  -0.37251  -0.35981  -0.33651
  Beta  occ. eigenvalues --   -0.33150  -0.30578  -0.29829  -0.28148  -0.27584
  Beta  occ. eigenvalues --   -0.25806  -0.24977  -0.24764  -0.23257  -0.19423
  Beta  occ. eigenvalues --   -0.18554  -0.17829  -0.16286  -0.13873
  Beta virt. eigenvalues --    0.07086   0.07843   0.08171   0.08490   0.09655
  Beta virt. eigenvalues --    0.09718   0.10084   0.10912   0.11311   0.11871
  Beta virt. eigenvalues --    0.12360   0.12926   0.13233   0.14404   0.14747

 Mulliken charges and spin densities:
               1          2
     1  C    1.198284  -1.890403
     2  C   -1.059397   1.333956
     3  C    0.361325  -0.952403
     4  C    1.562344  -1.445120
     5  C   -1.201339   0.673136
     6  C    2.639107  -3.022521
     7  C   -3.225334   3.596442
     8  C    0.423784  -0.922972
     9  C    1.266715  -1.778803
    10  N   -0.547274   0.283273
    11  H   -0.208125   0.350791
    12  H   -0.089036   0.220581
    13  H   -0.179871   0.318945
    14  H   -0.039992   0.255856
    15  H    0.045319   0.100514
    16  H   -0.134720   0.258759
    17  H    0.137013   0.049043
    18  H    0.003398   0.112342
    19  H    0.234528  -0.098066
    20  H   -0.114166   0.233841
    21  H   -0.718010   0.943634
    22  H   -0.270679   0.409603
    23  H   -0.239712   0.371678
    24  H   -0.415585   0.549989
    25  H   -0.169849   0.308812
    26  H   -0.091347   0.326478
    27  H   -0.167382   0.412617
 Sum of Mulliken charges =  -1.00000   1.00000

 Dipole moment (field-independent basis, Debye):
    X=              2.9259    Y=              0.2843    Z=              0.6735  Tot=              3.0158
 Quadrupole moment (field-independent basis, Debye-Ang):
   XX=           -131.3731   YY=           -110.1386   ZZ=            -96.7016
   XY=             -0.6247   XZ=              4.3202   YZ=             -5.2945

 Summary of Natural Population Analysis:

                                       Natural Population
                Natural  -----------------------------------------------
    Atom  No    Charge         Core      Valence    Rydberg      Total
 -----------------------------------------------------------------------
      C    1   -0.28690      0.99965     2.28152    0.00573     3.28690
      C    2   -0.10943      0.99955     2.10035    0.00953     3.10943
      C    3   -0.19532      0.99957     2.18722    0.00854     3.19532
      C    4    0.04862      0.99951     1.93607    0.01579     2.95138
      C    5   -0.19037      0.99958     2.18294    0.00786     3.19037
      C    6   -0.18799      0.99960     2.18030    0.00809     3.18799
      C    7   -0.11487      0.99959     2.10295    0.01233     3.11487
      C    8   -0.19608      0.99962     2.18836    0.00811     3.19608
      C    9   -0.19771      0.99962     2.18971    0.00838     3.19771
      N   10   -0.42143      0.99975     2.91106    0.01062     3.92143
      H   11    0.10029      0.00000     0.39831    0.00140     0.39971
      H   12    0.09822      0.00000     0.40082    0.00096     0.40178
      H   13    0.09941      0.00000     0.39908    0.00151     0.40059
      H   14    0.10472      0.00000     0.39390    0.00138     0.39528
      H   15    0.10497      0.00000     0.39392    0.00112     0.39503
      H   16    0.09875      0.00000     0.40008    0.00116     0.40125
      H   17    0.09841      0.00000     0.39991    0.00168     0.40159
      H   18    0.09814      0.00000     0.39993    0.00192     0.40186
      H   19    0.09806      0.00000     0.40013    0.00182     0.40194
      H   20    0.09426      0.00000     0.40302    0.00272     0.40574
      H   21    0.10149      0.00000     0.39701    0.00151     0.39851
      H   22    0.10071      0.00000     0.39791    0.00137     0.39929
      H   23    0.10021      0.00000     0.39843    0.00136     0.39979
      H   24    0.10151      0.00000     0.39666    0.00182     0.39849
      H   25    0.10115      0.00000     0.39717    0.00169     0.39885
      H   26    0.17470      0.00000     0.32303    0.00226     0.32530
      H   27    0.17647      0.00000     0.32083    0.00270     0.32353
 =======================================================================
   * Total *    0.00000      9.99604    28.88061    0.12335    39.00000

 Normal termination of Gaussian 16 at Tue Dec  8 10:37:58 2020.
