 Gaussian 16, Revision A.03,

 -----------------------------------------------------------
 # opt freq B3LYP/6-31G(d) empiricaldispersion=gd3bj scf=xqc
 -----------------------------------------------------------

 ------------------------------
 CID_25063349_JID_2349_neutraal
 ------------------------------
 Symbolic Z-matrix:
 Charge =  0 Multiplicity = 1

 SCF Done:  E(RB3LYP) =  -573.224528293     A.U. after   17 cycles
 SCF Done:  E(RB3LYP) =  -573.233701110     A.U. after   14 cycles
 SCF Done:  E(RB3LYP) =  -573.233704003     A.U. after   13 cycles
 SCF Done:  E(RB3LYP) =  -573.235634846     A.U. after   13 cycles
 SCF Done:  E(RB3LYP) =  -573.237007097     A.U. after   13 cycles
 SCF Done:  E(RB3LYP) =  -573.237553868     A.U. after   12 cycles
 SCF Done:  E(RB3LYP) =  -573.237974523     A.U. after   12 cycles
 SCF Done:  E(RB3LYP) =  -573.238272689     A.U. after   12 cycles
 SCF Done:  E(RB3LYP) =  -573.238837040     A.U. after   13 cycles
 SCF Done:  E(RB3LYP) =  -573.239246228     A.U. after   13 cycles
 SCF Done:  E(RB3LYP) =  -573.248917651     A.U. after    9 cycles
 SCF Done:  E(RB3LYP) =  -573.248917834     A.U. after    8 cycles
 SCF Done:  E(RB3LYP) =  -573.248918008     A.U. after    8 cycles
 SCF Done:  E(RB3LYP) =  -573.248918111     A.U. after    8 cycles
 SCF Done:  E(RB3LYP) =  -573.248918158     A.U. after    7 cycles
 Optimization completed.
    -- Stationary point found.
 Normal termination of Gaussian 16 at Wed Dec  9 17:36:15 2020.

 --------------------------------------------------------------------
 #N Geom=AllCheck Guess=TCheck SCRF=Check GenChk RB3LYP/6-31G(d) Freq
 --------------------------------------------------------------------

 Structure from the checkpoint file:  "JID_2349.chk"
 ------------------------------
 CID_25063349_JID_2349_neutraal
 ------------------------------
 Charge =  0 Multiplicity = 1

 SCF Done:  E(RB3LYP) =  -573.248918158     A.U. after    1 cycles

  Exact polarizability: 122.629   3.005  98.602   1.453   3.594  87.507
 Approx polarizability: 173.412   2.684 132.591   9.613  11.484 145.382

                      1                      2                      3
                      A                      A                      A
 Frequencies --     29.9250                49.9175                58.8897
 Red. masses --      3.2642                 6.6931                 4.5534
 Frc consts  --      0.0017                 0.0098                 0.0093
 IR Inten    --      0.7276                 5.3729                 4.2172

                      4                      5                      6
                      A                      A                      A
 Frequencies --     75.2368               115.2300               143.4258
 Red. masses --      3.7790                 2.9877                 2.7332
 Frc consts  --      0.0126                 0.0234                 0.0331
 IR Inten    --      6.6280                 5.0152                15.5122

                      7                      8                      9
                      A                      A                      A
 Frequencies --    171.6844               176.8341               215.9088
 Red. masses --      2.8972                 4.7365                 1.9983
 Frc consts  --      0.0503                 0.0873                 0.0549
 IR Inten    --      7.8187                15.5867                12.0258

                     10                     11                     12
                      A                      A                      A
 Frequencies --    241.9474               261.3930               284.0354
 Red. masses --      2.3889                 2.3366                 1.9617
 Frc consts  --      0.0824                 0.0941                 0.0932
 IR Inten    --     29.6570                 3.1683                10.6971

                     13                     14                     15
                      A                      A                      A
 Frequencies --    305.6067               327.3027               419.3398
 Red. masses --      1.4604                 2.1930                 2.2396
 Frc consts  --      0.0804                 0.1384                 0.2320
 IR Inten    --      6.3437                 4.4385                 0.1895

                     16                     17                     18
                      A                      A                      A
 Frequencies --    441.0109               600.9593               626.7060
 Red. masses --      2.5393                 3.5589                 4.0364
 Frc consts  --      0.2910                 0.7573                 0.9341
 IR Inten    --      0.9992                 0.7359                71.3094

                     19                     20                     21
                      A                      A                      A
 Frequencies --    648.8910               693.1541               716.5674
 Red. masses --      3.3774                 1.2292                 3.3731
 Frc consts  --      0.8379                 0.3480                 1.0204
 IR Inten    --     37.1197                16.1150                 2.6694

                     22                     23                     24
                      A                      A                      A
 Frequencies --    751.1521               765.1458               810.5974
 Red. masses --      1.4383                 4.3122                 1.2985
 Frc consts  --      0.4781                 1.4874                 0.5027
 IR Inten    --     16.0824                10.2316                 0.4684

                     25                     26                     27
                      A                      A                      A
 Frequencies --    824.9709               873.3773               931.1858
 Red. masses --      1.4236                 2.4848                 1.4017
 Frc consts  --      0.5708                 1.1167                 0.7161
 IR Inten    --     14.5561                 1.0040                 3.4779

                     28                     29                     30
                      A                      A                      A
 Frequencies --   1038.6948              1053.3594              1063.9562
 Red. masses --      2.6183                 2.9662                 2.4307
 Frc consts  --      1.6644                 1.9391                 1.6212
 IR Inten    --      1.5585                 2.0117                 4.4120

                     31                     32                     33
                      A                      A                      A
 Frequencies --   1066.7349              1124.8419              1133.2902
 Red. masses --      1.8118                 1.2834                 1.5042
 Frc consts  --      1.2147                 0.9568                 1.1383
 IR Inten    --      2.3616                 5.9424                 6.2500

                     34                     35                     36
                      A                      A                      A
 Frequencies --   1136.8974              1144.3178              1172.8131
 Red. masses --      1.6385                 1.7756                 1.3322
 Frc consts  --      1.2478                 1.3699                 1.0796
 IR Inten    --      6.2647                 3.6301                 5.9708

                     37                     38                     39
                      A                      A                      A
 Frequencies --   1195.3088              1256.7038              1308.2691
 Red. masses --      1.8868                 1.3995                 1.2874
 Frc consts  --      1.5883                 1.3022                 1.2982
 IR Inten    --     74.8619                 0.6616                 0.4055

                     40                     41                     42
                      A                      A                      A
 Frequencies --   1326.0689              1367.6330              1370.9153
 Red. masses --      1.2308                 6.9379                 5.8834
 Frc consts  --      1.2752                 7.6457                 6.5147
 IR Inten    --      0.6762               138.3836                11.7451

                     43                     44                     45
                      A                      A                      A
 Frequencies --   1392.0616              1406.4723              1421.3057
 Red. masses --      1.4934                 1.3757                 1.3061
 Frc consts  --      1.7050                 1.6034                 1.5545
 IR Inten    --      5.5462                10.0710                10.8091

                     46                     47                     48
                      A                      A                      A
 Frequencies --   1425.3230              1442.1321              1466.9779
 Red. masses --      1.9511                 1.2936                 1.2197
 Frc consts  --      2.3354                 1.5851                 1.5465
 IR Inten    --      3.5828                14.0508                12.5787

                     49                     50                     51
                      A                      A                      A
 Frequencies --   1475.9861              1505.9107              1511.6474
 Red. masses --      3.2840                 1.0763                 1.0938
 Frc consts  --      4.2151                 1.4381                 1.4726
 IR Inten    --     28.7885                12.0317                 1.7568

                     52                     53                     54
                      A                      A                      A
 Frequencies --   1517.6941              1537.3876              1559.9710
 Red. masses --      1.1134                 1.0447                 1.0770
 Frc consts  --      1.5111                 1.4548                 1.5442
 IR Inten    --     15.9523                 1.3044                10.3205

                     55                     56                     57
                      A                      A                      A
 Frequencies --   1571.9253              1605.7984              1628.8001
 Red. masses --      1.0489                 3.6889                 4.2267
 Frc consts  --      1.5270                 5.6043                 6.6067
 IR Inten    --      5.1374                78.7739                23.1220

                     58                     59                     60
                      A                      A                      A
 Frequencies --   1699.2024              2819.0043              2992.4470
 Red. masses --      7.6694                 1.0761                 1.0532
 Frc consts  --     13.0468                 5.0385                 5.5569
 IR Inten    --    441.8633               325.2064               162.3575

                     61                     62                     63
                      A                      A                      A
 Frequencies --   3026.0010              3042.2270              3070.8317
 Red. masses --      1.0386                 1.0611                 1.0810
 Frc consts  --      5.6034                 5.7861                 6.0062
 IR Inten    --     79.4876                25.9987                 9.9609

                     64                     65                     66
                      A                      A                      A
 Frequencies --   3080.7560              3102.3045              3118.2574
 Red. masses --      1.0811                 1.1029                 1.1027
 Frc consts  --      6.0457                 6.2539                 6.3174
 IR Inten    --     66.0336                27.4830                18.1157

                     67                     68                     69
                      A                      A                      A
 Frequencies --   3125.6492              3131.1321              3179.4502
 Red. masses --      1.1057                 1.0856                 1.1047
 Frc consts  --      6.3646                 6.2705                 6.5796
 IR Inten    --     17.1934                20.2472                11.4461

                     70                     71                     72
                      A                      A                      A
 Frequencies --   3307.8152              3327.7424              3363.0375
 Red. masses --      1.0921                 1.1083                 1.1027
 Frc consts  --      7.0402                 7.2310                 7.3480
 IR Inten    --      4.0750                 2.2033                10.0424

 - Thermochemistry -
 -------------------
 Temperature   298.150 Kelvin.  Pressure   1.00000 Atm.
 Atom     1 has atomic number  6 and mass  12.00000

 Molecular mass:   170.10553 amu.
 Principal axes and moments of inertia in atomic units:
                           1         2         3
     Eigenvalues --  1480.742812327.479053148.47136
           X            0.99880   0.04791  -0.01006
           Y           -0.04782   0.99882   0.00904
           Z            0.01048  -0.00855   0.99991
 This molecule is an asymmetric top.
 Rotational symmetry number  1.
 Warning -- assumption of classical behavior for rotation
           may cause significant error
 Rotational temperatures (Kelvin)      0.05849     0.03721     0.02751
 Rotational constants (GHZ):           1.21881     0.77541     0.57321
 Zero-point vibrational energy     581238.3 (Joules/Mol)
                                  138.91928 (Kcal/Mol)
 Warning -- explicit consideration of  17 degrees of freedom as
           vibrations may cause significant error
 Vibrational temperatures:     43.06    71.82    84.73   108.25   165.79
          (Kelvin)            206.36   247.02   254.42   310.64   348.11
                              376.09   408.66   439.70   470.92   603.34
                              634.52   864.65   901.69   933.61   997.29
                             1030.98  1080.74  1100.87  1166.27  1186.95
                             1256.60  1339.77  1494.45  1515.55  1530.80
                             1534.79  1618.40  1630.55  1635.74  1646.42
                             1687.42  1719.78  1808.12  1882.31  1907.92
                             1967.72  1972.44  2002.87  2023.60  2044.94
                             2050.72  2074.91  2110.65  2123.61  2166.67
                             2174.92  2183.62  2211.96  2244.45  2261.65
                             2310.39  2343.48  2444.77  4055.92  4305.46
                             4353.74  4377.09  4418.24  4432.52  4463.52
                             4486.48  4497.11  4505.00  4574.52  4759.21
                             4787.88  4838.66

 Zero-point correction=                           0.221382 (Hartree/Particle)
 Thermal correction to Energy=                    0.234871
 Thermal correction to Enthalpy=                  0.235816
 Thermal correction to Gibbs Free Energy=         0.180149
 Sum of electronic and zero-point Energies=           -573.027536
 Sum of electronic and thermal Energies=              -573.014047
 Sum of electronic and thermal Enthalpies=            -573.013103
 Sum of electronic and thermal Free Energies=         -573.068770

                     E (Thermal)             CV                S
                      KCal/Mol        Cal/Mol-Kelvin    Cal/Mol-Kelvin
 Total                  147.384             47.456            117.161
 Electronic               0.000              0.000              0.000
 Translational            0.889              2.981             41.302
 Rotational               0.889              2.981             30.763
 Vibrational            145.607             41.495             45.097
 Vibration     1          0.594              1.984              5.834
 Vibration     2          0.595              1.978              4.821
 Vibration     3          0.596              1.974              4.494
 Vibration     4          0.599              1.966              4.011
 Vibration     5          0.608              1.937              3.179
 Vibration     6          0.616              1.910              2.758
 Vibration     7          0.626              1.877              2.417
 Vibration     8          0.628              1.871              2.362
 Vibration     9          0.645              1.817              1.993
 Vibration    10          0.658              1.776              1.789
 Vibration    11          0.669              1.743              1.652
 Vibration    12          0.682              1.703              1.509
 Vibration    13          0.696              1.663              1.386
 Vibration    14          0.711              1.621              1.273
 Vibration    15          0.782              1.428              0.894
 Vibration    16          0.801              1.381              0.823
 Vibration    17          0.959              1.030              0.448

                           ! Non-Optimized Parameters !
 Normal termination of Gaussian 16 at Wed Dec  9 17:42:44 2020.

 ----------------------------------------------------------------------
 # B3LYP/6-311++G(d,p) empiricaldispersion=gd3bj scf=xqc pop=npa geom=c
 heck
 ----------------------------------------------------------------------

 --------------------------------------
 CID_25063349_JID_2349_Energie_neutraal
 --------------------------------------
 Structure from the checkpoint file:  "JID_2349.chk"
 Charge =  0 Multiplicity = 1

 SCF Done:  E(RB3LYP) =  -573.422721567     A.U. after   15 cycles
 Normal termination of Gaussian 16 at Wed Dec  9 17:46:03 2020.

 ----------------------------------------------------------------------
 # B3LYP/6-311++G(d,p) empiricaldispersion=gd3bj scf=xqc pop=npa geom=c
 heck
 ----------------------------------------------------------------------

 ------------------------------------
 CID_25063349_JID_2349_Energie_kation
 ------------------------------------
 Structure from the checkpoint file:  "JID_2349.chk"
 Charge =  1 Multiplicity = 2

 SCF Done:  E(UB3LYP) =  -573.134152993     A.U. after   33 cycles
 SCF Done:  E(UB3LYP) =  -573.134152993     a.u. after    1 cycles
 Normal termination of Gaussian 16 at Wed Dec  9 17:54:08 2020.
 Gaussian 16:  ES64L-G16RevA.03 25-Dec-2016

 ----------------------------------------------------------------------
 # B3LYP/6-311++G(d,p) empiricaldispersion=gd3bj scf=xqc pop=npa geom=c
 heck
 ----------------------------------------------------------------------

 -----------------------------------
 CID_25063349_JID_2349_Energie_anion
 -----------------------------------
 Structure from the checkpoint file:  "JID_2349.chk"
 Charge = -1 Multiplicity = 2

                         Standard orientation:
 ---------------------------------------------------------------------
 Center     Atomic      Atomic             Coordinates (Angstroms)
 Number     Number       Type             X           Y           Z
 ---------------------------------------------------------------------
      1          6           0        2.679116    1.478542    0.249334
      2          6           0        2.875170    0.113161   -0.412143
      3          6           0        2.203767   -1.039998    0.345584
      4          7           0        0.757742   -1.137962    0.113431
      5          6           0        0.169774   -1.675433   -1.027673
      6          6           0       -1.174935   -1.604057   -0.850173
      7          7           0       -1.398289   -1.047684    0.397759
      8          6           0       -0.217879   -0.708239    0.927030
      9          6           0       -2.688632   -0.551833    0.870690
     10          6           0       -1.094115    2.115046   -0.417457
     11          8           0       -2.067468    1.603290   -1.010914
     12          8           0       -0.487436    1.698084    0.618611
     13          1           0        1.616609    1.723191    0.370047
     14          1           0        3.150248    2.262956   -0.352782
     15          1           0        3.153932    1.493473    1.239318
     16          1           0        2.493398    0.124237   -1.440995
     17          1           0        3.944003   -0.128742   -0.480450
     18          1           0        2.629202   -2.004504    0.050783
     19          1           0        2.351445   -0.931719    1.424130
     20          1           0        0.762383   -2.061111   -1.841031
     21          1           0       -1.991936   -1.882854   -1.494902
     22          1           0       -0.070017   -0.248417    1.886249
     23          1           0       -3.443269   -1.325629    0.712686
     24          1           0       -2.608688   -0.326425    1.934390
     25          1           0       -2.885254    0.361968    0.288276
     26          1           0       -0.692588    3.068969   -0.846794
 ---------------------------------------------------------------------

 SCF Done:  E(UB3LYP) =  -573.418645221     A.U. after   31 cycles

 The electronic state is 2-A.
 Alpha  occ. eigenvalues --  -18.93793 -18.93697 -14.28762 -14.28723 -10.15756
 Alpha  occ. eigenvalues --  -10.12324 -10.12024 -10.11770 -10.11606 -10.10440
 Alpha  occ. eigenvalues --  -10.07167 -10.04468  -0.96136  -0.89455  -0.84662
 Alpha  occ. eigenvalues --   -0.81064  -0.70649  -0.67828  -0.64038  -0.59081
 Alpha  occ. eigenvalues --   -0.53948  -0.51240  -0.49783  -0.45004  -0.42190
 Alpha  occ. eigenvalues --   -0.39128  -0.38470  -0.36863  -0.36446  -0.35499
 Alpha  occ. eigenvalues --   -0.34692  -0.33033  -0.31497  -0.31011  -0.30587
 Alpha  occ. eigenvalues --   -0.29955  -0.27769  -0.26375  -0.24932  -0.24499
 Alpha  occ. eigenvalues --   -0.23404  -0.19590  -0.16572  -0.12573  -0.11352
 Alpha  occ. eigenvalues --   -0.10960   0.04096
 Alpha virt. eigenvalues --    0.06942   0.07394   0.08507   0.09334   0.09643
 Alpha virt. eigenvalues --    0.09707   0.10531   0.10928   0.11801   0.11854
 Alpha virt. eigenvalues --    0.12218   0.13330   0.13655   0.14431   0.14829

  Beta  occ. eigenvalues --  -18.93789 -18.93691 -14.28712 -14.28685 -10.15617
  Beta  occ. eigenvalues --  -10.12323 -10.12031 -10.11738 -10.11554 -10.10430
  Beta  occ. eigenvalues --  -10.07147 -10.04460  -0.96035  -0.89447  -0.84560
  Beta  occ. eigenvalues --   -0.81053  -0.70595  -0.67730  -0.63965  -0.59019
  Beta  occ. eigenvalues --   -0.53891  -0.51115  -0.49694  -0.44886  -0.42154
  Beta  occ. eigenvalues --   -0.38955  -0.38393  -0.36795  -0.36308  -0.35435
  Beta  occ. eigenvalues --   -0.34633  -0.32988  -0.31430  -0.30985  -0.30558
  Beta  occ. eigenvalues --   -0.29892  -0.27736  -0.26354  -0.24881  -0.24456
  Beta  occ. eigenvalues --   -0.23377  -0.19399  -0.16315  -0.12547  -0.11330
  Beta  occ. eigenvalues --   -0.10931
  Beta virt. eigenvalues --    0.06916   0.07698   0.08285   0.09028   0.09884
  Beta virt. eigenvalues --    0.10145   0.10183   0.10853   0.11475   0.12008
  Beta virt. eigenvalues --    0.12275   0.12638   0.13513   0.14036   0.14608

 Mulliken charges and spin densities:
               1          2
     1  C   -0.080150  -0.476158
     2  C   -0.071898  -0.079434
     3  C    1.108481  -1.251114
     4  N   -0.015249   0.177238
     5  C    0.523836  -0.625935
     6  C   -0.000774  -0.176215
     7  N    0.108165   0.056787
     8  C    0.202379  -0.563845
     9  C   -0.075806  -0.201704
    10  C   -0.014769   0.016165
    11  O   -0.407947   0.001528
    12  O   -0.363432   0.009400
    13  H    0.246899  -0.013164
    14  H    0.062341   0.048530
    15  H    0.072246   0.042793
    16  H    0.190202  -0.058060
    17  H   -0.360324   0.517884
    18  H   -0.973028   1.192026
    19  H   -0.514344   0.663124
    20  H   -0.742102   0.922628
    21  H   -0.032952   0.192542
    22  H   -0.058648   0.280561
    23  H   -0.049377   0.179635
    24  H   -0.027047   0.154740
    25  H    0.278541  -0.020920
    26  H   -0.005244   0.010969
 Sum of Mulliken charges =  -1.00000   1.00000

 Dipole moment (field-independent basis, Debye):
    X=             -3.8228    Y=              1.7484    Z=             -0.0456  Tot=              4.2039
 Quadrupole moment (field-independent basis, Debye-Ang):
   XX=           -123.9590   YY=           -121.8937   ZZ=           -102.6385
   XY=             22.2919   XZ=             -4.9402   YZ=              1.6200

 Summary of Natural Population Analysis:

                                       Natural Population
                Natural  -----------------------------------------------
    Atom  No    Charge         Core      Valence    Rydberg      Total
 -----------------------------------------------------------------------
      C    1   -0.29996      0.99965     2.29443    0.00588     3.29996
      C    2   -0.19347      0.99963     2.18594    0.00789     3.19347
      C    3   -0.08067      0.99959     2.06810    0.01298     3.08067
      N    4   -0.19355      0.99965     2.67910    0.01481     3.69355
      C    5   -0.01164      0.99953     2.00007    0.01204     3.01164
      C    6   -0.00842      0.99954     1.99745    0.01143     3.00842
      N    7   -0.18552      0.99963     2.67424    0.01165     3.68552
      C    8    0.20361      0.99956     1.78007    0.01677     2.79639
      C    9   -0.18493      0.99962     2.17724    0.00807     3.18493
      C   10    0.32291      0.99983     1.64729    0.02997     2.67709
      O   11   -0.38092      0.99988     3.37448    0.00656     4.38092
      O   12   -0.39333      0.99989     3.38639    0.00705     4.39333
      H   13    0.12602      0.00000     0.37233    0.00165     0.37398
      H   14    0.09362      0.00000     0.40565    0.00073     0.40638
      H   15    0.09185      0.00000     0.40724    0.00092     0.40815
      H   16    0.09639      0.00000     0.40226    0.00135     0.40361
      H   17    0.09982      0.00000     0.39869    0.00148     0.40018
      H   18    0.11173      0.00000     0.37519    0.01308     0.38827
      H   19    0.10484      0.00000     0.39188    0.00328     0.39516
      H   20    0.11370      0.00000     0.38463    0.00167     0.38630
      H   21    0.10934      0.00000     0.38981    0.00086     0.39066
      H   22    0.11997      0.00000     0.37807    0.00196     0.38003
      H   23    0.09270      0.00000     0.40647    0.00083     0.40730
      H   24    0.10074      0.00000     0.39850    0.00076     0.39926
      H   25    0.13477      0.00000     0.36354    0.00169     0.36523
      H   26    0.01041      0.00000     0.48619    0.00339     0.48959
 =======================================================================
   * Total *    0.00000     11.99601    33.82526    0.17874    46.00000

 Normal termination of Gaussian 16 at Wed Dec  9 18:01:54 2020.
