 Gaussian 16, Revision A.03,

 -----------------------------------------------------------
 # opt freq B3LYP/6-31G(d) empiricaldispersion=gd3bj scf=xqc
 -----------------------------------------------------------

 -------------------------------
 CID_130584248_JID_1904_neutraal
 -------------------------------
 Symbolic Z-matrix:
 Charge =  0 Multiplicity = 1

 SCF Done:  E(RB3LYP) =  -503.042156818     A.U. after   13 cycles
 SCF Done:  E(RB3LYP) =  -503.045723769     A.U. after   11 cycles
 SCF Done:  E(RB3LYP) =  -503.046216142     A.U. after   10 cycles
 SCF Done:  E(RB3LYP) =  -503.046343029     A.U. after   10 cycles
 SCF Done:  E(RB3LYP) =  -503.046381281     A.U. after   10 cycles
 SCF Done:  E(RB3LYP) =  -503.046394082     A.U. after    9 cycles
 SCF Done:  E(RB3LYP) =  -503.046408185     A.U. after   10 cycles
 SCF Done:  E(RB3LYP) =  -503.046417448     A.U. after    9 cycles
 SCF Done:  E(RB3LYP) =  -503.046421104     A.U. after    9 cycles
 SCF Done:  E(RB3LYP) =  -503.046422459     A.U. after    7 cycles
 SCF Done:  E(RB3LYP) =  -503.046422526     A.U. after    6 cycles
 Optimization completed.
    -- Stationary point found.

 1\1\GINC-NODE103\FOpt\RB3LYP\6-31G(d)\C9H16O2\VSC10255\08-Dec-2020\0\\
 # opt freq B3LYP/6-31G(d) empiricaldispersion=gd3bj scf=xqc\\CID_13058
 4248_JID_1904_neutraal\\0,1\C,1.0298773791,-0.0364703708,-0.0093545492
 \C,0.3194020563,0.3490591878,1.2838393293\C,-1.1608678511,-0.122993609
 6,1.390315167\C,-0.7078937654,-1.2623888471,2.3476155484\C,0.653629586
 5,-0.5529949585,2.509382787\C,-0.715565568,-2.6751097749,1.7610581185\
 C,-2.0987014748,-3.1918111689,2.1793114045\C,-2.2795011212,-2.55547358
 19,3.5640471689\O,-1.4565082193,-1.3685785305,3.5634736011\C,-1.798219

 Normal termination of Gaussian 16 at Tue Dec  8 21:34:22 2020.

 --------------------------------------------------------------------
 #N Geom=AllCheck Guess=TCheck SCRF=Check GenChk RB3LYP/6-31G(d) Freq
 --------------------------------------------------------------------

 Structure from the checkpoint file:  "JID_1904.chk"
 -------------------------------
 CID_130584248_JID_1904_neutraal
 -------------------------------
 Charge =  0 Multiplicity = 1

 SCF Done:  E(RB3LYP) =  -503.046422526     A.U. after    1 cycles

  Exact polarizability: 113.799  -3.070  90.170  -0.535   0.604  84.320
 Approx polarizability: 137.140  -1.024 131.322  -0.944  -0.407 125.552

                      1                      2                      3
                      A                      A                      A
 Frequencies --     40.4622                82.9307               114.3242
 Red. masses --      4.8589                 3.0848                 2.6339
 Frc consts  --      0.0047                 0.0125                 0.0203
 IR Inten    --      0.3004                 0.4153                 2.0091

                      4                      5                      6
                      A                      A                      A
 Frequencies --    146.1192               214.4879               228.7922
 Red. masses --      3.1073                 2.6074                 1.6321
 Frc consts  --      0.0391                 0.0707                 0.0503
 IR Inten    --      2.5471                 0.2202                 0.1190

                      7                      8                      9
                      A                      A                      A
 Frequencies --    246.8201               311.5206               352.7494
 Red. masses --      1.4737                 3.1802                 2.0395
 Frc consts  --      0.0529                 0.1818                 0.1495
 IR Inten    --      0.0572                 3.1826                 0.0609

                     10                     11                     12
                      A                      A                      A
 Frequencies --    383.8573               399.3883               433.4639
 Red. masses --      2.0913                 2.1365                 2.7406
 Frc consts  --      0.1816                 0.2008                 0.3034
 IR Inten    --      0.5831                 0.9366                 1.1197

                     13                     14                     15
                      A                      A                      A
 Frequencies --    457.8522               518.5384               532.3145
 Red. masses --      2.4824                 1.1940                 2.9273
 Frc consts  --      0.3066                 0.1891                 0.4887
 IR Inten    --      4.2291               116.1361                 1.8479

                     16                     17                     18
                      A                      A                      A
 Frequencies --    664.2217               742.2358               787.9487
 Red. masses --      2.1413                 5.0351                 2.2928
 Frc consts  --      0.5566                 1.6343                 0.8387
 IR Inten    --      2.1802                 3.7139                 0.5191

                     19                     20                     21
                      A                      A                      A
 Frequencies --    806.6489               843.9170               851.8216
 Red. masses --      2.4354                 1.5342                 2.5528
 Frc consts  --      0.9337                 0.6438                 1.0913
 IR Inten    --      7.3994                 1.6876                 6.5284

                     22                     23                     24
                      A                      A                      A
 Frequencies --    906.1934               913.7544               928.8097
 Red. masses --      2.2321                 2.2419                 2.3024
 Frc consts  --      1.0800                 1.1029                 1.1703
 IR Inten    --      0.2468                22.7445                16.6794

                     25                     26                     27
                      A                      A                      A
 Frequencies --    952.7014               952.9729               976.7865
 Red. masses --      2.0976                 1.3971                 2.3081
 Frc consts  --      1.1217                 0.7475                 1.2975
 IR Inten    --      3.6733                 1.3656                 3.3789

                     28                     29                     30
                      A                      A                      A
 Frequencies --   1028.8950              1044.7682              1048.9480
 Red. masses --      1.6172                 1.8747                 1.3845
 Frc consts  --      1.0087                 1.2056                 0.8975
 IR Inten    --     25.4356                37.5955                 0.1750

                     31                     32                     33
                      A                      A                      A
 Frequencies --   1061.7977              1075.2962              1100.4497
 Red. masses --      1.6408                 2.4455                 3.5110
 Frc consts  --      1.0899                 1.6660                 2.5051
 IR Inten    --      2.0822                66.9263               103.1587

                     34                     35                     36
                      A                      A                      A
 Frequencies --   1147.6658              1150.6991              1167.1674
 Red. masses --      2.8692                 1.2789                 2.5060
 Frc consts  --      2.2266                 0.9977                 2.0114
 IR Inten    --     83.3232                 0.8994                 7.9141

                     37                     38                     39
                      A                      A                      A
 Frequencies --   1218.5160              1226.2870              1233.9361
 Red. masses --      1.7907                 1.6581                 1.3305
 Frc consts  --      1.5665                 1.4691                 1.1936
 IR Inten    --     15.2266                 8.3300                10.4875

                     40                     41                     42
                      A                      A                      A
 Frequencies --   1237.3945              1248.5100              1281.1947
 Red. masses --      1.4897                 1.4391                 1.4695
 Frc consts  --      1.3439                 1.3217                 1.4212
 IR Inten    --      2.4872                13.5747                 5.1873

                     43                     44                     45
                      A                      A                      A
 Frequencies --   1292.6637              1319.2397              1333.2712
 Red. masses --      1.5654                 1.7923                 1.4506
 Frc consts  --      1.5411                 1.8378                 1.5193
 IR Inten    --      1.7092                23.9111                13.6515

                     46                     47                     48
                      A                      A                      A
 Frequencies --   1356.6880              1364.7339              1374.0914
 Red. masses --      1.7010                 1.4322                 1.3610
 Frc consts  --      1.8447                 1.5716                 1.5140
 IR Inten    --      4.1315                 6.2843                 9.8847

                     49                     50                     51
                      A                      A                      A
 Frequencies --   1387.9967              1415.6607              1441.5606
 Red. masses --      1.4420                 1.2237                 1.2685
 Frc consts  --      1.6368                 1.4449                 1.5532
 IR Inten    --      2.0410                30.4179                 2.7185

                     52                     53                     54
                      A                      A                      A
 Frequencies --   1464.0841              1492.7628              1512.4010
 Red. masses --      1.3482                 1.0874                 1.1016
 Frc consts  --      1.7026                 1.4276                 1.4846
 IR Inten    --     70.8793                 4.9991                 0.5944

                     55                     56                     57
                      A                      A                      A
 Frequencies --   1518.0115              1526.4289              1528.9340
 Red. masses --      1.1050                 1.0748                 1.0509
 Frc consts  --      1.5003                 1.4754                 1.4475
 IR Inten    --      1.4088                 6.5856                 3.4347

                     58                     59                     60
                      A                      A                      A
 Frequencies --   1529.9123              1536.5549              2972.8901
 Red. masses --      1.0767                 1.0993                 1.0718
 Frc consts  --      1.4848                 1.5292                 5.5811
 IR Inten    --      2.6854                 1.7289                54.1164

                     61                     62                     63
                      A                      A                      A
 Frequencies --   3040.4268              3059.4308              3060.1440
 Red. masses --      1.0354                 1.0648                 1.0677
 Frc consts  --      5.6391                 5.8723                 5.8910
 IR Inten    --     25.9596                49.7989                22.7608

                     64                     65                     66
                      A                      A                      A
 Frequencies --   3061.8400              3065.3228              3072.8393
 Red. masses --      1.0728                 1.0665                 1.0692
 Frc consts  --      5.9258                 5.9045                 5.9485
 IR Inten    --     10.3873                16.8230                31.0506

                     67                     68                     69
                      A                      A                      A
 Frequencies --   3073.4384              3092.0886              3106.9837
 Red. masses --      1.0846                 1.0918                 1.1020
 Frc consts  --      6.0364                 6.1501                 6.2676
 IR Inten    --      8.1112                78.4157                36.4695

                     70                     71                     72
                      A                      A                      A
 Frequencies --   3107.4471              3112.9694              3124.6883
 Red. masses --      1.1017                 1.1031                 1.1048
 Frc consts  --      6.2678                 6.2983                 6.3557
 IR Inten    --     42.2276                31.5485                 4.9632

                     73                     74                     75
                      A                      A                      A
 Frequencies --   3126.5428              3130.3983              3694.4934
 Red. masses --      1.1027                 1.1022                 1.0647
 Frc consts  --      6.3508                 6.3637                 8.5624
 IR Inten    --     28.8929                41.8262                36.0025

 - Thermochemistry -
 -------------------
 Temperature   298.150 Kelvin.  Pressure   1.00000 Atm.
 Atom     1 has atomic number  6 and mass  12.00000

 Molecular mass:   156.11503 amu.
 Principal axes and moments of inertia in atomic units:
                           1         2         3
     Eigenvalues --   731.802572805.296503083.39488
           X            0.99994  -0.01077  -0.00180
           Y            0.01078   0.99994   0.00157
           Z            0.00178  -0.00159   1.00000
 This molecule is an asymmetric top.
 Rotational symmetry number  1.
 Warning -- assumption of classical behavior for rotation
           may cause significant error
 Rotational temperatures (Kelvin)      0.11836     0.03088     0.02809
 Rotational constants (GHZ):           2.46616     0.64333     0.58531
 Zero-point vibrational energy     636174.7 (Joules/Mol)
                                  152.04939 (Kcal/Mol)
 Warning -- explicit consideration of  15 degrees of freedom as
           vibrations may cause significant error
 Vibrational temperatures:     58.22   119.32   164.49   210.23   308.60
          (Kelvin)            329.18   355.12   448.21   507.53   552.28
                              574.63   623.66   658.75   746.06   765.88
                              955.67  1067.91  1133.68  1160.59  1214.21
                             1225.58  1303.81  1314.69  1336.35  1370.72
                             1371.12  1405.38  1480.35  1503.19  1509.20
                             1527.69  1547.11  1583.30  1651.24  1655.60
                             1679.29  1753.17  1764.35  1775.36  1780.33
                             1796.33  1843.35  1859.85  1898.09  1918.28
                             1951.97  1963.55  1977.01  1997.02  2036.82
                             2074.08  2106.49  2147.75  2176.01  2184.08
                             2196.19  2199.79  2201.20  2210.76  4277.33
                             4374.50  4401.84  4402.86  4405.30  4410.32
                             4421.13  4421.99  4448.83  4470.26  4470.92
                             4478.87  4495.73  4498.40  4503.94  5315.55

 Zero-point correction=                           0.242306 (Hartree/Particle)
 Thermal correction to Energy=                    0.253245
 Thermal correction to Enthalpy=                  0.254189
 Thermal correction to Gibbs Free Energy=         0.205545
 Sum of electronic and zero-point Energies=           -502.804116
 Sum of electronic and thermal Energies=              -502.793177
 Sum of electronic and thermal Enthalpies=            -502.792233
 Sum of electronic and thermal Free Energies=         -502.840878

                     E (Thermal)             CV                S
                      KCal/Mol        Cal/Mol-Kelvin    Cal/Mol-Kelvin
 Total                  158.914             42.616            102.381
 Electronic               0.000              0.000              0.000
 Translational            0.889              2.981             41.046
 Rotational               0.889              2.981             30.227
 Vibrational            157.136             36.654             31.109
 Vibration     1          0.594              1.981              5.236
 Vibration     2          0.600              1.961              3.820
 Vibration     3          0.607              1.938              3.194
 Vibration     4          0.617              1.907              2.722
 Vibration     5          0.644              1.819              2.005
 Vibration     6          0.651              1.797              1.888
 Vibration     7          0.661              1.768              1.753
 Vibration     8          0.700              1.652              1.354
 Vibration     9          0.729              1.570              1.154
 Vibration    10          0.753              1.505              1.024
 Vibration    11          0.765              1.471              0.965
 Vibration    12          0.794              1.397              0.847
 Vibration    13          0.816              1.344              0.772
 Vibration    14          0.874              1.209              0.613
 Vibration    15          0.887              1.179              0.582

 Optimization completed.
    -- Stationary point found.

 1\1\GINC-NODE103\Freq\RB3LYP\6-31G(d)\C9H16O2\VSC10255\08-Dec-2020\0\\
 #N Geom=AllCheck Guess=TCheck SCRF=Check GenChk RB3LYP/6-31G(d) Freq\\
 CID_130584248_JID_1904_neutraal\\0,1\C,1.0298773791,-0.0364703708,-0.0
 093545492\C,0.3194020563,0.3490591878,1.2838393293\C,-1.1608678511,-0.
 1229936096,1.390315167\C,-0.7078937654,-1.2623888471,2.3476155484\C,0.
 6536295865,-0.5529949585,2.509382787\C,-0.715565568,-2.6751097749,1.76
 10581185\C,-2.0987014748,-3.1918111689,2.1793114045\C,-2.2795011212,-2
 .5554735819,3.5640471689\O,-1.4565082193,-1.3685785305,3.5634736011\C,

 Normal termination of Gaussian 16 at Tue Dec  8 21:41:01 2020.

 ----------------------------------------------------------------------
 # B3LYP/6-311++G(d,p) empiricaldispersion=gd3bj scf=xqc pop=npa geom=c
 heck
 ----------------------------------------------------------------------

 ---------------------------------------
 CID_130584248_JID_1904_Energie_neutraal
 ---------------------------------------
 Structure from the checkpoint file:  "JID_1904.chk"
 Charge =  0 Multiplicity = 1

 SCF Done:  E(RB3LYP) =  -503.196875931     A.U. after   13 cycles
 Normal termination of Gaussian 16 at Tue Dec  8 21:44:03 2020.

 ----------------------------------------------------------------------
 # B3LYP/6-311++G(d,p) empiricaldispersion=gd3bj scf=xqc pop=npa geom=c
 heck
 ----------------------------------------------------------------------

 -------------------------------------
 CID_130584248_JID_1904_Energie_kation
 -------------------------------------
 Structure from the checkpoint file:  "JID_1904.chk"
 Charge =  1 Multiplicity = 2

 SCF Done:  E(UB3LYP) =  -502.871603752     A.U. after   20 cycles
 Normal termination of Gaussian 16 at Tue Dec  8 21:50:03 2020.
 Gaussian 16:  ES64L-G16RevA.03 25-Dec-2016

 ------------------------------------
 CID_130584248_JID_1904_Energie_anion
 ------------------------------------
 Structure from the checkpoint file:  "JID_1904.chk"
 Charge = -1 Multiplicity = 2

                         Standard orientation:
 ---------------------------------------------------------------------
 Center     Atomic      Atomic             Coordinates (Angstroms)
 Number     Number       Type             X           Y           Z
 ---------------------------------------------------------------------
      1          6           0        3.606377    0.168237   -0.480993
      2          6           0        2.577999   -0.696148    0.240836
      3          6           0        1.592199    0.080974    1.162601
      4          6           0        0.489764   -0.067218    0.075169
      5          6           0        1.360305   -1.130112   -0.628798
      6          6           0        0.138681    1.202322   -0.702582
      7          6           0       -1.051232    1.752195    0.095370
      8          6           0       -1.775044    0.469654    0.526983
      9          8           0       -0.767088   -0.564583    0.547358
     10          6           0       -2.863872    0.016669   -0.444735
     11          8           0       -3.278557   -1.303526   -0.155392
     12          1           0        4.334982    0.585045    0.224536
     13          1           0        3.132620    1.008465   -1.002937
     14          1           0        4.156365   -0.416009   -1.228386
     15          1           0        3.087699   -1.528279    0.737201
     16          1           0        1.320536   -0.483434    2.058530
     17          1           0        1.876152    1.099936    1.451285
     18          1           0        1.462736   -1.040809   -1.716491
     19          1           0        1.007682   -2.136086   -0.384670
     20          1           0        0.973353    1.904572   -0.772102
     21          1           0       -0.167181    0.938426   -1.722042
     22          1           0       -1.693550    2.418340   -0.489939
     23          1           0       -0.700247    2.307635    0.971618
     24          1           0       -2.198730    0.538501    1.535566
     25          1           0       -3.743990    0.663556   -0.356559
     26          1           0       -2.485189    0.102028   -1.478637
     27          1           0       -2.449141   -1.796449   -0.025801
 ---------------------------------------------------------------------

 SCF Done:  E(UB3LYP) =  -503.181324173     A.U. after   27 cycles

 The electronic state is 2-A.
 Alpha  occ. eigenvalues --  -19.02610 -19.02277 -10.12455 -10.12218 -10.11614
 Alpha  occ. eigenvalues --  -10.07304 -10.07202 -10.06884 -10.06248 -10.05750
 Alpha  occ. eigenvalues --  -10.05394  -0.94896  -0.92009  -0.74710  -0.69133
 Alpha  occ. eigenvalues --   -0.64663  -0.60222  -0.56498  -0.55228  -0.49896
 Alpha  occ. eigenvalues --   -0.47431  -0.42797  -0.42253  -0.39800  -0.38889
 Alpha  occ. eigenvalues --   -0.35647  -0.34999  -0.34099  -0.32156  -0.31801
 Alpha  occ. eigenvalues --   -0.30532  -0.28799  -0.27839  -0.27167  -0.26209
 Alpha  occ. eigenvalues --   -0.24013  -0.23443  -0.22622  -0.22565  -0.20597
 Alpha  occ. eigenvalues --   -0.19674  -0.18215  -0.15222   0.04617
 Alpha virt. eigenvalues --    0.06724   0.07769   0.08121   0.08881   0.09301
 Alpha virt. eigenvalues --    0.09750   0.10329   0.10654   0.11845   0.12068
 Alpha virt. eigenvalues --    0.12258   0.13217   0.13851   0.14747   0.15354

  Beta  occ. eigenvalues --  -19.02606 -19.02272 -10.12457 -10.12212 -10.11598
  Beta  occ. eigenvalues --  -10.07276 -10.07191 -10.06857 -10.06234 -10.05726
  Beta  occ. eigenvalues --  -10.05354  -0.94886  -0.91999  -0.74690  -0.69094
  Beta  occ. eigenvalues --   -0.64632  -0.60172  -0.56452  -0.55176  -0.49841
  Beta  occ. eigenvalues --   -0.47379  -0.42740  -0.42232  -0.39745  -0.38852
  Beta  occ. eigenvalues --   -0.35614  -0.34959  -0.34065  -0.32125  -0.31768
  Beta  occ. eigenvalues --   -0.30496  -0.28770  -0.27804  -0.27131  -0.26167
  Beta  occ. eigenvalues --   -0.23981  -0.23413  -0.22598  -0.22532  -0.20568
  Beta  occ. eigenvalues --   -0.19644  -0.18198  -0.15206
  Beta virt. eigenvalues --    0.06980   0.07670   0.08462   0.08690   0.09523
  Beta virt. eigenvalues --    0.09918   0.10272   0.10833   0.11274   0.12331
  Beta virt. eigenvalues --    0.12622   0.12713   0.13491   0.14278   0.15112

 Mulliken charges and spin densities:
               1          2
     1  C    1.975713  -2.704436
     2  C   -1.386998   1.902252
     3  C    0.894160  -1.412971
     4  C   -0.622693   0.515871
     5  C   -0.243185  -0.211110
     6  C    1.054690  -1.371575
     7  C    0.898509  -1.476869
     8  C   -0.958768   1.407975
     9  O   -0.132913  -0.015515
    10  C    0.831392  -1.382562
    11  O   -0.276798   0.024066
    12  H   -0.209720   0.345765
    13  H   -0.406213   0.550484
    14  H   -0.375186   0.512048
    15  H   -0.491045   0.691275
    16  H    0.058144   0.096518
    17  H   -0.511474   0.681823
    18  H   -0.332337   0.487295
    19  H    0.051383   0.088947
    20  H   -0.010833   0.161235
    21  H   -0.071699   0.258859
    22  H   -0.639017   0.829151
    23  H   -0.137168   0.283005
    24  H   -0.149621   0.365348
    25  H   -0.007650   0.168759
    26  H   -0.017181   0.175731
    27  H    0.216508   0.028632
 Sum of Mulliken charges =  -1.00000   1.00000

 Dipole moment (field-independent basis, Debye):
    X=             -3.2372    Y=             -2.8899    Z=              0.8469  Tot=              4.4213
 Quadrupole moment (field-independent basis, Debye-Ang):
   XX=           -143.0987   YY=           -111.4747   ZZ=           -104.2899
   XY=             -1.6656   XZ=              0.6393   YZ=              1.1416

 Summary of Natural Population Analysis:

                                       Natural Population
                Natural  -----------------------------------------------
    Atom  No    Charge         Core      Valence    Rydberg      Total
 -----------------------------------------------------------------------
      C    1   -0.28328      0.99965     2.27773    0.00591     3.28328
      C    2   -0.11143      0.99963     2.10073    0.01107     3.11143
      C    3   -0.19578      0.99957     2.18721    0.00900     3.19578
      C    4    0.13649      0.99949     1.84495    0.01907     2.86351
      C    5   -0.19134      0.99957     2.18267    0.00910     3.19134
      C    6   -0.20002      0.99957     2.19024    0.01021     3.20002
      C    7   -0.20391      0.99962     2.19460    0.00969     3.20391
      C    8    0.05293      0.99956     1.93286    0.01466     2.94707
      O    9   -0.31969      0.99987     3.31090    0.00892     4.31969
      C   10   -0.01381      0.99957     2.00268    0.01156     3.01381
      O   11   -0.37256      0.99990     3.36587    0.00679     4.37256
      H   12    0.10026      0.00000     0.39828    0.00146     0.39974
      H   13    0.09708      0.00000     0.40121    0.00171     0.40292
      H   14    0.09911      0.00000     0.39938    0.00151     0.40089
      H   15    0.09436      0.00000     0.40445    0.00119     0.40564
      H   16    0.10470      0.00000     0.39386    0.00143     0.39530
      H   17    0.09987      0.00000     0.39861    0.00152     0.40013
      H   18    0.09900      0.00000     0.39980    0.00120     0.40100
      H   19    0.10443      0.00000     0.39424    0.00133     0.39557
      H   20    0.11017      0.00000     0.38794    0.00189     0.38983
      H   21    0.09958      0.00000     0.39878    0.00164     0.40042
      H   22    0.10679      0.00000     0.39117    0.00204     0.39321
      H   23    0.10395      0.00000     0.39433    0.00172     0.39605
      H   24    0.08834      0.00000     0.41041    0.00125     0.41166
      H   25    0.08566      0.00000     0.41290    0.00145     0.41434
      H   26    0.07513      0.00000     0.42322    0.00165     0.42487
      H   27    0.23399      0.00000     0.26273    0.00328     0.26601
 =======================================================================
   * Total *   -0.00000     10.99599    31.86176    0.14225    43.00000

 Normal termination of Gaussian 16 at Tue Dec  8 21:57:47 2020.
