 Gaussian 16, Revision A.03,

 -----------------------------------------------------------
 # opt freq B3LYP/6-31G(d) empiricaldispersion=gd3bj scf=xqc
 -----------------------------------------------------------

 --------------------------------
 CID_112893701_JID_10643_neutraal
 --------------------------------
 Symbolic Z-matrix:
 Charge =  0 Multiplicity = 1

 SCF Done:  E(RB3LYP) =  -858.088418185     A.U. after   14 cycles
 SCF Done:  E(RB3LYP) =  -858.098609510     A.U. after   13 cycles
 SCF Done:  E(RB3LYP) =  -858.101929666     A.U. after   12 cycles
 SCF Done:  E(RB3LYP) =  -858.104270232     A.U. after   12 cycles
 SCF Done:  E(RB3LYP) =  -858.104971736     A.U. after   12 cycles
 SCF Done:  E(RB3LYP) =  -858.105364121     A.U. after   12 cycles
 SCF Done:  E(RB3LYP) =  -858.105803011     A.U. after   13 cycles
 SCF Done:  E(RB3LYP) =  -858.106073396     A.U. after   11 cycles
 SCF Done:  E(RB3LYP) =  -858.106313219     A.U. after   12 cycles
 SCF Done:  E(RB3LYP) =  -858.106546423     A.U. after   12 cycles
 SCF Done:  E(RB3LYP) =  -858.110339352     A.U. after   11 cycles
 SCF Done:  E(RB3LYP) =  -858.110346257     A.U. after    9 cycles
 SCF Done:  E(RB3LYP) =  -858.110348473     A.U. after    9 cycles
 SCF Done:  E(RB3LYP) =  -858.110348817     A.U. after    8 cycles
 SCF Done:  E(RB3LYP) =  -858.110348842     A.U. after    6 cycles
 Optimization completed.
    -- Stationary point found.
 Normal termination of Gaussian 16 at Sat Dec 12 17:06:56 2020.

 --------------------------------------------------------------------
 #N Geom=AllCheck Guess=TCheck SCRF=Check GenChk RB3LYP/6-31G(d) Freq
 --------------------------------------------------------------------

 Structure from the checkpoint file:  "JID_10643.chk"
 --------------------------------
 CID_112893701_JID_10643_neutraal
 --------------------------------
 Charge =  0 Multiplicity = 1

 SCF Done:  E(RB3LYP) =  -858.110348842     A.U. after    1 cycles

  Exact polarizability: 208.429  -1.552 185.433  22.355  -1.921 152.617
 Approx polarizability: 305.306   4.991 279.541  44.461   3.355 262.981

                      1                      2                      3
                      A                      A                      A
 Frequencies --     26.3671                37.3470                42.8712
 Red. masses --      3.7656                 4.1929                 5.4668
 Frc consts  --      0.0015                 0.0034                 0.0059
 IR Inten    --      0.1973                 0.3260                 1.1457

                      4                      5                      6
                      A                      A                      A
 Frequencies --     48.9227                62.6205                85.7608
 Red. masses --      4.7413                 3.5930                 2.9528
 Frc consts  --      0.0067                 0.0083                 0.0128
 IR Inten    --      1.4203                 0.1509                 1.4996

                      7                      8                      9
                      A                      A                      A
 Frequencies --    109.2680               130.4424               162.1596
 Red. masses --      3.1495                 4.1193                 5.3829
 Frc consts  --      0.0222                 0.0413                 0.0834
 IR Inten    --      2.4424                 1.9994                 0.3322

                     10                     11                     12
                      A                      A                      A
 Frequencies --    184.3905               196.7068               231.1667
 Red. masses --      5.2365                 4.9694                 3.8770
 Frc consts  --      0.1049                 0.1133                 0.1221
 IR Inten    --      4.7195                 4.8498                 1.9651

                     13                     14                     15
                      A                      A                      A
 Frequencies --    244.1262               256.9478               270.2949
 Red. masses --      1.2413                 1.6231                 1.5332
 Frc consts  --      0.0436                 0.0631                 0.0660
 IR Inten    --      0.9443                 0.5538                 0.2132

                     16                     17                     18
                      A                      A                      A
 Frequencies --    286.2011               334.9989               341.3866
 Red. masses --      2.1576                 2.2359                 3.9592
 Frc consts  --      0.1041                 0.1478                 0.2719
 IR Inten    --      2.8027                 0.5293                 2.4747

                     19                     20                     21
                      A                      A                      A
 Frequencies --    388.4301               394.3928               417.0317
 Red. masses --      2.6037                 2.2452                 2.0191
 Frc consts  --      0.2315                 0.2058                 0.2069
 IR Inten    --      0.3902                 1.0774                 1.4740

                     22                     23                     24
                      A                      A                      A
 Frequencies --    455.4964               468.6126               479.3514
 Red. masses --      3.3294                 1.7038                 2.5983
 Frc consts  --      0.4070                 0.2204                 0.3518
 IR Inten    --      3.5434                89.8227                10.1955

                     25                     26                     27
                      A                      A                      A
 Frequencies --    486.2387               512.3555               520.0810
 Red. masses --      2.7608                 1.1779                 3.7264
 Frc consts  --      0.3846                 0.1822                 0.5939
 IR Inten    --     24.0280                67.6542                45.1808

                     28                     29                     30
                      A                      A                      A
 Frequencies --    529.7839               608.9032               613.8208
 Red. masses --      2.1972                 3.6725                 5.1604
 Frc consts  --      0.3633                 0.8023                 1.1455
 IR Inten    --      9.7519                27.5801                11.6180

                     31                     32                     33
                      A                      A                      A
 Frequencies --    640.6817               686.6202               711.3441
 Red. masses --      3.7176                 6.8273                 3.4981
 Frc consts  --      0.8991                 1.8964                 1.0429
 IR Inten    --      2.5859                 0.2544                 3.8141

                     34                     35                     36
                      A                      A                      A
 Frequencies --    747.7385               761.5108               772.0317
 Red. masses --      3.9343                 4.0076                 1.5262
 Frc consts  --      1.2960                 1.3693                 0.5360
 IR Inten    --      2.2432                 3.9407                28.3187

                     37                     38                     39
                      A                      A                      A
 Frequencies --    788.8457               801.8463               807.1845
 Red. masses --      2.7723                 9.1362                 1.6774
 Frc consts  --      1.0164                 3.4610                 0.6439
 IR Inten    --      4.9331                39.0645                 6.9877

                     40                     41                     42
                      A                      A                      A
 Frequencies --    829.2069               870.6480               889.2843
 Red. masses --      2.8004                 1.9253                 1.2544
 Frc consts  --      1.1345                 0.8599                 0.5845
 IR Inten    --     12.8690                 4.1476                 0.2749

                     43                     44                     45
                      A                      A                      A
 Frequencies --    924.7041               941.0129               958.0387
 Red. masses --      1.7892                 1.1975                 2.0649
 Frc consts  --      0.9014                 0.6248                 1.1167
 IR Inten    --      6.1763                 2.5222                16.5687

                     46                     47                     48
                      A                      A                      A
 Frequencies --    976.8011               979.7026               988.5611
 Red. masses --      1.3740                 1.4670                 1.3789
 Frc consts  --      0.7724                 0.8296                 0.7940
 IR Inten    --      2.5094                 0.6522                 0.9831

                     49                     50                     51
                      A                      A                      A
 Frequencies --    991.6358               992.2981              1009.2380
 Red. masses --      1.7729                 2.6223                 2.3450
 Frc consts  --      1.0271                 1.5213                 1.4073
 IR Inten    --      0.8555                 2.0313                 4.9683

                     52                     53                     54
                      A                      A                      A
 Frequencies --   1016.4115              1032.2180              1079.6830
 Red. masses --      7.0413                 2.2570                 2.4272
 Frc consts  --      4.2859                 1.4168                 1.6671
 IR Inten    --      5.9117                 1.3583                 4.6226

                     55                     56                     57
                      A                      A                      A
 Frequencies --   1102.9895              1113.6131              1124.0000
 Red. masses --      2.0708                 2.3959                 1.6828
 Frc consts  --      1.4844                 1.7506                 1.2526
 IR Inten    --      6.8508                14.7725                 2.4671

                     58                     59                     60
                      A                      A                      A
 Frequencies --   1139.3300              1146.0145              1171.8571
 Red. masses --      1.9908                 2.0490                 2.1279
 Frc consts  --      1.5226                 1.5855                 1.7216
 IR Inten    --     15.4215                 4.4703                 0.3233

                     61                     62                     63
                      A                      A                      A
 Frequencies --   1180.5734              1207.8889              1232.0694
 Red. masses --      2.1651                 1.7709                 2.8578
 Frc consts  --      1.7780                 1.5223                 2.5560
 IR Inten    --     15.9055                 7.7029                 3.6761

                     64                     65                     66
                      A                      A                      A
 Frequencies --   1259.5440              1262.2316              1273.8645
 Red. masses --      1.2982                 1.3361                 2.3419
 Frc consts  --      1.2135                 1.2542                 2.2390
 IR Inten    --      5.6449                 8.8715                41.5424

                     67                     68                     69
                      A                      A                      A
 Frequencies --   1291.7089              1300.8724              1315.2055
 Red. masses --      1.5559                 3.4871                 1.4690
 Frc consts  --      1.5296                 3.4768                 1.4972
 IR Inten    --     11.6504                 4.7569                26.5339

                     70                     71                     72
                      A                      A                      A
 Frequencies --   1341.4938              1348.4882              1361.0062
 Red. masses --      2.2403                 1.7041                 1.3063
 Frc consts  --      2.3753                 1.8258                 1.4257
 IR Inten    --      4.5177                58.9425                11.1100

                     73                     74                     75
                      A                      A                      A
 Frequencies --   1368.6854              1378.3026              1406.3043
 Red. masses --      1.4415                 1.3537                 1.3573
 Frc consts  --      1.5910                 1.5152                 1.5815
 IR Inten    --     16.1765                 9.5558                78.0243

                     76                     77                     78
                      A                      A                      A
 Frequencies --   1410.2426              1418.3638              1428.9802
 Red. masses --      1.3513                 1.4806                 1.2827
 Frc consts  --      1.5834                 1.7549                 1.5432
 IR Inten    --     28.6100                 1.8819                 3.8492

                     79                     80                     81
                      A                      A                      A
 Frequencies --   1447.9610              1459.9355              1463.3271
 Red. masses --      1.2469                 1.8764                 1.8839
 Frc consts  --      1.5403                 2.3563                 2.3768
 IR Inten    --     13.6131                73.9853                34.6498

                     82                     83                     84
                      A                      A                      A
 Frequencies --   1482.3033              1502.3111              1508.4380
 Red. masses --      1.1374                 1.1240                 1.1192
 Frc consts  --      1.4724                 1.4946                 1.5004
 IR Inten    --      7.3357                24.3635                 2.3516

                     85                     86                     87
                      A                      A                      A
 Frequencies --   1518.1443              1523.4904              1528.3075
 Red. masses --      1.0559                 1.7436                 1.0584
 Frc consts  --      1.4339                 2.3843                 1.4566
 IR Inten    --      0.3570                33.9600                 5.8886

                     88                     89                     90
                      A                      A                      A
 Frequencies --   1536.3810              1541.1502              1545.2854
 Red. masses --      1.0811                 1.1246                 1.9915
 Frc consts  --      1.5036                 1.5737                 2.8019
 IR Inten    --      4.6101                18.3447                 6.8643

                     91                     92                     93
                      A                      A                      A
 Frequencies --   1550.7324              1594.2185              1622.3964
 Red. masses --      2.7274                 3.5023                 6.3629
 Frc consts  --      3.8643                 5.2444                 9.8678
 IR Inten    --    100.7187               460.7129                 4.2201

                     94                     95                     96
                      A                      A                      A
 Frequencies --   1645.5403              1654.3886              1659.1004
 Red. masses --      4.5382                 4.5159                 5.1507
 Frc consts  --      7.2401                 7.2824                 8.3534
 IR Inten    --    388.3113               313.3749               200.6138

                     97                     98                     99
                      A                      A                      A
 Frequencies --   3018.5036              3034.4533              3041.4765
 Red. masses --      1.0604                 1.0372                 1.0490
 Frc consts  --      5.6927                 5.6271                 5.7175
 IR Inten    --     24.0174                33.6336                16.0756

                    100                    101                    102
                      A                      A                      A
 Frequencies --   3050.4894              3053.9479              3064.1541
 Red. masses --      1.0813                 1.0757                 1.0911
 Frc consts  --      5.9284                 5.9110                 6.0358
 IR Inten    --     32.7738                41.2569                49.3056

                    103                    104                    105
                      A                      A                      A
 Frequencies --   3068.4330              3098.6749              3108.2233
 Red. masses --      1.0647                 1.0996                 1.0974
 Frc consts  --      5.9065                 6.2209                 6.2468
 IR Inten    --     39.2497                26.5978                59.2229

                    106                    107                    108
                      A                      A                      A
 Frequencies --   3110.7751              3122.4766              3142.0328
 Red. masses --      1.1022                 1.0983                 1.0955
 Frc consts  --      6.2842                 6.3094                 6.3723
 IR Inten    --     36.8037                 2.7455                21.1480

                    109                    110                    111
                      A                      A                      A
 Frequencies --   3144.7517              3165.5328              3169.1763
 Red. masses --      1.0961                 1.0899                 1.0870
 Frc consts  --      6.3866                 6.4347                 6.4325
 IR Inten    --     11.8330                39.7846                21.7722

                    112                    113                    114
                      A                      A                      A
 Frequencies --   3172.9830              3191.6824              3215.8661
 Red. masses --      1.0903                 1.0946                 1.0939
 Frc consts  --      6.4677                 6.5698                 6.6651
 IR Inten    --     22.2610                26.8747                11.3465

                    115                    116                    117
                      A                      A                      A
 Frequencies --   3230.9783              3617.2666              3630.1331
 Red. masses --      1.0920                 1.0764                 1.0761
 Frc consts  --      6.7167                 8.2978                 8.3553
 IR Inten    --      4.9431                25.9060                44.0060

 - Thermochemistry -
 -------------------
 Temperature   298.150 Kelvin.  Pressure   1.00000 Atm.
 Atom     1 has atomic number  6 and mass  12.00000

 Molecular mass:   271.17970 amu.
 Principal axes and moments of inertia in atomic units:
                           1         2         3
     Eigenvalues --  4160.413216218.644128687.87942
           X            0.99997  -0.00280   0.00666
           Y            0.00280   1.00000   0.00107
           Z           -0.00666  -0.00105   0.99998
 This molecule is an asymmetric top.
 Rotational symmetry number  1.
 Warning -- assumption of classical behavior for rotation
           may cause significant error
 Rotational temperatures (Kelvin)      0.02082     0.01393     0.00997
 Rotational constants (GHZ):           0.43379     0.29021     0.20773
 Zero-point vibrational energy     926763.6 (Joules/Mol)
                                  221.50182 (Kcal/Mol)
 Warning -- explicit consideration of  30 degrees of freedom as
           vibrations may cause significant error
 Vibrational temperatures:     37.94    53.73    61.68    70.39    90.10
          (Kelvin)            123.39   157.21   187.68   233.31   265.30
                              283.02   332.60   351.24   369.69   388.89
                              411.78   481.99   491.18   558.86   567.44
                              600.02   655.36   674.23   689.68   699.59
                              737.17   748.28   762.24   876.08   883.15
                              921.80   987.89  1023.47  1075.83  1095.64
                             1110.78  1134.97  1153.68  1161.36  1193.04
                             1252.67  1279.48  1330.44  1353.91  1378.40
                             1405.40  1409.57  1422.32  1426.74  1427.70
                             1452.07  1462.39  1485.13  1553.42  1586.96
                             1602.24  1617.19  1639.24  1648.86  1686.04
                             1698.58  1737.88  1772.67  1812.20  1816.07
                             1832.81  1858.48  1871.67  1892.29  1930.11
                             1940.17  1958.18  1969.23  1983.07  2023.36
                             2029.02  2040.71  2055.98  2083.29  2100.52
                             2105.40  2132.70  2161.49  2170.31  2184.27
                             2191.96  2198.89  2210.51  2217.37  2223.32
                             2231.16  2293.72  2334.27  2367.57  2380.30
                             2387.08  4342.95  4365.90  4376.01  4388.97
                             4393.95  4408.63  4414.79  4458.30  4472.04
                             4475.71  4492.55  4520.68  4524.60  4554.50
                             4559.74  4565.21  4592.12  4626.91  4648.66
                             5204.44  5222.95

 Zero-point correction=                           0.352986 (Hartree/Particle)
 Thermal correction to Energy=                    0.371893
 Thermal correction to Enthalpy=                  0.372837
 Thermal correction to Gibbs Free Energy=         0.304604
 Sum of electronic and zero-point Energies=           -857.757363
 Sum of electronic and thermal Energies=              -857.738456
 Sum of electronic and thermal Enthalpies=            -857.737512
 Sum of electronic and thermal Free Energies=         -857.805745

                     E (Thermal)             CV                S
                      KCal/Mol        Cal/Mol-Kelvin    Cal/Mol-Kelvin
 Total                  233.366             72.812            143.609
 Electronic               0.000              0.000              0.000
 Translational            0.889              2.981             42.692
 Rotational               0.889              2.981             33.774
 Vibrational            231.589             66.850             67.143
 Vibration     1          0.593              1.985              6.086
 Vibration     2          0.594              1.982              5.395
 Vibration     3          0.595              1.980              5.122
 Vibration     4          0.595              1.978              4.860
 Vibration     5          0.597              1.972              4.373
 Vibration     6          0.601              1.959              3.755
 Vibration     7          0.606              1.942              3.282
 Vibration     8          0.612              1.923              2.940
 Vibration     9          0.622              1.889              2.524
 Vibration    10          0.631              1.861              2.283
 Vibration    11          0.636              1.844              2.164
 Vibration    12          0.653              1.793              1.870
 Vibration    13          0.659              1.772              1.773
 Vibration    14          0.667              1.751              1.682
 Vibration    15          0.674              1.728              1.594
 Vibration    16          0.684              1.699              1.496
 Vibration    17          0.716              1.606              1.236
 Vibration    18          0.721              1.593              1.206
 Vibration    19          0.757              1.495              1.006
 Vibration    20          0.761              1.482              0.983
 Vibration    21          0.780              1.433              0.902
 Vibration    22          0.814              1.349              0.779
 Vibration    23          0.826              1.320              0.741
 Vibration    24          0.836              1.296              0.712
 Vibration    25          0.842              1.281              0.693
 Vibration    26          0.867              1.223              0.628
 Vibration    27          0.875              1.206              0.610
 Vibration    28          0.885              1.184              0.588
 Vibration    29          0.968              1.013              0.435
 Vibration    30          0.973              1.003              0.426

 Optimization completed.
    -- Stationary point found.
 Normal termination of Gaussian 16 at Sat Dec 12 17:30:20 2020.

 ----------------------------------------------------------------------
 # B3LYP/6-311++G(d,p) empiricaldispersion=gd3bj scf=xqc pop=npa geom=c
 heck
 ----------------------------------------------------------------------

 ----------------------------------------
 CID_112893701_JID_10643_Energie_neutraal
 ----------------------------------------
 Structure from the checkpoint file:  "JID_10643.chk"
 Charge =  0 Multiplicity = 1

 SCF Done:  E(RB3LYP) =  -858.341590444     A.U. after   15 cycles
 Normal termination of Gaussian 16 at Sat Dec 12 17:41:02 2020.

 ----------------------------------------------------------------------
 # B3LYP/6-311++G(d,p) empiricaldispersion=gd3bj scf=xqc pop=npa geom=c
 heck
 ----------------------------------------------------------------------

 --------------------------------------
 CID_112893701_JID_10643_Energie_kation
 --------------------------------------
 Structure from the checkpoint file:  "JID_10643.chk"
 Charge =  1 Multiplicity = 2

 SCF Done:  E(UB3LYP) =  -858.064138837     A.U. after   25 cycles
 Normal termination of Gaussian 16 at Sat Dec 12 18:05:26 2020.
 Gaussian 16:  ES64L-G16RevA.03 25-Dec-2016

 ----------------------------------------------------------------------
 # B3LYP/6-311++G(d,p) empiricaldispersion=gd3bj scf=xqc pop=npa geom=c
 heck
 ----------------------------------------------------------------------

 -------------------------------------
 CID_112893701_JID_10643_Energie_anion
 -------------------------------------
 Structure from the checkpoint file:  "JID_10643.chk"
 Charge = -1 Multiplicity = 2

                         Standard orientation:
 ---------------------------------------------------------------------
 Center     Atomic      Atomic             Coordinates (Angstroms)
 Number     Number       Type             X           Y           Z
 ---------------------------------------------------------------------
      1          6           0        1.212218   -2.084656    0.943918
      2          6           0        0.209792   -2.376743   -0.178563
      3          6           0        0.868443   -3.221960   -1.274398
      4          6           0       -1.048848   -3.070260    0.372042
      5          6           0       -1.997013   -2.147482    1.155620
      6          7           0       -2.810674   -1.298279    0.304443
      7          6           0       -2.588029    0.005369   -0.008367
      8          7           0       -3.490837    0.551174   -0.854675
      9          6           0       -3.281468    1.836990   -1.150233
     10          6           0       -2.228869    2.587754   -0.651234
     11          6           0       -1.343631    1.906894    0.210126
     12          7           0       -1.518279    0.619214    0.532335
     13          7           0       -0.263165    2.557736    0.754316
     14          6           0        0.817887    1.855511    1.415072
     15          6           0        1.893865    1.310387    0.494204
     16          6           0        1.643017    0.988315   -0.840954
     17          6           0        2.662654    0.415831   -1.601186
     18          7           0        3.890021    0.154192   -1.134482
     19          6           0        4.127756    0.482983    0.142178
     20          6           0        3.177663    1.057066    0.984638
     21          1           0        1.516616   -3.016432    1.439043
     22          1           0        0.788318   -1.421521    1.705473
     23          1           0        2.112478   -1.604673    0.551494
     24          1           0       -0.093508   -1.419249   -0.620575
     25          1           0        1.176360   -4.200944   -0.883883
     26          1           0        0.181326   -3.397407   -2.110742
     27          1           0        1.762997   -2.724922   -1.667051
     28          1           0       -1.618644   -3.521991   -0.451870
     29          1           0       -0.742230   -3.900375    1.025423
     30          1           0       -2.676491   -2.751904    1.769032
     31          1           0       -1.440768   -1.495521    1.831847
     32          1           0       -3.594855   -1.704521   -0.185824
     33          1           0       -4.000586    2.289825   -1.831755
     34          1           0       -2.089028    3.630776   -0.912596
     35          1           0       -0.035077    3.448764    0.335906
     36          1           0        1.269607    2.524662    2.155724
     37          1           0        0.366165    1.021296    1.959099
     38          1           0        0.669330    1.163260   -1.283502
     39          1           0        2.480419    0.148011   -2.640488
     40          1           0        5.131127    0.275512    0.510145
     41          1           0        3.434365    1.293099    2.014367
 ---------------------------------------------------------------------

 SCF Done:  E(UB3LYP) =  -858.332535890     A.U. after   33 cycles
 SCF Done:  E(UB3LYP) =  -858.332535890     a.u. after    1 cycles

 The electronic state is 2-A.
 Alpha  occ. eigenvalues --  -14.23541 -14.23388 -14.19890 -14.19627 -14.19295
 Alpha  occ. eigenvalues --  -10.17283 -10.15642 -10.11479 -10.11052 -10.11042
 Alpha  occ. eigenvalues --  -10.09925 -10.09485 -10.08306 -10.07413 -10.07388
 Alpha  occ. eigenvalues --  -10.07215 -10.07023 -10.06699 -10.06423 -10.05452
 Alpha  occ. eigenvalues --   -0.90621  -0.85813  -0.83302  -0.81348  -0.77292
 Alpha  occ. eigenvalues --   -0.71622  -0.71084  -0.67471  -0.65392  -0.63704
 Alpha  occ. eigenvalues --   -0.60518  -0.58640  -0.56056  -0.54735  -0.52626
 Alpha  occ. eigenvalues --   -0.52037  -0.49973  -0.46902  -0.46389  -0.43124
 Alpha  occ. eigenvalues --   -0.41118  -0.39515  -0.39232  -0.37799  -0.36996
 Alpha  occ. eigenvalues --   -0.36500  -0.36244  -0.35085  -0.34487  -0.33836
 Alpha  occ. eigenvalues --   -0.33090  -0.32516  -0.31978  -0.30633  -0.30432
 Alpha  occ. eigenvalues --   -0.29512  -0.29056  -0.28930  -0.27985  -0.26742
 Alpha  occ. eigenvalues --   -0.25745  -0.24723  -0.23430  -0.23182  -0.22757
 Alpha  occ. eigenvalues --   -0.21164  -0.21105  -0.17734  -0.16149  -0.15501
 Alpha  occ. eigenvalues --   -0.15401  -0.14486  -0.11507   0.04248
 Alpha virt. eigenvalues --    0.05865   0.06157   0.06966   0.07539   0.07568
 Alpha virt. eigenvalues --    0.08130   0.08238   0.08375   0.08962   0.09335
 Alpha virt. eigenvalues --    0.09975   0.10484   0.10609   0.10719   0.11415

  Beta  occ. eigenvalues --  -14.23500 -14.23382 -14.19864 -14.19620 -14.19088
  Beta  occ. eigenvalues --  -10.17284 -10.15633 -10.11467 -10.11041 -10.11039
  Beta  occ. eigenvalues --  -10.09926 -10.09426 -10.08147 -10.07405 -10.07382
  Beta  occ. eigenvalues --  -10.07185 -10.07028 -10.06681 -10.06417 -10.05442
  Beta  occ. eigenvalues --   -0.90596  -0.85765  -0.83024  -0.81321  -0.77241
  Beta  occ. eigenvalues --   -0.71598  -0.70858  -0.67419  -0.65256  -0.63672
  Beta  occ. eigenvalues --   -0.60435  -0.58623  -0.56026  -0.54656  -0.52571
  Beta  occ. eigenvalues --   -0.51948  -0.49790  -0.46859  -0.46340  -0.43079
  Beta  occ. eigenvalues --   -0.41046  -0.39436  -0.39185  -0.37758  -0.36941
  Beta  occ. eigenvalues --   -0.36403  -0.36195  -0.35056  -0.34447  -0.33771
  Beta  occ. eigenvalues --   -0.33054  -0.32387  -0.31919  -0.30563  -0.30309
  Beta  occ. eigenvalues --   -0.29480  -0.29035  -0.28762  -0.27749  -0.26662
  Beta  occ. eigenvalues --   -0.25674  -0.24671  -0.23393  -0.23159  -0.22732
  Beta  occ. eigenvalues --   -0.21140  -0.21049  -0.17015  -0.15803  -0.15385
  Beta  occ. eigenvalues --   -0.15198  -0.14375  -0.11472
  Beta virt. eigenvalues --    0.06178   0.06980   0.07276   0.07582   0.07671
  Beta virt. eigenvalues --    0.07730   0.08413   0.08450   0.08648   0.09258
  Beta virt. eigenvalues --    0.09396   0.10013   0.10559   0.10659   0.11036

 Mulliken charges and spin densities:
               1          2
     1  C   -0.103401  -0.443219
     2  C    0.391252   0.161867
     3  C   -0.414746  -0.129859
     4  C   -0.283055  -0.070518
     5  C   -0.025389  -0.315025
     6  N   -0.111122  -0.045994
     7  C   -0.740112   0.178713
     8  N   -0.106903   0.030935
     9  C    1.122127  -1.287796
    10  C   -1.798221   1.876775
    11  C    1.604945  -1.734831
    12  N   -0.182316   0.011566
    13  N    0.067789   0.057815
    14  C    1.450040  -2.382830
    15  C   -0.548973   1.029766
    16  C   -0.110316   0.529740
    17  C   -1.037969  -0.005329
    18  N   -0.066016   0.087594
    19  C    0.056234  -0.494876
    20  C    0.056610   0.208746
    21  H    0.066552   0.075336
    22  H   -0.030744   0.083117
    23  H    0.142580  -0.042460
    24  H    0.172438  -0.048196
    25  H    0.092089   0.030918
    26  H    0.055638   0.074957
    27  H    0.157830   0.011275
    28  H    0.017531   0.130361
    29  H    0.078907   0.034752
    30  H   -0.370730   0.552341
    31  H    0.125076   0.064346
    32  H    0.216670   0.091106
    33  H    0.002778   0.168196
    34  H   -0.958689   1.127431
    35  H   -0.188779   0.470875
    36  H   -0.253984   0.416643
    37  H    0.244766   0.033140
    38  H    0.237719  -0.017634
    39  H    0.080635   0.060549
    40  H    0.075257   0.071890
    41  H   -0.183998   0.347818
 Sum of Mulliken charges =  -1.00000   1.00000

 Dipole moment (field-independent basis, Debye):
    X=             -0.1330    Y=             -4.3100    Z=              0.3559  Tot=              4.3267
 Quadrupole moment (field-independent basis, Debye-Ang):
   XX=           -185.1478   YY=           -182.0025   ZZ=           -150.7105
   XY=              2.8392   XZ=              4.5134   YZ=              2.8025

 Summary of Natural Population Analysis:

                                       Natural Population
                Natural  -----------------------------------------------
    Atom  No    Charge         Core      Valence    Rydberg      Total
 -----------------------------------------------------------------------
      C    1   -0.28558      0.99964     2.27910    0.00683     3.28558
      C    2   -0.12424      0.99961     2.11627    0.00836     3.12424
      C    3   -0.28167      0.99965     2.27749    0.00453     3.28167
      C    4   -0.18885      0.99961     2.18039    0.00886     3.18885
      C    5   -0.08951      0.99961     2.07897    0.01093     3.08951
      N    6   -0.30460      0.99965     2.79475    0.01020     3.80460
      C    7    0.30907      0.99960     1.67367    0.01766     2.69093
      N    8   -0.29386      0.99968     2.78390    0.01028     3.79386
      C    9    0.05211      0.99959     1.93358    0.01472     2.94789
      C   10   -0.18937      0.99951     2.18028    0.00958     3.18937
      C   11    0.22354      0.99954     1.76125    0.01567     2.77646
      N   12   -0.30429      0.99963     2.79599    0.00867     3.80429
      N   13   -0.29951      0.99967     2.78805    0.01179     3.79951
      C   14   -0.10050      0.99957     2.08856    0.01237     3.10050
      C   15    0.02353      0.99949     1.96654    0.01044     2.97647
      C   16   -0.12736      0.99950     2.11914    0.00872     3.12736
      C   17    0.03437      0.99959     1.95217    0.01387     2.96563
      N   18   -0.21727      0.99972     2.70541    0.01214     3.71727
      C   19    0.02198      0.99959     1.96413    0.01430     2.97802
      C   20   -0.12296      0.99950     2.11443    0.00903     3.12296
      H   21    0.09046      0.00000     0.40873    0.00081     0.40954
      H   22    0.09939      0.00000     0.39959    0.00102     0.40061
      H   23    0.10725      0.00000     0.39149    0.00125     0.39275
      H   24    0.10359      0.00000     0.39395    0.00246     0.39641
      H   25    0.09211      0.00000     0.40707    0.00082     0.40789
      H   26    0.09559      0.00000     0.40366    0.00075     0.40441
      H   27    0.10335      0.00000     0.39583    0.00082     0.39665
      H   28    0.09485      0.00000     0.40403    0.00112     0.40515
      H   29    0.09400      0.00000     0.40493    0.00107     0.40600
      H   30    0.09270      0.00000     0.40630    0.00100     0.40730
      H   31    0.10834      0.00000     0.38995    0.00171     0.39166
      H   32    0.19378      0.00000     0.30353    0.00269     0.30622
      H   33    0.08876      0.00000     0.41011    0.00113     0.41124
      H   34    0.10942      0.00000     0.38859    0.00199     0.39058
      H   35    0.19544      0.00000     0.29801    0.00655     0.30456
      H   36    0.10022      0.00000     0.39875    0.00102     0.39978
      H   37    0.11791      0.00000     0.38020    0.00189     0.38209
      H   38    0.10641      0.00000     0.39176    0.00183     0.39359
      H   39    0.08589      0.00000     0.41275    0.00136     0.41411
      H   40    0.08588      0.00000     0.41291    0.00121     0.41412
      H   41    0.09965      0.00000     0.39922    0.00113     0.40035
 =======================================================================
   * Total *    0.00000     19.99195    52.75546    0.25259    73.00000

 Normal termination of Gaussian 16 at Sat Dec 12 18:38:29 2020.
