 Gaussian 16, Revision A.03,

 -----------------------------------------------------------
 # opt freq B3LYP/6-31G(d) empiricaldispersion=gd3bj scf=xqc
 -----------------------------------------------------------

 -----------------------------
 CID_62106218_JID_841_neutraal
 -----------------------------
 Symbolic Z-matrix:
 Charge =  0 Multiplicity = 1

 SCF Done:  E(RB3LYP) =  -445.068113646     A.U. after   13 cycles
 SCF Done:  E(RB3LYP) =  -445.072494569     A.U. after   10 cycles
 SCF Done:  E(RB3LYP) =  -445.072975372     A.U. after   10 cycles
 SCF Done:  E(RB3LYP) =  -445.073300567     A.U. after   10 cycles
 SCF Done:  E(RB3LYP) =  -445.073811889     A.U. after   11 cycles
 SCF Done:  E(RB3LYP) =  -445.074224057     A.U. after   11 cycles
 SCF Done:  E(RB3LYP) =  -445.074909914     A.U. after   11 cycles
 SCF Done:  E(RB3LYP) =  -445.075121924     A.U. after   10 cycles
 SCF Done:  E(RB3LYP) =  -445.075219091     A.U. after   10 cycles
 SCF Done:  E(RB3LYP) =  -445.075265398     A.U. after   10 cycles
 SCF Done:  E(RB3LYP) =  -445.076945578     A.U. after    9 cycles
 SCF Done:  E(RB3LYP) =  -445.076946991     A.U. after    8 cycles
 SCF Done:  E(RB3LYP) =  -445.076948669     A.U. after    9 cycles
 SCF Done:  E(RB3LYP) =  -445.076949179     A.U. after    7 cycles
 SCF Done:  E(RB3LYP) =  -445.076949217     A.U. after    6 cycles
 SCF Done:  E(RB3LYP) =  -445.076949246     A.U. after    6 cycles
 Optimization completed.
    -- Stationary point found.
 Normal termination of Gaussian 16 at Tue Dec  8 13:28:38 2020.

 --------------------------------------------------------------------
 #N Geom=AllCheck Guess=TCheck SCRF=Check GenChk RB3LYP/6-31G(d) Freq
 --------------------------------------------------------------------

 Structure from the checkpoint file:  "JID_841.chk"
 -----------------------------
 CID_62106218_JID_841_neutraal
 -----------------------------
 Charge =  0 Multiplicity = 1

 SCF Done:  E(RB3LYP) =  -445.076949246     A.U. after    1 cycles

  Exact polarizability: 101.748   2.130  90.906  -2.031   0.234  83.124
 Approx polarizability: 126.985   1.226 127.814  -1.858   0.091 121.108

                      1                      2                      3
                      A                      A                      A
 Frequencies --     39.4349                49.1503               116.2535
 Red. masses --      2.6113                 2.3559                 1.6108
 Frc consts  --      0.0024                 0.0034                 0.0128
 IR Inten    --      0.5198                 0.9881                 0.8489

                      4                      5                      6
                      A                      A                      A
 Frequencies --    140.0403               195.9002               214.7683
 Red. masses --      1.9889                 1.7574                 1.6219
 Frc consts  --      0.0230                 0.0397                 0.0441
 IR Inten    --      0.1696                 0.8684                 1.4025

                      7                      8                      9
                      A                      A                      A
 Frequencies --    242.0967               262.7738               303.8402
 Red. masses --      2.3415                 1.7634                 2.0855
 Frc consts  --      0.0809                 0.0717                 0.1134
 IR Inten    --      0.5102                 2.8473                 6.6731

                     10                     11                     12
                      A                      A                      A
 Frequencies --    351.8105               375.3473               428.7639
 Red. masses --      2.3641                 2.3725                 2.1104
 Frc consts  --      0.1724                 0.1969                 0.2286
 IR Inten    --      2.8978                 3.6963                 5.4411

                     13                     14                     15
                      A                      A                      A
 Frequencies --    445.1138               507.6715               558.3042
 Red. masses --      3.7185                 2.5239                 2.1422
 Frc consts  --      0.4341                 0.3833                 0.3934
 IR Inten    --      3.9435                 5.0750                 2.9746

                     16                     17                     18
                      A                      A                      A
 Frequencies --    624.7935               702.1407               744.6759
 Red. masses --      2.1305                 1.5572                 2.2181
 Frc consts  --      0.4900                 0.4523                 0.7247
 IR Inten    --      5.5428                88.2064                60.8753

                     19                     20                     21
                      A                      A                      A
 Frequencies --    837.4618               842.3092               884.2694
 Red. masses --      2.0899                 1.9100                 1.8696
 Frc consts  --      0.8636                 0.7984                 0.8613
 IR Inten    --     13.1318                 3.6569                 0.8442

                     22                     23                     24
                      A                      A                      A
 Frequencies --    890.6705               919.5012               964.4306
 Red. masses --      2.1798                 2.4979                 1.9334
 Frc consts  --      1.0188                 1.2443                 1.0595
 IR Inten    --      5.3798                 0.5166                 7.2963

                     25                     26                     27
                      A                      A                      A
 Frequencies --    988.6676              1015.7364              1034.4275
 Red. masses --      1.9502                 1.4546                 2.2750
 Frc consts  --      1.1231                 0.8842                 1.4343
 IR Inten    --      3.4901                12.2705                 9.3520

                     28                     29                     30
                      A                      A                      A
 Frequencies --   1061.3106              1081.5389              1109.1475
 Red. masses --      1.4537                 1.7369                 2.4880
 Frc consts  --      0.9647                 1.1970                 1.8033
 IR Inten    --     12.6399                 8.2937                 9.3414

                     31                     32                     33
                      A                      A                      A
 Frequencies --   1130.4665              1169.3165              1178.6039
 Red. masses --      5.8179                 1.3952                 2.0971
 Frc consts  --      4.3806                 1.1239                 1.7163
 IR Inten    --    101.4725                 3.5196                37.6138

                     34                     35                     36
                      A                      A                      A
 Frequencies --   1191.0901              1201.1631              1221.8691
 Red. masses --      1.2802                 2.2507                 1.7407
 Frc consts  --      1.0701                 1.9132                 1.5311
 IR Inten    --      2.5058                15.2619                 4.3807

                     37                     38                     39
                      A                      A                      A
 Frequencies --   1243.3792              1260.3902              1264.9328
 Red. masses --      1.7977                 1.5533                 1.5101
 Frc consts  --      1.6375                 1.4538                 1.4236
 IR Inten    --     32.8144                 2.0470                 1.0508

                     40                     41                     42
                      A                      A                      A
 Frequencies --   1278.8610              1328.6819              1353.7805
 Red. masses --      1.5906                 1.3061                 1.4254
 Frc consts  --      1.5327                 1.3585                 1.5392
 IR Inten    --      9.3132                 2.1025                 0.6438

                     43                     44                     45
                      A                      A                      A
 Frequencies --   1362.2651              1366.7117              1379.9286
 Red. masses --      1.2747                 1.3174                 1.5012
 Frc consts  --      1.3937                 1.4498                 1.6842
 IR Inten    --      2.7493                 2.5826                 5.3600

                     46                     47                     48
                      A                      A                      A
 Frequencies --   1407.4890              1477.4849              1493.1882
 Red. masses --      1.2560                 1.1155                 1.1250
 Frc consts  --      1.4660                 1.4347                 1.4779
 IR Inten    --     11.2491                 0.2602                 3.8716

                     49                     50                     51
                      A                      A                      A
 Frequencies --   1499.6733              1505.8938              1514.1420
 Red. masses --      1.1359                 1.0800                 1.1310
 Frc consts  --      1.5052                 1.4431                 1.5277
 IR Inten    --      0.8252                 1.2826                 8.7887

                     52                     53                     54
                      A                      A                      A
 Frequencies --   1519.1074              1521.9538              1523.5520
 Red. masses --      1.0720                 1.1320                 1.0982
 Frc consts  --      1.4575                 1.5449                 1.5019
 IR Inten    --      4.6690                 2.2190                 2.5799

                     55                     56                     57
                      A                      A                      A
 Frequencies --   1534.7012              1540.7485              1546.3505
 Red. masses --      1.0647                 1.0675                 1.0980
 Frc consts  --      1.4775                 1.4930                 1.5470
 IR Inten    --     10.3154                 7.6717                 9.2954

                     58                     59                     60
                      A                      A                      A
 Frequencies --   1551.6688              3009.0809              3025.3010
 Red. masses --      1.0726                 1.0363                 1.0396
 Frc consts  --      1.5216                 5.5285                 5.6061
 IR Inten    --     14.9803                51.9392                87.3334

                     61                     62                     63
                      A                      A                      A
 Frequencies --   3032.4122              3041.8290              3047.5211
 Red. masses --      1.0578                 1.0694                 1.0652
 Frc consts  --      5.7309                 5.8298                 5.8286
 IR Inten    --      3.7156                21.9692                31.6269

                     64                     65                     66
                      A                      A                      A
 Frequencies --   3053.5598              3056.0783              3072.1675
 Red. masses --      1.0882                 1.0791                 1.0633
 Frc consts  --      5.9783                 5.9380                 5.9127
 IR Inten    --     22.9864                58.2496                36.6557

                     67                     68                     69
                      A                      A                      A
 Frequencies --   3079.7786              3081.6926              3095.3935
 Red. masses --      1.1032                 1.1011                 1.0959
 Frc consts  --      6.1652                 6.1609                 6.1867
 IR Inten    --     35.0209                47.5297                32.5570

                     70                     71                     72
                      A                      A                      A
 Frequencies --   3100.3668              3110.8686              3114.1590
 Red. masses --      1.0996                 1.1015                 1.1016
 Frc consts  --      6.2276                 6.2808                 6.2944
 IR Inten    --     40.1981                40.1260                33.0791

                     73                     74                     75
                      A                      A                      A
 Frequencies --   3115.8588              3130.5058              3512.1021
 Red. masses --      1.0989                 1.0976                 1.0735
 Frc consts  --      6.2860                 6.3378                 7.8014
 IR Inten    --     59.8549                29.8914                 2.4595

 - Thermochemistry -
 -------------------
 Temperature   298.150 Kelvin.  Pressure   1.00000 Atm.
 Atom     1 has atomic number  6 and mass  12.00000

 Molecular mass:   143.13101 amu.
 Principal axes and moments of inertia in atomic units:
                           1         2         3
     Eigenvalues --   920.529931829.387112201.64043
           X            0.99997   0.00504  -0.00499
           Y           -0.00508   0.99997  -0.00609
           Z            0.00496   0.00612   0.99997
 This molecule is an asymmetric top.
 Rotational symmetry number  1.
 Warning -- assumption of classical behavior for rotation
           may cause significant error
 Rotational temperatures (Kelvin)      0.09409     0.04735     0.03934
 Rotational constants (GHZ):           1.96055     0.98653     0.81973
 Zero-point vibrational energy     653032.0 (Joules/Mol)
                                  156.07839 (Kcal/Mol)
 Warning -- explicit consideration of  15 degrees of freedom as
           vibrations may cause significant error
 Vibrational temperatures:     56.74    70.72   167.26   201.49   281.86
          (Kelvin)            309.00   348.32   378.07   437.16   506.18
                              540.04   616.90   640.42   730.43   803.28
                              898.94  1010.22  1071.42  1204.92  1211.90
                             1272.27  1281.48  1322.96  1387.60  1422.47
                             1461.42  1488.31  1526.99  1556.09  1595.82
                             1626.49  1682.39  1695.75  1713.71  1728.21
                             1758.00  1788.95  1813.42  1819.96  1840.00
                             1911.68  1947.79  1960.00  1966.39  1985.41
                             2025.06  2125.77  2148.36  2157.70  2166.65
                             2178.51  2185.66  2189.75  2192.05  2208.09
                             2216.79  2224.85  2232.51  4329.40  4352.73
                             4362.96  4376.51  4384.70  4393.39  4397.02
                             4420.16  4431.11  4433.87  4453.58  4460.74
                             4475.85  4480.58  4483.03  4504.10  5053.13

 Zero-point correction=                           0.248727 (Hartree/Particle)
 Thermal correction to Energy=                    0.259900
 Thermal correction to Enthalpy=                  0.260844
 Thermal correction to Gibbs Free Energy=         0.211612
 Sum of electronic and zero-point Energies=           -444.828223
 Sum of electronic and thermal Energies=              -444.817050
 Sum of electronic and thermal Enthalpies=            -444.816105
 Sum of electronic and thermal Free Energies=         -444.865337

                     E (Thermal)             CV                S
                      KCal/Mol        Cal/Mol-Kelvin    Cal/Mol-Kelvin
 Total                  163.089             42.008            103.617
 Electronic               0.000              0.000              0.000
 Translational            0.889              2.981             40.787
 Rotational               0.889              2.981             29.696
 Vibrational            161.312             36.047             33.135
 Vibration     1          0.594              1.981              5.287
 Vibration     2          0.595              1.978              4.851
 Vibration     3          0.608              1.936              3.162
 Vibration     4          0.615              1.913              2.803
 Vibration     5          0.636              1.846              2.171
 Vibration     6          0.645              1.818              2.003
 Vibration     7          0.658              1.776              1.787
 Vibration     8          0.670              1.741              1.643
 Vibration     9          0.695              1.666              1.396
 Vibration    10          0.728              1.572              1.158
 Vibration    11          0.746              1.523              1.058
 Vibration    12          0.790              1.408              0.863
 Vibration    13          0.804              1.372              0.811
 Vibration    14          0.863              1.233              0.639
 Vibration    15          0.914              1.122              0.527

 Optimization completed.
    -- Stationary point found.
 Normal termination of Gaussian 16 at Tue Dec  8 13:35:52 2020.

 ----------------------------------------------------------------------
 # B3LYP/6-311++G(d,p) empiricaldispersion=gd3bj scf=xqc pop=npa geom=c
 heck
 ----------------------------------------------------------------------

 -------------------------------------
 CID_62106218_JID_841_Energie_neutraal
 -------------------------------------
 Structure from the checkpoint file:  "JID_841.chk"
 Charge =  0 Multiplicity = 1

 SCF Done:  E(RB3LYP) =  -445.207380969     A.U. after   13 cycles
 Normal termination of Gaussian 16 at Tue Dec  8 13:38:59 2020.

 ----------------------------------------------------------------------
 # B3LYP/6-311++G(d,p) empiricaldispersion=gd3bj scf=xqc pop=npa geom=c
 heck
 ----------------------------------------------------------------------

 -----------------------------------
 CID_62106218_JID_841_Energie_kation
 -----------------------------------
 Structure from the checkpoint file:  "JID_841.chk"
 Charge =  1 Multiplicity = 2

 SCF Done:  E(UB3LYP) =  -444.912852004     A.U. after   21 cycles
 Normal termination of Gaussian 16 at Tue Dec  8 13:49:57 2020.
 Gaussian 16:  ES64L-G16RevA.03 25-Dec-2016

 ----------------------------------------------------------------------
 # B3LYP/6-311++G(d,p) empiricaldispersion=gd3bj scf=xqc pop=npa geom=c
 heck
 ----------------------------------------------------------------------

 ----------------------------------
 CID_62106218_JID_841_Energie_anion
 ----------------------------------
 Structure from the checkpoint file:  "JID_841.chk"
 Charge = -1 Multiplicity = 2

                         Standard orientation:
 ---------------------------------------------------------------------
 Center     Atomic      Atomic             Coordinates (Angstroms)
 Number     Number       Type             X           Y           Z
 ---------------------------------------------------------------------
      1          6           0        3.088085    0.055382   -0.258124
      2          7           0        2.246886   -1.098452    0.046794
      3          6           0        1.043408   -0.864415    0.823645
      4          6           0       -0.101883   -0.010385    0.227516
      5          6           0       -0.634819   -0.592616   -1.114405
      6          6           0       -2.017904   -1.188694   -0.801042
      7          6           0       -2.563168   -0.268713    0.302656
      8          6           0       -1.330657   -0.029092    1.187701
      9          8           0        0.466314    1.300164    0.079440
     10          6           0       -0.391260    2.347614   -0.315654
     11          1           0        3.308919    0.585050    0.674884
     12          1           0        2.645458    0.785321   -0.949289
     13          1           0        4.037234   -0.302353   -0.674791
     14          1           0        2.027234   -1.608765   -0.804617
     15          1           0        0.618304   -1.846900    1.068721
     16          1           0        1.338432   -0.395536    1.771470
     17          1           0       -0.729564    0.209670   -1.852923
     18          1           0        0.056172   -1.324754   -1.545415
     19          1           0       -1.909651   -2.208459   -0.408242
     20          1           0       -2.667738   -1.246577   -1.680653
     21          1           0       -3.408367   -0.701182    0.848603
     22          1           0       -2.907145    0.675519   -0.139266
     23          1           0       -1.220488   -0.863018    1.892189
     24          1           0       -1.381335    0.882839    1.789325
     25          1           0       -0.851916    2.175810   -1.299498
     26          1           0       -1.194844    2.531584    0.411708
     27          1           0        0.229770    3.245110   -0.379034
 ---------------------------------------------------------------------

 SCF Done:  E(UB3LYP) =  -445.190159593     A.U. after   28 cycles

 The electronic state is 2-A.
 Alpha  occ. eigenvalues --  -19.01167 -14.18998 -10.11486 -10.09841 -10.08351
 Alpha  occ. eigenvalues --  -10.07525 -10.05520 -10.05395 -10.05373 -10.05218
 Alpha  occ. eigenvalues --   -0.92422  -0.79361  -0.72351  -0.63701  -0.60501
 Alpha  occ. eigenvalues --   -0.58211  -0.55379  -0.51810  -0.46699  -0.43736
 Alpha  occ. eigenvalues --   -0.40432  -0.38599  -0.36924  -0.34912  -0.34040
 Alpha  occ. eigenvalues --   -0.33475  -0.31170  -0.30057  -0.29492  -0.27390
 Alpha  occ. eigenvalues --   -0.26939  -0.25748  -0.24207  -0.23411  -0.22977
 Alpha  occ. eigenvalues --   -0.22771  -0.21537  -0.19972  -0.14642  -0.11366
 Alpha  occ. eigenvalues --    0.04897
 Alpha virt. eigenvalues --    0.07293   0.07520   0.08194   0.09365   0.09895
 Alpha virt. eigenvalues --    0.10206   0.10699   0.10834   0.11984   0.12605
 Alpha virt. eigenvalues --    0.13250   0.13736   0.14420   0.14586   0.15628

  Beta  occ. eigenvalues --  -19.01159 -14.18985 -10.11489 -10.09798 -10.08341
  Beta  occ. eigenvalues --  -10.07512 -10.05503 -10.05366 -10.05344 -10.05188
  Beta  occ. eigenvalues --   -0.92407  -0.79336  -0.72319  -0.63667  -0.60447
  Beta  occ. eigenvalues --   -0.58165  -0.55310  -0.51763  -0.46609  -0.43680
  Beta  occ. eigenvalues --   -0.40399  -0.38538  -0.36885  -0.34879  -0.34012
  Beta  occ. eigenvalues --   -0.33443  -0.31118  -0.30033  -0.29460  -0.27356
  Beta  occ. eigenvalues --   -0.26909  -0.25716  -0.24176  -0.23356  -0.22946
  Beta  occ. eigenvalues --   -0.22723  -0.21488  -0.19931  -0.14620  -0.11349
  Beta virt. eigenvalues --    0.07221   0.08170   0.08189   0.08963   0.09896
  Beta virt. eigenvalues --    0.10449   0.10666   0.11362   0.11407   0.12336
  Beta virt. eigenvalues --    0.12986   0.13725   0.14161   0.14684   0.15104

 Mulliken charges and spin densities:
               1          2
     1  C    0.090209  -0.450454
     2  N   -0.186120   0.145835
     3  C    0.375518  -1.231667
     4  C   -1.772311   2.007780
     5  C    0.715231  -0.682493
     6  C    0.639909  -1.262394
     7  C    0.188831  -0.273350
     8  C    0.259623  -0.820357
     9  O   -0.090278   0.030419
    10  C    1.350288  -1.594519
    11  H    0.008971   0.119445
    12  H   -0.059999   0.217660
    13  H   -0.020928   0.149722
    14  H   -0.002990   0.207203
    15  H   -0.057234   0.241127
    16  H    0.129363   0.050157
    17  H   -0.153596   0.291723
    18  H   -0.259032   0.359921
    19  H    0.059731   0.070622
    20  H   -0.657364   0.836873
    21  H   -0.636789   0.814287
    22  H    0.132921  -0.002878
    23  H   -0.035839   0.167111
    24  H   -0.042524   0.200193
    25  H   -0.506689   0.655461
    26  H   -0.410398   0.552327
    27  H   -0.058503   0.200247
 Sum of Mulliken charges =  -1.00000   1.00000

 Dipole moment (field-independent basis, Debye):
    X=              3.6915    Y=             -0.3795    Z=              2.2659  Tot=              4.3480
 Quadrupole moment (field-independent basis, Debye-Ang):
   XX=           -119.5717   YY=           -107.2223   ZZ=           -100.9380
   XY=              1.3290   XZ=             -1.6725   YZ=              1.2010

 Summary of Natural Population Analysis:

                                       Natural Population
                Natural  -----------------------------------------------
    Atom  No    Charge         Core      Valence    Rydberg      Total
 -----------------------------------------------------------------------
      C    1   -0.17587      0.99965     2.16909    0.00713     3.17587
      N    2   -0.34024      0.99975     2.82826    0.01223     3.84024
      C    3   -0.08465      0.99954     2.07270    0.01242     3.08465
      C    4    0.13543      0.99949     1.84671    0.01837     2.86457
      C    5   -0.20729      0.99958     2.19704    0.01067     3.20729
      C    6   -0.18937      0.99964     2.18138    0.00835     3.18937
      C    7   -0.19149      0.99964     2.18348    0.00837     3.19149
      C    8   -0.20664      0.99959     2.19731    0.00973     3.20664
      O    9   -0.31168      0.99987     3.29996    0.01185     4.31168
      C   10   -0.09840      0.99959     2.08912    0.00969     3.09840
      H   11    0.09001      0.00000     0.40879    0.00120     0.40999
      H   12    0.08922      0.00000     0.40889    0.00189     0.41078
      H   13    0.08526      0.00000     0.41362    0.00112     0.41474
      H   14    0.17105      0.00000     0.32543    0.00352     0.32895
      H   15    0.09444      0.00000     0.40414    0.00142     0.40556
      H   16    0.09368      0.00000     0.40493    0.00139     0.40632
      H   17    0.10500      0.00000     0.39306    0.00194     0.39500
      H   18    0.09807      0.00000     0.40013    0.00180     0.40193
      H   19    0.09208      0.00000     0.40616    0.00176     0.40792
      H   20    0.10204      0.00000     0.39627    0.00170     0.39796
      H   21    0.09982      0.00000     0.39869    0.00149     0.40018
      H   22    0.09556      0.00000     0.40226    0.00219     0.40444
      H   23    0.09905      0.00000     0.39957    0.00138     0.40095
      H   24    0.10550      0.00000     0.39347    0.00103     0.39450
      H   25    0.08057      0.00000     0.41744    0.00199     0.41943
      H   26    0.07925      0.00000     0.41902    0.00172     0.42075
      H   27    0.08959      0.00000     0.40930    0.00111     0.41041
 =======================================================================
   * Total *    0.00000      9.99634    29.86622    0.13744    40.00000

 Normal termination of Gaussian 16 at Tue Dec  8 13:57:42 2020.
