 Gaussian 16, Revision A.03,

 -----------------------------------------------------------
 # opt freq B3LYP/6-31G(d) empiricaldispersion=gd3bj scf=xqc
 -----------------------------------------------------------

 -------------------------------
 CID_115558845_JID_9600_neutraal
 -------------------------------
 Symbolic Z-matrix:
 Charge =  0 Multiplicity = 1

 SCF Done:  E(RB3LYP) =  -801.516445119     A.U. after   15 cycles
 SCF Done:  E(RB3LYP) =  -801.527144954     A.U. after   13 cycles
 SCF Done:  E(RB3LYP) =  -801.529551390     A.U. after   13 cycles
 SCF Done:  E(RB3LYP) =  -801.531388701     A.U. after   13 cycles
 SCF Done:  E(RB3LYP) =  -801.533024333     A.U. after   13 cycles
 SCF Done:  E(RB3LYP) =  -801.534106038     A.U. after   12 cycles
 SCF Done:  E(RB3LYP) =  -801.534928044     A.U. after   12 cycles
 SCF Done:  E(RB3LYP) =  -801.535388861     A.U. after   11 cycles
 SCF Done:  E(RB3LYP) =  -801.535997249     A.U. after   12 cycles
 SCF Done:  E(RB3LYP) =  -801.536624298     A.U. after   14 cycles
 SCF Done:  E(RB3LYP) =  -801.537895755     A.U. after    9 cycles
 SCF Done:  E(RB3LYP) =  -801.537895627     A.U. after    8 cycles
 SCF Done:  E(RB3LYP) =  -801.537896053     A.U. after    8 cycles
 SCF Done:  E(RB3LYP) =  -801.537896003     A.U. after    8 cycles
 SCF Done:  E(RB3LYP) =  -801.537896106     A.U. after    7 cycles
 Optimization completed.
    -- Stationary point found.
 Normal termination of Gaussian 16 at Sun Dec 13 12:57:27 2020.

 --------------------------------------------------------------------
 #N Geom=AllCheck Guess=TCheck SCRF=Check GenChk RB3LYP/6-31G(d) Freq
 --------------------------------------------------------------------

 Structure from the checkpoint file:  "JID_9600.chk"
 -------------------------------
 CID_115558845_JID_9600_neutraal
 -------------------------------
 Charge =  0 Multiplicity = 1

 SCF Done:  E(RB3LYP) =  -801.537896106     A.U. after    1 cycles

  Exact polarizability: 231.296  13.232 194.890  26.776 -11.027 116.838
 Approx polarizability: 338.200  25.632 344.902  63.307 -26.122 186.415

                      1                      2                      3
                      A                      A                      A
 Frequencies --     35.7309                42.0064                77.0910
 Red. masses --      4.0763                 4.3328                 2.8208
 Frc consts  --      0.0031                 0.0045                 0.0099
 IR Inten    --      1.1411                 0.5207                 1.3597

                      4                      5                      6
                      A                      A                      A
 Frequencies --     94.5033               129.6071               168.0003
 Red. masses --      4.1412                 3.9277                 4.4869
 Frc consts  --      0.0218                 0.0389                 0.0746
 IR Inten    --      0.4181                 0.9860                 3.2010

                      7                      8                      9
                      A                      A                      A
 Frequencies --    194.9432               225.6626               268.0468
 Red. masses --      6.1579                 2.4414                 2.8690
 Frc consts  --      0.1379                 0.0733                 0.1215
 IR Inten    --      2.6692                 0.2105                 6.8435

                     10                     11                     12
                      A                      A                      A
 Frequencies --    288.3291               292.1115               341.3142
 Red. masses --      2.2674                 1.2627                 4.2134
 Frc consts  --      0.1111                 0.0635                 0.2892
 IR Inten    --      3.5312                23.6221                 2.8483

                     13                     14                     15
                      A                      A                      A
 Frequencies --    364.9513               394.7088               397.8841
 Red. masses --      4.2651                 1.9748                 2.2955
 Frc consts  --      0.3347                 0.1813                 0.2141
 IR Inten    --      1.7312                 0.3935                 0.3710

                     16                     17                     18
                      A                      A                      A
 Frequencies --    439.4676               449.3558               476.2978
 Red. masses --      3.8696                 3.4961                 4.6215
 Frc consts  --      0.4403                 0.4159                 0.6177
 IR Inten    --      6.0177                 4.2088                 0.3921

                     19                     20                     21
                      A                      A                      A
 Frequencies --    526.8132               537.5377               552.0640
 Red. masses --      3.8327                 3.8276                 4.8121
 Frc consts  --      0.6267                 0.6516                 0.8641
 IR Inten    --      6.9488                38.2866                14.6916

                     22                     23                     24
                      A                      A                      A
 Frequencies --    575.8189               592.7727               604.7939
 Red. masses --      2.4108                 3.9872                 2.7699
 Frc consts  --      0.4710                 0.8255                 0.5969
 IR Inten    --      8.6324                 3.9449                37.4543

                     25                     26                     27
                      A                      A                      A
 Frequencies --    643.6087               682.4865               713.9108
 Red. masses --      1.6319                 5.4763                 5.7943
 Frc consts  --      0.3983                 1.5029                 1.7400
 IR Inten    --    316.9551                25.4388                16.7649

                     28                     29                     30
                      A                      A                      A
 Frequencies --    740.7705               772.6710               777.0560
 Red. masses --      4.8161                 2.4634                 3.9200
 Frc consts  --      1.5571                 0.8665                 1.3946
 IR Inten    --      7.1266                 5.4756                 1.7107

                     31                     32                     33
                      A                      A                      A
 Frequencies --    793.8591               803.9085               845.3111
 Red. masses --      3.1468                 2.9392                 3.2049
 Frc consts  --      1.1684                 1.1192                 1.3493
 IR Inten    --      0.0893                 1.1968                 3.0355

                     34                     35                     36
                      A                      A                      A
 Frequencies --    850.2509               865.8262               869.2678
 Red. masses --      1.9013                 1.9365                 1.9766
 Frc consts  --      0.8099                 0.8553                 0.8800
 IR Inten    --     50.0691                 8.7293                 3.3268

                     37                     38                     39
                      A                      A                      A
 Frequencies --    877.7597               888.4914               914.4869
 Red. masses --      3.1235                 1.9114                 2.3909
 Frc consts  --      1.4179                 0.8890                 1.1781
 IR Inten    --      2.8721                 0.5987                 1.0380

                     40                     41                     42
                      A                      A                      A
 Frequencies --    930.8002               966.9252               973.6819
 Red. masses --      5.1224                 1.3869                 1.3397
 Frc consts  --      2.6148                 0.7640                 0.7484
 IR Inten    --     24.7674                 0.7666                 1.6713

                     43                     44                     45
                      A                      A                      A
 Frequencies --    975.1023               985.3222               990.9247
 Red. masses --      2.6044                 2.0143                 2.1608
 Frc consts  --      1.4590                 1.1522                 1.2501
 IR Inten    --     27.8724                 2.0599                 8.7638

                     46                     47                     48
                      A                      A                      A
 Frequencies --   1004.5424              1021.6446              1060.8190
 Red. masses --      1.8527                 1.6340                 1.8817
 Frc consts  --      1.1015                 1.0048                 1.2476
 IR Inten    --      3.8098                 1.6527                 5.4940

                     49                     50                     51
                      A                      A                      A
 Frequencies --   1076.9590              1109.2644              1130.6300
 Red. masses --      1.9506                 2.1731                 1.5691
 Frc consts  --      1.3330                 1.5754                 1.1818
 IR Inten    --     18.5064                26.8660                 3.7364

                     52                     53                     54
                      A                      A                      A
 Frequencies --   1148.0517              1164.5107              1174.8985
 Red. masses --      1.9776                 1.3696                 2.0390
 Frc consts  --      1.5357                 1.0943                 1.6583
 IR Inten    --      8.3008                14.0708                 8.5967

                     55                     56                     57
                      A                      A                      A
 Frequencies --   1187.4462              1200.2640              1217.9110
 Red. masses --      1.6197                 1.4373                 1.6284
 Frc consts  --      1.3456                 1.2200                 1.4232
 IR Inten    --      4.6767                 2.4877                 6.4506

                     58                     59                     60
                      A                      A                      A
 Frequencies --   1236.1128              1249.2903              1283.7073
 Red. masses --      2.1375                 1.2758                 1.8614
 Frc consts  --      1.9243                 1.1732                 1.8073
 IR Inten    --      1.8761                 8.8500                22.8907

                     61                     62                     63
                      A                      A                      A
 Frequencies --   1291.7665              1300.0356              1306.5037
 Red. masses --      1.6185                 1.9010                 1.7220
 Frc consts  --      1.5912                 1.8930                 1.7318
 IR Inten    --      6.7628                21.8859                19.3624

                     64                     65                     66
                      A                      A                      A
 Frequencies --   1318.0241              1328.0017              1334.0040
 Red. masses --      1.4249                 1.4438                 2.5999
 Frc consts  --      1.4584                 1.5002                 2.7259
 IR Inten    --      0.2448                 1.2753                19.4176

                     67                     68                     69
                      A                      A                      A
 Frequencies --   1342.5961              1353.1701              1366.9029
 Red. masses --      1.3654                 1.3980                 1.3137
 Frc consts  --      1.4502                 1.5082                 1.4462
 IR Inten    --      0.3512                 2.1913                 1.7247

                     70                     71                     72
                      A                      A                      A
 Frequencies --   1375.3881              1381.1019              1393.4457
 Red. masses --      1.3691                 1.5100                 1.8600
 Frc consts  --      1.5259                 1.6969                 2.1279
 IR Inten    --     35.7258                 8.6603                51.8975

                     73                     74                     75
                      A                      A                      A
 Frequencies --   1404.5295              1410.5922              1451.0412
 Red. masses --      3.1724                 2.0715                 2.7200
 Frc consts  --      3.6872                 2.4285                 3.3742
 IR Inten    --     47.2186                 4.5550                 0.8294

                     76                     77                     78
                      A                      A                      A
 Frequencies --   1486.9339              1499.0075              1510.8139
 Red. masses --      2.7137                 2.1452                 1.1474
 Frc consts  --      3.5351                 2.8401                 1.5431
 IR Inten    --    162.0963               152.2080                19.4928

                     79                     80                     81
                      A                      A                      A
 Frequencies --   1523.4657              1526.9897              1537.8401
 Red. masses --      1.1127                 1.1749                 1.1867
 Frc consts  --      1.5216                 1.6141                 1.6535
 IR Inten    --      8.2566                75.0759                 7.4887

                     82                     83                     84
                      A                      A                      A
 Frequencies --   1546.5717              1569.6083              1594.8354
 Red. masses --      1.1792                 3.5228                 6.9428
 Frc consts  --      1.6617                 5.1135                10.4044
 IR Inten    --     17.2218               214.2664                74.9567

                     85                     86                     87
                      A                      A                      A
 Frequencies --   1617.2642              1680.8540              1699.6064
 Red. masses --      6.9373                 2.2588                 1.6672
 Frc consts  --     10.6907                 3.7600                 2.8374
 IR Inten    --    157.7134                 5.3645               134.2904

                     88                     89                     90
                      A                      A                      A
 Frequencies --   3027.3217              3034.0567              3043.2728
 Red. masses --      1.0737                 1.0727                 1.0646
 Frc consts  --      5.7979                 5.8182                 5.8090
 IR Inten    --     48.0175                52.0338                30.1065

                     91                     92                     93
                      A                      A                      A
 Frequencies --   3054.2197              3062.0000              3080.1780
 Red. masses --      1.0715                 1.0623                 1.0849
 Frc consts  --      5.8890                 5.8682                 6.0645
 IR Inten    --     23.8939                17.1963                35.8469

                     94                     95                     96
                      A                      A                      A
 Frequencies --   3090.8448              3094.8623              3107.1809
 Red. masses --      1.0984                 1.0876                 1.1014
 Frc consts  --      6.1823                 6.1375                 6.2650
 IR Inten    --     36.8700                77.3753                63.1636

                     97                     98                     99
                      A                      A                      A
 Frequencies --   3127.0335              3144.4629              3174.9991
 Red. masses --      1.0994                 1.0943                 1.0900
 Frc consts  --      6.3342                 6.3748                 6.4741
 IR Inten    --     24.7563                12.2870                46.9600

                    100                    101                    102
                      A                      A                      A
 Frequencies --   3179.8762              3186.4000              3211.2111
 Red. masses --      1.0891                 1.0914                 1.0891
 Frc consts  --      6.4881                 6.5290                 6.6170
 IR Inten    --     18.7313                 2.8470                10.6079

                    103                    104                    105
                      A                      A                      A
 Frequencies --   3220.7546              3545.6590              3644.0714
 Red. masses --      1.0934                 1.0480                 1.0979
 Frc consts  --      6.6826                 7.7623                 8.5897
 IR Inten    --      8.5012                14.8819                 7.8223

 - Thermochemistry -
 -------------------
 Temperature   298.150 Kelvin.  Pressure   1.00000 Atm.
 Atom     1 has atomic number  6 and mass  12.00000

 Molecular mass:   254.15315 amu.
 Principal axes and moments of inertia in atomic units:
                           1         2         3
     Eigenvalues --  2705.450086301.112037606.08957
           X            0.99996   0.00823  -0.00428
           Y           -0.00827   0.99992  -0.00936
           Z            0.00420   0.00939   0.99995
 This molecule is an asymmetric top.
 Rotational symmetry number  1.
 Warning -- assumption of classical behavior for rotation
           may cause significant error
 Rotational temperatures (Kelvin)      0.03201     0.01375     0.01139
 Rotational constants (GHZ):           0.66708     0.28642     0.23728
 Zero-point vibrational energy     833663.1 (Joules/Mol)
                                  199.25026 (Kcal/Mol)
 Warning -- explicit consideration of  24 degrees of freedom as
           vibrations may cause significant error
 Vibrational temperatures:     51.41    60.44   110.92   135.97   186.48
          (Kelvin)            241.72   280.48   324.68   385.66   414.84
                              420.28   491.07   525.08   567.90   572.47
                              632.30   646.52   685.29   757.97   773.40
                              794.30   828.47   852.87   870.16   926.01
                              981.95  1027.16  1065.80  1111.70  1118.01
                             1142.19  1156.65  1216.21  1223.32  1245.73
                             1250.68  1262.90  1278.34  1315.74  1339.21
                             1391.19  1400.91  1402.95  1417.66  1425.72
                             1445.31  1469.92  1526.28  1549.50  1595.98
                             1626.72  1651.79  1675.47  1690.42  1708.47
                             1726.91  1752.30  1778.49  1797.45  1846.97
                             1858.56  1870.46  1879.77  1896.34  1910.70
                             1919.33  1931.70  1946.91  1966.67  1978.88
                             1987.10  2004.86  2020.80  2029.53  2087.72
                             2139.37  2156.74  2173.72  2191.93  2197.00
                             2212.61  2225.17  2258.32  2294.61  2326.88
                             2418.37  2445.35  4355.64  4365.33  4378.59
                             4394.34  4405.53  4431.69  4447.04  4452.82
                             4470.54  4499.10  4524.18  4568.12  4575.13
                             4584.52  4620.22  4633.95  5101.41  5243.01

 Zero-point correction=                           0.317526 (Hartree/Particle)
 Thermal correction to Energy=                    0.332478
 Thermal correction to Enthalpy=                  0.333422
 Thermal correction to Gibbs Free Energy=         0.275094
 Sum of electronic and zero-point Energies=           -801.220371
 Sum of electronic and thermal Energies=              -801.205418
 Sum of electronic and thermal Enthalpies=            -801.204474
 Sum of electronic and thermal Free Energies=         -801.262802

                     E (Thermal)             CV                S
                      KCal/Mol        Cal/Mol-Kelvin    Cal/Mol-Kelvin
 Total                  208.633             61.760            122.762
 Electronic               0.000              0.000              0.000
 Translational            0.889              2.981             42.498
 Rotational               0.889              2.981             33.227
 Vibrational            206.856             55.798             47.037
 Vibration     1          0.594              1.982              5.483
 Vibration     2          0.595              1.980              5.162
 Vibration     3          0.599              1.964              3.964
 Vibration     4          0.603              1.953              3.565
 Vibration     5          0.612              1.924              2.952
 Vibration     6          0.625              1.882              2.458
 Vibration     7          0.636              1.847              2.180
 Vibration     8          0.650              1.802              1.913
 Vibration     9          0.673              1.732              1.609
 Vibration    10          0.685              1.695              1.484
 Vibration    11          0.687              1.688              1.462
 Vibration    12          0.721              1.593              1.206
 Vibration    13          0.738              1.544              1.101
 Vibration    14          0.762              1.481              0.982
 Vibration    15          0.764              1.475              0.970
 Vibration    16          0.800              1.384              0.828
 Vibration    17          0.808              1.362              0.798
 Vibration    18          0.833              1.303              0.720
 Vibration    19          0.882              1.191              0.594
 Vibration    20          0.893              1.167              0.571
 Vibration    21          0.907              1.135              0.540
 Vibration    22          0.932              1.084              0.493
 Vibration    23          0.950              1.047              0.462
 Vibration    24          0.963              1.022              0.441

 Optimization completed.
    -- Stationary point found.
 Normal termination of Gaussian 16 at Sun Dec 13 13:19:56 2020.

 ----------------------------------------------------------------------
 # B3LYP/6-311++G(d,p) empiricaldispersion=gd3bj scf=xqc pop=npa geom=c
 heck
 ----------------------------------------------------------------------

 ---------------------------------------
 CID_115558845_JID_9600_Energie_neutraal
 ---------------------------------------
 Structure from the checkpoint file:  "JID_9600.chk"
 Charge =  0 Multiplicity = 1

 SCF Done:  E(RB3LYP) =  -801.746306980     A.U. after   16 cycles
 Normal termination of Gaussian 16 at Sun Dec 13 13:30:24 2020.

 ----------------------------------------------------------------------
 # B3LYP/6-311++G(d,p) empiricaldispersion=gd3bj scf=xqc pop=npa geom=c
 heck
 ----------------------------------------------------------------------

 -------------------------------------
 CID_115558845_JID_9600_Energie_kation
 -------------------------------------
 Structure from the checkpoint file:  "JID_9600.chk"
 Charge =  1 Multiplicity = 2

 SCF Done:  E(UB3LYP) =  -801.485196329     A.U. after   21 cycles
 Normal termination of Gaussian 16 at Sun Dec 13 13:50:00 2020.
 Gaussian 16:  ES64L-G16RevA.03 25-Dec-2016

 ----------------------------------------------------------------------
 # B3LYP/6-311++G(d,p) empiricaldispersion=gd3bj scf=xqc pop=npa geom=c
 heck
 ----------------------------------------------------------------------

 ------------------------------------
 CID_115558845_JID_9600_Energie_anion
 ------------------------------------
 Structure from the checkpoint file:  "JID_9600.chk"
 Charge = -1 Multiplicity = 2

                         Standard orientation:
 ---------------------------------------------------------------------
 Center     Atomic      Atomic             Coordinates (Angstroms)
 Number     Number       Type             X           Y           Z
 ---------------------------------------------------------------------
      1          6           0        2.617878    0.194118   -1.749795
      2          6           0        3.422019    0.740105   -0.555806
      3          6           0        3.280433   -0.318662    0.576244
      4          6           0        2.268910    0.058433    1.665724
      5          7           0        0.963264   -0.339965    1.127719
      6          6           0        1.172791   -1.599062    0.390363
      7          6           0        2.648828   -1.578947   -0.103319
      8          6           0        2.774390   -1.327152   -1.616575
      9          6           0        0.064786    0.615629    0.704392
     10          7           0        0.442289    1.890575    0.721386
     11          6           0       -0.420059    2.811439    0.233698
     12          7           0       -1.602534    2.607129   -0.300265
     13          6           0       -2.044894    1.312711   -0.262358
     14          6           0       -1.269695    0.251816    0.287268
     15          6           0       -1.847545   -1.028402    0.443981
     16          6           0       -3.133090   -1.289892   -0.007606
     17          6           0       -3.870262   -0.246318   -0.629786
     18          6           0       -3.346151    1.018472   -0.740132
     19          7           0       -3.697770   -2.565848    0.087973
     20          1           0        2.969776    0.577733   -2.713111
     21          1           0        1.562859    0.477819   -1.655483
     22          1           0        4.478072    0.834310   -0.835410
     23          1           0        3.071943    1.725350   -0.237533
     24          1           0        4.254184   -0.541808    1.022625
     25          1           0        2.259436    1.116167    1.919519
     26          1           0        2.452074   -0.528782    2.576491
     27          1           0        0.468399   -1.670422   -0.438975
     28          1           0        1.000740   -2.455537    1.055068
     29          1           0        3.147471   -2.506105    0.194716
     30          1           0        2.046688   -1.898305   -2.204399
     31          1           0        3.774666   -1.627317   -1.955426
     32          1           0       -0.064788    3.840069    0.268078
     33          1           0       -1.295261   -1.812120    0.950586
     34          1           0       -4.870474   -0.457945   -1.000744
     35          1           0       -3.917511    1.831788   -1.175176
     36          1           0       -3.277130   -3.159206    0.792893
     37          1           0       -4.707927   -2.574641    0.160817
 ---------------------------------------------------------------------

 SCF Done:  E(UB3LYP) =  -801.746787880     A.U. after   33 cycles
 SCF Done:  E(UB3LYP) =  -801.746787880     a.u. after    1 cycles

 The electronic state is 2-A.
 Alpha  occ. eigenvalues --  -14.21247 -14.20456 -14.15710 -14.15461 -10.10188
 Alpha  occ. eigenvalues --  -10.08855 -10.08849 -10.08827 -10.07865 -10.06806
 Alpha  occ. eigenvalues --  -10.06680 -10.06395 -10.06256 -10.05752 -10.05462
 Alpha  occ. eigenvalues --  -10.05121 -10.03845 -10.03520 -10.03102  -0.85599
 Alpha  occ. eigenvalues --   -0.81765  -0.80888  -0.74524  -0.72338  -0.70115
 Alpha  occ. eigenvalues --   -0.64420  -0.63430  -0.61880  -0.60072  -0.57007
 Alpha  occ. eigenvalues --   -0.54220  -0.50749  -0.50078  -0.46414  -0.45907
 Alpha  occ. eigenvalues --   -0.44342  -0.41535  -0.41074  -0.40661  -0.39634
 Alpha  occ. eigenvalues --   -0.37717  -0.35922  -0.34328  -0.32666  -0.32394
 Alpha  occ. eigenvalues --   -0.31908  -0.31057  -0.30612  -0.29672  -0.28656
 Alpha  occ. eigenvalues --   -0.27820  -0.27142  -0.26384  -0.25397  -0.23634
 Alpha  occ. eigenvalues --   -0.23356  -0.22758  -0.22172  -0.21990  -0.21771
 Alpha  occ. eigenvalues --   -0.21230  -0.20023  -0.18052  -0.15710  -0.12985
 Alpha  occ. eigenvalues --   -0.11780  -0.11374  -0.07574   0.04287
 Alpha virt. eigenvalues --    0.06186   0.06772   0.08105   0.08526   0.09271
 Alpha virt. eigenvalues --    0.09497   0.10482   0.10800   0.10823   0.11139
 Alpha virt. eigenvalues --    0.11517   0.11706   0.13197   0.13388   0.13463

  Beta  occ. eigenvalues --  -14.21243 -14.20429 -14.15607 -14.15263 -10.09899
  Beta  occ. eigenvalues --  -10.08887 -10.08867 -10.08813 -10.07866 -10.06808
  Beta  occ. eigenvalues --  -10.06668 -10.06379 -10.06249 -10.05752 -10.05456
  Beta  occ. eigenvalues --  -10.05152 -10.03646 -10.03331 -10.02923  -0.85358
  Beta  occ. eigenvalues --   -0.81589  -0.80838  -0.74278  -0.72217  -0.69869
  Beta  occ. eigenvalues --   -0.64256  -0.63301  -0.61634  -0.59875  -0.56973
  Beta  occ. eigenvalues --   -0.53964  -0.50655  -0.49797  -0.46289  -0.45851
  Beta  occ. eigenvalues --   -0.44287  -0.41376  -0.40990  -0.40556  -0.39560
  Beta  occ. eigenvalues --   -0.37555  -0.35884  -0.34202  -0.32583  -0.32249
  Beta  occ. eigenvalues --   -0.31853  -0.30910  -0.30497  -0.29496  -0.28233
  Beta  occ. eigenvalues --   -0.27712  -0.27093  -0.26203  -0.25003  -0.23517
  Beta  occ. eigenvalues --   -0.23321  -0.22650  -0.22148  -0.21953  -0.21704
  Beta  occ. eigenvalues --   -0.21175  -0.19293  -0.17504  -0.15480  -0.11915
  Beta  occ. eigenvalues --   -0.11275  -0.11105  -0.06782
  Beta virt. eigenvalues --    0.06506   0.06868   0.08286   0.08684   0.08881
  Beta virt. eigenvalues --    0.09373   0.09567   0.10514   0.10784   0.10878
  Beta virt. eigenvalues --    0.11259   0.11592   0.11853   0.13214   0.13379

 Mulliken charges and spin densities:
               1          2
     1  C   -0.123526  -0.093071
     2  C   -0.358813  -0.145730
     3  C    0.715607  -0.536227
     4  C   -0.492212  -0.010415
     5  N    0.364970   0.009984
     6  C   -0.131829  -0.419757
     7  C    0.055183   0.255546
     8  C   -0.358827  -0.256867
     9  C   -0.424222   0.122049
    10  N   -0.179366   0.058146
    11  C    0.047204  -0.003529
    12  N   -0.091164   0.090245
    13  C   -0.444850  -0.004138
    14  C    0.358494  -0.016942
    15  C   -0.411875   0.122218
    16  C   -0.240066   0.008539
    17  C    0.036699   0.132900
    18  C   -0.351289   0.136046
    19  N   -0.319540  -0.012561
    20  H    0.152916   0.007958
    21  H    0.168814  -0.006218
    22  H    0.002034   0.131982
    23  H    0.152128  -0.003227
    24  H   -0.215355   0.436140
    25  H    0.196986  -0.003205
    26  H    0.047611   0.089862
    27  H    0.140188  -0.003996
    28  H    0.069897   0.072744
    29  H   -0.411124   0.649665
    30  H    0.084176   0.048603
    31  H    0.005976   0.128138
    32  H    0.160299  -0.001191
    33  H    0.179993  -0.031754
    34  H    0.092467   0.000408
    35  H    0.138460  -0.009999
    36  H    0.196178   0.021994
    37  H    0.187778   0.035662
 Sum of Mulliken charges =  -1.00000   1.00000

 Dipole moment (field-independent basis, Debye):
    X=             -0.8325    Y=             -2.1077    Z=              0.1590  Tot=              2.2718
 Quadrupole moment (field-independent basis, Debye-Ang):
   XX=           -166.6833   YY=           -147.2665   ZZ=           -131.7989
   XY=             17.3995   XZ=             -7.4004   YZ=             -1.7394

 Summary of Natural Population Analysis:

                                       Natural Population
                Natural  -----------------------------------------------
    Atom  No    Charge         Core      Valence    Rydberg      Total
 -----------------------------------------------------------------------
      C    1   -0.19662      0.99964     2.18928    0.00771     3.19662
      C    2   -0.19501      0.99963     2.18622    0.00916     3.19501
      C    3   -0.11367      0.99959     2.10308    0.01100     3.11367
      C    4   -0.08506      0.99961     2.07358    0.01187     3.08506
      N    5   -0.25446      0.99966     2.74363    0.01118     3.75446
      C    6   -0.08355      0.99961     2.07229    0.01165     3.08355
      C    7   -0.11469      0.99960     2.10378    0.01131     3.11469
      C    8   -0.18893      0.99962     2.18066    0.00865     3.18893
      C    9    0.27492      0.99949     1.71037    0.01522     2.72508
      N   10   -0.28243      0.99967     2.77212    0.01064     3.78243
      C   11    0.13113      0.99967     1.85046    0.01874     2.86887
      N   12   -0.23856      0.99969     2.72810    0.01078     3.73856
      C   13    0.08074      0.99948     1.90755    0.01222     2.91926
      C   14   -0.06717      0.99942     2.05782    0.00993     3.06717
      C   15   -0.09474      0.99951     2.08571    0.00952     3.09474
      C   16    0.06960      0.99949     1.92110    0.00981     2.93040
      C   17   -0.08046      0.99953     2.07258    0.00835     3.08046
      C   18   -0.06340      0.99954     2.05460    0.00926     3.06340
      N   19   -0.40238      0.99972     2.89226    0.01041     3.90238
      H   20    0.09481      0.00000     0.40436    0.00083     0.40519
      H   21    0.10378      0.00000     0.39493    0.00129     0.39622
      H   22    0.09248      0.00000     0.40653    0.00098     0.40752
      H   23    0.11021      0.00000     0.38875    0.00104     0.38979
      H   24    0.10123      0.00000     0.39735    0.00142     0.39877
      H   25    0.11594      0.00000     0.38280    0.00126     0.38406
      H   26    0.08903      0.00000     0.41008    0.00089     0.41097
      H   27    0.10633      0.00000     0.39250    0.00117     0.39367
      H   28    0.09024      0.00000     0.40869    0.00107     0.40976
      H   29    0.10205      0.00000     0.39597    0.00198     0.39795
      H   30    0.09779      0.00000     0.40145    0.00076     0.40221
      H   31    0.09410      0.00000     0.40489    0.00101     0.40590
      H   32    0.07246      0.00000     0.42631    0.00124     0.42754
      H   33    0.09348      0.00000     0.40460    0.00192     0.40652
      H   34    0.08715      0.00000     0.41137    0.00148     0.41285
      H   35    0.09552      0.00000     0.40255    0.00193     0.40448
      H   36    0.17958      0.00000     0.31894    0.00148     0.32042
      H   37    0.17859      0.00000     0.31956    0.00186     0.32141
 =======================================================================
   * Total *    0.00000     18.99216    48.77683    0.23100    68.00000

 Normal termination of Gaussian 16 at Sun Dec 13 14:19:58 2020.
