 Gaussian 16, Revision A.03,

 -----------------------------------------------------------
 # opt freq B3LYP/6-31G(d) empiricaldispersion=gd3bj scf=xqc
 -----------------------------------------------------------

 ------------------------------
 CID_85568051_JID_2837_neutraal
 ------------------------------
 Symbolic Z-matrix:
 Charge =  0 Multiplicity = 1

 SCF Done:  E(RB3LYP) =  -541.161138248     A.U. after   14 cycles
 SCF Done:  E(RB3LYP) =  -541.164143028     A.U. after   13 cycles
 SCF Done:  E(RB3LYP) =  -541.163459653     A.U. after   13 cycles
 SCF Done:  E(RB3LYP) =  -541.164554471     A.U. after   11 cycles
 SCF Done:  E(RB3LYP) =  -541.164753013     A.U. after   10 cycles
 SCF Done:  E(RB3LYP) =  -541.164841012     A.U. after   10 cycles
 SCF Done:  E(RB3LYP) =  -541.164895718     A.U. after   10 cycles
 SCF Done:  E(RB3LYP) =  -541.164925866     A.U. after   11 cycles
 SCF Done:  E(RB3LYP) =  -541.164935582     A.U. after    9 cycles
 SCF Done:  E(RB3LYP) =  -541.164938981     A.U. after    9 cycles
 SCF Done:  E(RB3LYP) =  -541.164939694     A.U. after    8 cycles
 SCF Done:  E(RB3LYP) =  -541.164940114     A.U. after    8 cycles
 SCF Done:  E(RB3LYP) =  -541.164940362     A.U. after    8 cycles
 SCF Done:  E(RB3LYP) =  -541.164940395     A.U. after    6 cycles
 SCF Done:  E(RB3LYP) =  -541.164940411     A.U. after    6 cycles
 Optimization completed.
    -- Stationary point found.
 Normal termination of Gaussian 16 at Wed Dec  9 18:10:02 2020.

 --------------------------------------------------------------------
 #N Geom=AllCheck Guess=TCheck SCRF=Check GenChk RB3LYP/6-31G(d) Freq
 --------------------------------------------------------------------

 Structure from the checkpoint file:  "JID_2837.chk"
 ------------------------------
 CID_85568051_JID_2837_neutraal
 ------------------------------
 Charge =  0 Multiplicity = 1

 SCF Done:  E(RB3LYP) =  -541.164940411     A.U. after    1 cycles

  Exact polarizability: 104.823   5.523 102.174  -2.393   0.347  97.415
 Approx polarizability: 141.478   4.440 142.623   0.987   2.221 154.258

                      1                      2                      3
                      A                      A                      A
 Frequencies --     47.0946                56.7909               110.6236
 Red. masses --      3.3412                 4.4180                 1.1343
 Frc consts  --      0.0044                 0.0084                 0.0082
 IR Inten    --      2.9154                 2.8272                 0.2685

                      4                      5                      6
                      A                      A                      A
 Frequencies --    116.7039               165.0056               190.9461
 Red. masses --      3.0863                 1.3954                 3.1586
 Frc consts  --      0.0248                 0.0224                 0.0679
 IR Inten    --      4.7223                 0.2543                 5.0321

                      7                      8                      9
                      A                      A                      A
 Frequencies --    229.1016               274.8726               348.5687
 Red. masses --      2.1088                 2.7423                 3.7914
 Frc consts  --      0.0652                 0.1221                 0.2714
 IR Inten    --      1.2971                 1.1110                 1.8578

                     10                     11                     12
                      A                      A                      A
 Frequencies --    355.4644               363.8850               407.5590
 Red. masses --      2.9082                 2.7443                 2.7956
 Frc consts  --      0.2165                 0.2141                 0.2736
 IR Inten    --      2.8994                 0.3393                 2.3869

                     13                     14                     15
                      A                      A                      A
 Frequencies --    458.7655               480.0079               554.5365
 Red. masses --      1.9140                 3.5387                 3.2166
 Frc consts  --      0.2373                 0.4804                 0.5828
 IR Inten    --      1.4006                 2.2767                 4.7644

                     16                     17                     18
                      A                      A                      A
 Frequencies --    588.7591               639.4404               733.7282
 Red. masses --      3.4713                 3.3446                 2.5242
 Frc consts  --      0.7090                 0.8057                 0.8007
 IR Inten    --      7.9893                 7.7001                 3.0106

                     19                     20                     21
                      A                      A                      A
 Frequencies --    738.6492               786.3991               808.5521
 Red. masses --      2.7404                 3.3725                 3.2462
 Frc consts  --      0.8809                 1.2288                 1.2504
 IR Inten    --      0.6331                 1.0500                 0.5958

                     22                     23                     24
                      A                      A                      A
 Frequencies --    869.0189               919.5864               935.2306
 Red. masses --      2.6925                 2.3699                 3.3333
 Frc consts  --      1.1980                 1.1808                 1.7177
 IR Inten    --      3.7632                 2.9923                 2.1423

                     25                     26                     27
                      A                      A                      A
 Frequencies --    945.9952               955.9277               965.9795
 Red. masses --      1.7333                 2.2310                 2.0690
 Frc consts  --      0.9139                 1.2012                 1.1375
 IR Inten    --      7.5349                 2.1279                12.6314

                     28                     29                     30
                      A                      A                      A
 Frequencies --    970.0609               995.6938              1009.3082
 Red. masses --      1.7953                 1.9201                 1.6557
 Frc consts  --      0.9954                 1.1216                 0.9937
 IR Inten    --      3.5550                 4.7738                 8.4479

                     31                     32                     33
                      A                      A                      A
 Frequencies --   1025.9619              1064.8506              1074.9311
 Red. masses --      2.0281                 2.2453                 1.8911
 Frc consts  --      1.2578                 1.5001                 1.2874
 IR Inten    --      1.8670                 3.4615                 4.1546

                     34                     35                     36
                      A                      A                      A
 Frequencies --   1105.2543              1137.2191              1158.9108
 Red. masses --      1.8584                 1.4329                 1.3124
 Frc consts  --      1.3375                 1.0918                 1.0385
 IR Inten    --     46.2390                17.2842                 4.4547

                     37                     38                     39
                      A                      A                      A
 Frequencies --   1166.2164              1184.1873              1187.8448
 Red. masses --      1.4172                 1.2975                 1.6763
 Frc consts  --      1.1356                 1.0720                 1.3936
 IR Inten    --     29.3980                 1.1995                19.2343

                     40                     41                     42
                      A                      A                      A
 Frequencies --   1211.7266              1218.3331              1247.6853
 Red. masses --      2.0373                 1.3343                 1.9556
 Frc consts  --      1.7625                 1.1669                 1.7937
 IR Inten    --     59.7727                 3.8072                65.4643

                     43                     44                     45
                      A                      A                      A
 Frequencies --   1274.9046              1284.7807              1292.6720
 Red. masses --      1.5406                 1.6250                 1.4902
 Frc consts  --      1.4753                 1.5803                 1.4672
 IR Inten    --     10.4068                11.3703                 4.6788

                     46                     47                     48
                      A                      A                      A
 Frequencies --   1301.5724              1339.1650              1351.9093
 Red. masses --      1.4324                 1.4786                 1.6477
 Frc consts  --      1.4297                 1.5623                 1.7743
 IR Inten    --      2.6327                 6.2386                 4.4392

                     49                     50                     51
                      A                      A                      A
 Frequencies --   1357.3327              1375.6470              1382.3396
 Red. masses --      1.4598                 1.6926                 1.4822
 Frc consts  --      1.5846                 1.8872                 1.6687
 IR Inten    --      4.9096                11.3677                 1.5495

                     52                     53                     54
                      A                      A                      A
 Frequencies --   1412.6150              1441.1028              1494.9924
 Red. masses --      1.3484                 1.1914                 1.0533
 Frc consts  --      1.5853                 1.4578                 1.3870
 IR Inten    --     42.2074                 8.0183                 8.4708

                     55                     56                     57
                      A                      A                      A
 Frequencies --   1504.8488              1505.0405              1525.4290
 Red. masses --      1.0755                 1.1127                 1.0638
 Frc consts  --      1.4350                 1.4850                 1.4585
 IR Inten    --      7.3582                 2.3930                 7.0883

                     58                     59                     60
                      A                      A                      A
 Frequencies --   1528.1107              1530.5200              1550.5706
 Red. masses --      1.0771                 1.0913                 1.0946
 Frc consts  --      1.4818                 1.5062                 1.5505
 IR Inten    --      5.1223                 1.0913                 1.9156

                     61                     62                     63
                      A                      A                      A
 Frequencies --   1556.0986              1800.3883              3007.2938
 Red. masses --      1.0619                10.9008                 1.0823
 Frc consts  --      1.5150                20.8181                 5.7671
 IR Inten    --     12.6966               128.4076                16.0478

                     64                     65                     66
                      A                      A                      A
 Frequencies --   3014.4642              3054.0521              3061.3277
 Red. masses --      1.0427                 1.0382                 1.0638
 Frc consts  --      5.5825                 5.7053                 5.8739
 IR Inten    --     60.2995                 2.2481                20.5272

                     67                     68                     69
                      A                      A                      A
 Frequencies --   3065.3897              3077.7131              3080.0802
 Red. masses --      1.0801                 1.0733                 1.0881
 Frc consts  --      5.9798                 5.9903                 6.0818
 IR Inten    --     28.8110                27.9070                29.9649

                     70                     71                     72
                      A                      A                      A
 Frequencies --   3086.2533              3108.3012              3113.3961
 Red. masses --      1.0778                 1.1069                 1.0978
 Frc consts  --      6.0483                 6.3008                 6.2698
 IR Inten    --     49.6958                43.3901                36.9128

                     73                     74                     75
                      A                      A                      A
 Frequencies --   3114.1128              3115.0430              3128.1053
 Red. masses --      1.0939                 1.0981                 1.0886
 Frc consts  --      6.2504                 6.2778                 6.2761
 IR Inten    --     70.0286                11.8209                30.1549

                     76                     77                     78
                      A                      A                      A
 Frequencies --   3164.0793              3167.2313              3171.7770
 Red. masses --      1.1022                 1.0914                 1.0912
 Frc consts  --      6.5015                 6.4502                 6.4679
 IR Inten    --     13.8057                12.6298                11.6730

 - Thermochemistry -
 -------------------
 Temperature   298.150 Kelvin.  Pressure   1.00000 Atm.
 Atom     1 has atomic number  6 and mass  12.00000

 Molecular mass:   168.11503 amu.
 Principal axes and moments of inertia in atomic units:
                           1         2         3
     Eigenvalues --  1430.944362068.853502513.39259
           X            0.99801   0.05025  -0.03801
           Y           -0.05068   0.99866  -0.01049
           Z            0.03743   0.01240   0.99922
 This molecule is an asymmetric top.
 Rotational symmetry number  1.
 Warning -- assumption of classical behavior for rotation
           may cause significant error
 Rotational temperatures (Kelvin)      0.06053     0.04187     0.03446
 Rotational constants (GHZ):           1.26122     0.87234     0.71805
 Zero-point vibrational energy     652826.3 (Joules/Mol)
                                  156.02923 (Kcal/Mol)
 Warning -- explicit consideration of  16 degrees of freedom as
           vibrations may cause significant error
 Vibrational temperatures:     67.76    81.71   159.16   167.91   237.41
          (Kelvin)            274.73   329.63   395.48   501.51   511.43
                              523.55   586.39   660.06   690.62   797.85
                              847.09   920.01  1055.67  1062.75  1131.45
                             1163.33  1250.32  1323.08  1345.59  1361.08
                             1375.37  1389.83  1395.70  1432.58  1452.17
                             1476.13  1532.08  1546.59  1590.21  1636.20
                             1667.41  1677.93  1703.78  1709.04  1743.40
                             1752.91  1795.14  1834.30  1848.51  1859.87
                             1872.67  1926.76  1945.10  1952.90  1979.25
                             1988.88  2032.44  2073.43  2150.96  2165.14
                             2165.42  2194.75  2198.61  2202.08  2230.93
                             2238.88  2590.36  4326.82  4337.14  4394.10
                             4404.57  4410.41  4428.14  4431.55  4440.43
                             4472.15  4479.48  4480.51  4481.85  4500.65
                             4552.40  4556.94  4563.48

 Zero-point correction=                           0.248648 (Hartree/Particle)
 Thermal correction to Energy=                    0.260233
 Thermal correction to Enthalpy=                  0.261177
 Thermal correction to Gibbs Free Energy=         0.210852
 Sum of electronic and zero-point Energies=           -540.916292
 Sum of electronic and thermal Energies=              -540.904708
 Sum of electronic and thermal Enthalpies=            -540.903764
 Sum of electronic and thermal Free Energies=         -540.954089

                     E (Thermal)             CV                S
                      KCal/Mol        Cal/Mol-Kelvin    Cal/Mol-Kelvin
 Total                  163.298             44.644            105.918
 Electronic               0.000              0.000              0.000
 Translational            0.889              2.981             41.266
 Rotational               0.889              2.981             30.388
 Vibrational            161.521             38.682             34.263
 Vibration     1          0.595              1.979              4.936
 Vibration     2          0.596              1.975              4.566
 Vibration     3          0.606              1.941              3.258
 Vibration     4          0.608              1.936              3.154
 Vibration     5          0.623              1.885              2.492
 Vibration     6          0.634              1.852              2.219
 Vibration     7          0.652              1.797              1.886
 Vibration     8          0.677              1.720              1.565
 Vibration     9          0.726              1.578              1.173
 Vibration    10          0.731              1.564              1.142
 Vibration    11          0.737              1.547              1.105
 Vibration    12          0.772              1.454              0.935
 Vibration    13          0.817              1.342              0.770
 Vibration    14          0.836              1.294              0.710
 Vibration    15          0.910              1.130              0.535
 Vibration    16          0.946              1.056              0.469

                           ! Non-Optimized Parameters !
 Normal termination of Gaussian 16 at Wed Dec  9 18:18:01 2020.

 ----------------------------------------------------------------------
 # B3LYP/6-311++G(d,p) empiricaldispersion=gd3bj scf=xqc pop=npa geom=c
 heck
 ----------------------------------------------------------------------

 --------------------------------------
 CID_85568051_JID_2837_Energie_neutraal
 --------------------------------------
 Structure from the checkpoint file:  "JID_2837.chk"
 Charge =  0 Multiplicity = 1

 SCF Done:  E(RB3LYP) =  -541.317937667     A.U. after   14 cycles
 Normal termination of Gaussian 16 at Wed Dec  9 18:21:15 2020.

 ----------------------------------------------------------------------
 # B3LYP/6-311++G(d,p) empiricaldispersion=gd3bj scf=xqc pop=npa geom=c
 heck
 ----------------------------------------------------------------------

 ------------------------------------
 CID_85568051_JID_2837_Energie_kation
 ------------------------------------
 Structure from the checkpoint file:  "JID_2837.chk"
 Charge =  1 Multiplicity = 2

 SCF Done:  E(UB3LYP) =  -540.999591148     A.U. after   20 cycles
 Normal termination of Gaussian 16 at Wed Dec  9 18:26:30 2020.
 Gaussian 16:  ES64L-G16RevA.03 25-Dec-2016

 ----------------------------------------------------------------------
 # B3LYP/6-311++G(d,p) empiricaldispersion=gd3bj scf=xqc pop=npa geom=c
 heck
 ----------------------------------------------------------------------

 -----------------------------------
 CID_85568051_JID_2837_Energie_anion
 -----------------------------------
 Structure from the checkpoint file:  "JID_2837.chk"
 Charge = -1 Multiplicity = 2

                         Standard orientation:
 ---------------------------------------------------------------------
 Center     Atomic      Atomic             Coordinates (Angstroms)
 Number     Number       Type             X           Y           Z
 ---------------------------------------------------------------------
      1          6           0        2.892145    0.568245   -0.794486
      2          6           0        1.986050   -0.075415    0.243476
      3          8           0        2.164385    0.113720    1.433944
      4          6           0        0.883329   -0.977403   -0.282883
      5          6           0        0.013578   -0.386594   -1.450884
      6          6           0       -1.430533   -0.630461   -0.963608
      7          6           0       -1.270285   -1.976031   -0.220161
      8          6           0       -0.174051   -1.454798    0.738598
      9          6           0       -0.887724   -0.245731    1.381755
     10          6           0       -1.808511    0.280952    0.233244
     11          8           0       -1.864125    1.686457    0.028264
     12          6           0       -0.679590    2.450546   -0.074021
     13          1           0        3.823574    0.885098   -0.320949
     14          1           0        2.396943    1.453350   -1.212999
     15          1           0        3.099884   -0.108848   -1.630128
     16          1           0        1.415633   -1.860400   -0.669103
     17          1           0        0.221411    0.662692   -1.655502
     18          1           0        0.192525   -0.931715   -2.383298
     19          1           0       -2.170161   -0.599645   -1.767869
     20          1           0       -2.179181   -2.297127    0.300604
     21          1           0       -0.932315   -2.789400   -0.872501
     22          1           0        0.223069   -2.168822    1.462685
     23          1           0       -0.186416    0.497880    1.757551
     24          1           0       -1.493690   -0.568492    2.234311
     25          1           0       -2.849787    0.050395    0.480806
     26          1           0        0.152669    2.039576    0.509247
     27          1           0       -0.353510    2.568286   -1.117416
     28          1           0       -0.909182    3.445890    0.320725
 ---------------------------------------------------------------------

 SCF Done:  E(UB3LYP) =  -541.306865190     A.U. after   32 cycles

 The electronic state is 2-A.
 Alpha  occ. eigenvalues --  -19.02128 -18.99512 -10.14155 -10.11385 -10.11229
 Alpha  occ. eigenvalues --  -10.06721 -10.06532 -10.06488 -10.06099 -10.05930
 Alpha  occ. eigenvalues --  -10.05687 -10.05447  -0.93033  -0.92881  -0.76627
 Alpha  occ. eigenvalues --   -0.66315  -0.62853  -0.62354  -0.59665  -0.57123
 Alpha  occ. eigenvalues --   -0.50762  -0.45972  -0.44604  -0.41214  -0.40428
 Alpha  occ. eigenvalues --   -0.39440  -0.37182  -0.35260  -0.34425  -0.32712
 Alpha  occ. eigenvalues --   -0.32391  -0.30588  -0.30109  -0.28804  -0.28426
 Alpha  occ. eigenvalues --   -0.27230  -0.25685  -0.24968  -0.24185  -0.23675
 Alpha  occ. eigenvalues --   -0.22197  -0.21651  -0.20682  -0.18486  -0.14790
 Alpha  occ. eigenvalues --   -0.13550   0.04670
 Alpha virt. eigenvalues --    0.07248   0.07389   0.08447   0.08755   0.09354
 Alpha virt. eigenvalues --    0.10180   0.10430   0.10987   0.11340   0.12400
 Alpha virt. eigenvalues --    0.12890   0.13408   0.13561   0.13955   0.15543

  Beta  occ. eigenvalues --  -19.02127 -18.99429 -10.14056 -10.11380 -10.11212
  Beta  occ. eigenvalues --  -10.06716 -10.06525 -10.06480 -10.06070 -10.05888
  Beta  occ. eigenvalues --  -10.05659 -10.05440  -0.93010  -0.92730  -0.76593
  Beta  occ. eigenvalues --   -0.66217  -0.62787  -0.62319  -0.59610  -0.57079
  Beta  occ. eigenvalues --   -0.50673  -0.45892  -0.44539  -0.41151  -0.40315
  Beta  occ. eigenvalues --   -0.39395  -0.37100  -0.35153  -0.34397  -0.32577
  Beta  occ. eigenvalues --   -0.32294  -0.30542  -0.30066  -0.28760  -0.28373
  Beta  occ. eigenvalues --   -0.27152  -0.25581  -0.24892  -0.24149  -0.23471
  Beta  occ. eigenvalues --   -0.22161  -0.21583  -0.20619  -0.18440  -0.14772
  Beta  occ. eigenvalues --   -0.13472
  Beta virt. eigenvalues --    0.07028   0.07861   0.08326   0.09081   0.09180
  Beta virt. eigenvalues --    0.09953   0.10642   0.10943   0.11508   0.11783
  Beta virt. eigenvalues --    0.12903   0.13334   0.13738   0.13984   0.14067

 Mulliken charges and spin densities:
               1          2
     1  C    1.005733  -1.566028
     2  C   -1.758960   1.633347
     3  O   -0.252363   0.012428
     4  C    1.612012  -1.489953
     5  C    0.944053  -1.516268
     6  C   -0.453126   0.970725
     7  C    0.111662  -0.901186
     8  C   -0.022876   0.498585
     9  C   -0.310792  -0.208268
    10  C    0.196713  -0.817222
    11  O   -0.148981   0.031607
    12  C   -0.043099  -0.269650
    13  H   -0.117646   0.276610
    14  H    0.037273   0.106409
    15  H   -0.512544   0.693991
    16  H   -0.312172   0.569872
    17  H    0.260496  -0.199763
    18  H   -0.605833   0.825943
    19  H   -0.230261   0.459672
    20  H   -0.237012   0.390100
    21  H   -0.446367   0.598550
    22  H   -0.123358   0.371070
    23  H    0.193042  -0.033590
    24  H   -0.013082   0.163404
    25  H    0.070315   0.127465
    26  H    0.129921   0.007145
    27  H   -0.070231   0.211327
    28  H    0.097483   0.053678
 Sum of Mulliken charges =  -1.00000   1.00000

 Dipole moment (field-independent basis, Debye):
    X=             -2.4391    Y=              4.5486    Z=              3.1591  Tot=              6.0513
 Quadrupole moment (field-independent basis, Debye-Ang):
   XX=           -123.5643   YY=           -113.0595   ZZ=           -116.1221
   XY=              3.7437   XZ=              3.2486   YZ=             -7.8319

 Summary of Natural Population Analysis:

                                       Natural Population
                Natural  -----------------------------------------------
    Atom  No    Charge         Core      Valence    Rydberg      Total
 -----------------------------------------------------------------------
      C    1   -0.33486      0.99962     2.32954    0.00570     3.33486
      C    2    0.30955      0.99963     1.66943    0.02138     2.69045
      O    3   -0.29062      0.99987     3.28458    0.00617     4.29062
      C    4   -0.16123      0.99953     2.14760    0.01410     3.16123
      C    5   -0.19151      0.99961     2.18144    0.01046     3.19151
      C    6   -0.12057      0.99958     2.10796    0.01303     3.12057
      C    7   -0.18881      0.99962     2.17975    0.00944     3.18881
      C    8   -0.10512      0.99960     2.09219    0.01334     3.10512
      C    9   -0.20988      0.99960     2.20126    0.00903     3.20988
      C   10    0.07254      0.99949     1.91211    0.01586     2.92746
      O   11   -0.30307      0.99987     3.29325    0.00995     4.30307
      C   12   -0.09811      0.99959     2.09048    0.00803     3.09811
      H   13    0.10796      0.00000     0.39106    0.00098     0.39204
      H   14    0.10802      0.00000     0.39090    0.00107     0.39198
      H   15    0.11284      0.00000     0.38432    0.00284     0.38716
      H   16    0.12376      0.00000     0.37085    0.00538     0.37624
      H   17    0.09875      0.00000     0.39907    0.00218     0.40125
      H   18    0.10900      0.00000     0.38760    0.00340     0.39100
      H   19    0.10313      0.00000     0.39578    0.00109     0.39687
      H   20    0.09835      0.00000     0.40033    0.00132     0.40165
      H   21    0.10547      0.00000     0.39261    0.00192     0.39453
      H   22    0.10618      0.00000     0.39289    0.00092     0.39382
      H   23    0.11061      0.00000     0.38812    0.00127     0.38939
      H   24    0.10037      0.00000     0.39871    0.00092     0.39963
      H   25    0.09057      0.00000     0.40785    0.00158     0.40943
      H   26    0.08579      0.00000     0.41304    0.00117     0.41421
      H   27    0.07699      0.00000     0.42169    0.00132     0.42301
      H   28    0.08390      0.00000     0.41510    0.00100     0.41610
 =======================================================================
   * Total *    0.00000     11.99562    33.83952    0.16486    46.00000

 Normal termination of Gaussian 16 at Wed Dec  9 18:34:39 2020.
