 Gaussian 16, Revision A.03,

 -----------------------------------------------------------
 # opt freq B3LYP/6-31G(d) empiricaldispersion=gd3bj scf=xqc
 -----------------------------------------------------------

 ------------------------------
 CID_138491847_JID_103_neutraal
 ------------------------------
 Symbolic Z-matrix:
 Charge =  0 Multiplicity = 1

 SCF Done:  E(RB3LYP) =  -456.297496643     A.U. after   15 cycles
 SCF Done:  E(RB3LYP) =  -456.298823902     A.U. after   14 cycles
 SCF Done:  E(RB3LYP) =  -456.300055008     A.U. after   14 cycles
 SCF Done:  E(RB3LYP) =  -456.301465738     A.U. after   12 cycles
 SCF Done:  E(RB3LYP) =  -456.301497031     A.U. after   11 cycles
 SCF Done:  E(RB3LYP) =  -456.301505211     A.U. after   10 cycles
 SCF Done:  E(RB3LYP) =  -456.301510382     A.U. after   11 cycles
 SCF Done:  E(RB3LYP) =  -456.301513934     A.U. after   11 cycles
 SCF Done:  E(RB3LYP) =  -456.301525531     A.U. after   12 cycles
 SCF Done:  E(RB3LYP) =  -456.301668522     A.U. after   15 cycles
 SCF Done:  E(RB3LYP) =  -456.310493956     A.U. after   12 cycles
 SCF Done:  E(RB3LYP) =  -456.310527416     A.U. after   12 cycles
 SCF Done:  E(RB3LYP) =  -456.310532463     A.U. after   11 cycles
 SCF Done:  E(RB3LYP) =  -456.310533367     A.U. after    8 cycles
 SCF Done:  E(RB3LYP) =  -456.310533495     A.U. after    8 cycles
 Optimization completed.
    -- Stationary point found.
 Normal termination of Gaussian 16 at Tue Dec  8 10:25:35 2020.

 --------------------------------------------------------------------
 #N Geom=AllCheck Guess=TCheck SCRF=Check GenChk RB3LYP/6-31G(d) Freq
 --------------------------------------------------------------------

 Structure from the checkpoint file:  "JID_103.chk"
 ------------------------------
 CID_138491847_JID_103_neutraal
 ------------------------------
 Charge =  0 Multiplicity = 1

 SCF Done:  E(RB3LYP) =  -456.310533495     A.U. after    1 cycles

  Exact polarizability: 114.376  -3.937  96.368  -8.315   0.516  46.140
 Approx polarizability: 177.520 -16.025 170.067 -17.627  -0.526  70.578

                      1                      2                      3
                      A                      A                      A
 Frequencies --     90.8211               126.0170               144.9598
 Red. masses --      6.3423                 3.2492                 3.7969
 Frc consts  --      0.0308                 0.0304                 0.0470
 IR Inten    --      1.1415                 3.9585                18.0386

                      4                      5                      6
                      A                      A                      A
 Frequencies --    211.2553               290.3072               312.1114
 Red. masses --      3.6677                 3.2436                 4.2488
 Frc consts  --      0.0964                 0.1611                 0.2439
 IR Inten    --      0.7369                 8.7168                10.8933

                      7                      8                      9
                      A                      A                      A
 Frequencies --    435.3860               445.5927               474.4087
 Red. masses --      3.2401                 1.1952                 2.9486
 Frc consts  --      0.3619                 0.1398                 0.3910
 IR Inten    --      0.1413                29.7021                 0.9578

                     10                     11                     12
                      A                      A                      A
 Frequencies --    533.8253               546.0762               578.2683
 Red. masses --      2.5331                 4.8767                 3.4039
 Frc consts  --      0.4253                 0.8568                 0.6706
 IR Inten    --     18.2272                12.0326                15.1020

                     13                     14                     15
                      A                      A                      A
 Frequencies --    598.7734               713.4549               746.5427
 Red. masses --      5.8818                 1.3097                 4.5277
 Frc consts  --      1.2425                 0.3928                 1.4867
 IR Inten    --      6.1583               287.3153                 1.0733

                     16                     17                     18
                      A                      A                      A
 Frequencies --    769.5412               814.0653               881.5643
 Red. masses --      2.8932                 1.6823                 4.2930
 Frc consts  --      1.0095                 0.6568                 1.9657
 IR Inten    --      2.4087                42.6937                12.7282

                     19                     20                     21
                      A                      A                      A
 Frequencies --    915.6502               925.2311               969.3346
 Red. masses --      1.3727                 2.2460                 1.2929
 Frc consts  --      0.6781                 1.1328                 0.7158
 IR Inten    --      1.4802                 6.3744                 0.5713

                     22                     23                     24
                      A                      A                      A
 Frequencies --    994.8389              1050.5003              1091.8209
 Red. masses --      2.0161                 2.2085                 2.4352
 Frc consts  --      1.1756                 1.4359                 1.7104
 IR Inten    --      8.2001                10.1415                 0.9105

                     25                     26                     27
                      A                      A                      A
 Frequencies --   1114.9338              1178.5500              1197.6006
 Red. masses --      1.7603                 1.2497                 1.4925
 Frc consts  --      1.2892                 1.0227                 1.2612
 IR Inten    --      2.6537                28.9585                29.8778

                     28                     29                     30
                      A                      A                      A
 Frequencies --   1249.4687              1288.8560              1310.4813
 Red. masses --      2.0466                 1.6637                 1.9294
 Frc consts  --      1.8825                 1.6283                 1.9522
 IR Inten    --      0.9512                 3.8901                50.3215

                     31                     32                     33
                      A                      A                      A
 Frequencies --   1347.4702              1360.9846              1427.8481
 Red. masses --      2.6065                 2.3210                 1.1909
 Frc consts  --      2.7883                 2.5330                 1.4305
 IR Inten    --     11.6988                20.7693                 7.6071

                     34                     35                     36
                      A                      A                      A
 Frequencies --   1492.8176              1500.9884              1512.8189
 Red. masses --      1.1275                 2.9894                 2.3802
 Frc consts  --      1.4804                 3.9682                 3.2095
 IR Inten    --     11.2852                76.4677                 8.6461

                     37                     38                     39
                      A                      A                      A
 Frequencies --   1627.1642              1644.8472              1723.6545
 Red. masses --      5.3532                 5.3576                 1.1735
 Frc consts  --      8.3508                 8.5402                 2.0542
 IR Inten    --      4.1518                 6.8067               102.8170

                     40                     41                     42
                      A                      A                      A
 Frequencies --   1798.9351              2956.7509              3065.5556
 Red. masses --      8.4270                 1.0864                 1.0621
 Frc consts  --     16.0677                 5.5956                 5.8805
 IR Inten    --    147.6283               105.5193                 9.8664

                     43                     44                     45
                      A                      A                      A
 Frequencies --   3146.0816              3178.3909              3184.1819
 Red. masses --      1.1027                 1.0875                 1.0903
 Frc consts  --      6.4305                 6.4730                 6.5129
 IR Inten    --      3.8352                 4.7457                28.4354

                     46                     47                     48
                      A                      A                      A
 Frequencies --   3211.1278              3499.2681              3625.3506
 Red. masses --      1.0966                 1.0542                 1.0935
 Frc consts  --      6.6619                 7.6059                 8.4677
 IR Inten    --     25.5526                89.2623                34.5850

 - Thermochemistry -
 -------------------
 Temperature   298.150 Kelvin.  Pressure   1.00000 Atm.
 Atom     1 has atomic number  6 and mass  12.00000

 Molecular mass:   136.06366 amu.
 Principal axes and moments of inertia in atomic units:
                           1         2         3
     Eigenvalues --   705.554411690.963982187.94008
           X            0.99982   0.01355  -0.01333
           Y           -0.01359   0.99990  -0.00274
           Z            0.01329   0.00293   0.99991
 This molecule is an asymmetric top.
 Rotational symmetry number  1.
 Warning -- assumption of classical behavior for rotation
           may cause significant error
 Rotational temperatures (Kelvin)      0.12276     0.05122     0.03959
 Rotational constants (GHZ):           2.55791     1.06729     0.82486
 Zero-point vibrational energy     378644.8 (Joules/Mol)
                                   90.49829 (Kcal/Mol)
 Warning -- explicit consideration of  13 degrees of freedom as
           vibrations may cause significant error
 Vibrational temperatures:    130.67   181.31   208.56   303.95   417.69
          (Kelvin)            449.06   626.42   641.11   682.57   768.06
                              785.68   832.00   861.50  1026.50  1074.11
                             1107.20  1171.26  1268.37  1317.42  1331.20
                             1394.66  1431.35  1511.44  1570.89  1604.14
                             1695.67  1723.08  1797.71  1854.38  1885.49
                             1938.71  1958.15  2054.35  2147.83  2159.59
                             2176.61  2341.13  2366.57  2479.95  2588.27
                             4254.11  4410.65  4526.51  4573.00  4581.33
                             4620.10  5034.67  5216.07

 Zero-point correction=                           0.144218 (Hartree/Particle)
 Thermal correction to Energy=                    0.152836
 Thermal correction to Enthalpy=                  0.153780
 Thermal correction to Gibbs Free Energy=         0.110663
 Sum of electronic and zero-point Energies=           -456.166315
 Sum of electronic and thermal Energies=              -456.157697
 Sum of electronic and thermal Enthalpies=            -456.156753
 Sum of electronic and thermal Free Energies=         -456.199870

                     E (Thermal)             CV                S
                      KCal/Mol        Cal/Mol-Kelvin    Cal/Mol-Kelvin
 Total                   95.906             33.063             90.747
 Electronic               0.000              0.000              0.000
 Translational            0.889              2.981             40.636
 Rotational               0.889              2.981             29.347
 Vibrational             94.129             27.102             20.764
 Vibration     1          0.602              1.956              3.642
 Vibration     2          0.611              1.927              3.006
 Vibration     3          0.616              1.908              2.737
 Vibration     4          0.643              1.824              2.033
 Vibration     5          0.686              1.692              1.472
 Vibration     6          0.700              1.651              1.351
 Vibration     7          0.796              1.393              0.841
 Vibration     8          0.805              1.371              0.809
 Vibration     9          0.831              1.307              0.725
 Vibration    10          0.889              1.175              0.579
 Vibration    11          0.901              1.148              0.552
 Vibration    12          0.935              1.078              0.489
 Vibration    13          0.957              1.034              0.452

 Optimization completed.
    -- Stationary point found.
 Normal termination of Gaussian 16 at Tue Dec  8 10:28:32 2020.

 ----------------------------------------------------------------------
 # B3LYP/6-311++G(d,p) empiricaldispersion=gd3bj scf=xqc pop=npa geom=c
 heck
 ----------------------------------------------------------------------

 --------------------------------------
 CID_138491847_JID_103_Energie_neutraal
 --------------------------------------
 Structure from the checkpoint file:  "JID_103.chk"
 Charge =  0 Multiplicity = 1

 SCF Done:  E(RB3LYP) =  -456.443570710     A.U. after   15 cycles
 Normal termination of Gaussian 16 at Tue Dec  8 10:29:32 2020.

 ----------------------------------------------------------------------
 # B3LYP/6-311++G(d,p) empiricaldispersion=gd3bj scf=xqc pop=npa geom=c
 heck
 ----------------------------------------------------------------------

 ------------------------------------
 CID_138491847_JID_103_Energie_kation
 ------------------------------------
 Structure from the checkpoint file:  "JID_103.chk"
 Charge =  1 Multiplicity = 2

 SCF Done:  E(UB3LYP) =  -456.146427214     A.U. after   23 cycles
 Normal termination of Gaussian 16 at Tue Dec  8 10:31:23 2020.
 Gaussian 16:  ES64L-G16RevA.03 25-Dec-2016

 ----------------------------------------------------------------------
 # B3LYP/6-311++G(d,p) empiricaldispersion=gd3bj scf=xqc pop=npa geom=c
 heck
 ----------------------------------------------------------------------

 -----------------------------------
 CID_138491847_JID_103_Energie_anion
 -----------------------------------
 Structure from the checkpoint file:  "JID_103.chk"
 Charge = -1 Multiplicity = 2

                         Standard orientation:
 ---------------------------------------------------------------------
 Center     Atomic      Atomic             Coordinates (Angstroms)
 Number     Number       Type             X           Y           Z
 ---------------------------------------------------------------------
      1          6           0        2.598755    0.201136   -0.346133
      2          6           0        1.666191    1.212539   -0.152177
      3          6           0        0.346150    0.881894    0.189177
      4          6           0        0.048929   -0.495605    0.342211
      5          7           0        0.944851   -1.463334    0.136322
      6          6           0        2.194132   -1.125803   -0.200670
      7          6           0       -1.348692   -0.926565    0.756684
      8          6           0       -2.273461   -0.765141   -0.430060
      9          8           0       -2.857711    0.269977   -0.694606
     10          7           0       -0.615023    1.852906    0.435768
     11          1           0        3.623670    0.438125   -0.615313
     12          1           0        1.945629    2.257219   -0.268287
     13          1           0        2.892209   -1.945625   -0.352121
     14          1           0       -1.301961   -1.973601    1.063939
     15          1           0       -1.714165   -0.302531    1.580903
     16          1           0       -2.352343   -1.639827   -1.107423
     17          1           0       -1.566558    1.603170    0.177537
     18          1           0       -0.365615    2.781523    0.118787
 ---------------------------------------------------------------------

 SCF Done:  E(UB3LYP) =  -456.439275355     A.U. after   33 cycles
 SCF Done:  E(UB3LYP) =  -456.439275355     a.u. after    1 cycles

 The electronic state is 2-A.
 Alpha  occ. eigenvalues --  -18.95138 -14.18671 -14.15927 -10.08277 -10.08173
 Alpha  occ. eigenvalues --  -10.06553 -10.05817 -10.03888 -10.03724 -10.03399
 Alpha  occ. eigenvalues --   -0.88738  -0.80976  -0.77651  -0.65804  -0.63430
 Alpha  occ. eigenvalues --   -0.57456  -0.49307  -0.48060  -0.42414  -0.39518
 Alpha  occ. eigenvalues --   -0.38268  -0.35101  -0.32819  -0.31693  -0.29719
 Alpha  occ. eigenvalues --   -0.29322  -0.26905  -0.25816  -0.24886  -0.23684
 Alpha  occ. eigenvalues --   -0.21142  -0.20063  -0.14394  -0.12113  -0.10962
 Alpha  occ. eigenvalues --   -0.07859   0.05635
 Alpha virt. eigenvalues --    0.07788   0.09027   0.10251   0.10769   0.11444
 Alpha virt. eigenvalues --    0.11689   0.12290   0.13081   0.14032   0.16099
 Alpha virt. eigenvalues --    0.16580   0.16844   0.17857   0.19249   0.19358

  Beta  occ. eigenvalues --  -18.94695 -14.18668 -14.15708 -10.08314 -10.07779
  Beta  occ. eigenvalues --  -10.06443 -10.05848 -10.03752 -10.03624 -10.03447
  Beta  occ. eigenvalues --   -0.87904  -0.80775  -0.77524  -0.65523  -0.63174
  Beta  occ. eigenvalues --   -0.57208  -0.49118  -0.47734  -0.41665  -0.39420
  Beta  occ. eigenvalues --   -0.38162  -0.34926  -0.32659  -0.31395  -0.29273
  Beta  occ. eigenvalues --   -0.29020  -0.26690  -0.25412  -0.24018  -0.23484
  Beta  occ. eigenvalues --   -0.19822  -0.19488  -0.13531  -0.11841  -0.10565
  Beta  occ. eigenvalues --   -0.07522
  Beta virt. eigenvalues --    0.08341   0.09360   0.10220   0.10881   0.11395
  Beta virt. eigenvalues --    0.11815   0.12456   0.12587   0.13640   0.14259
  Beta virt. eigenvalues --    0.16123   0.16696   0.16802   0.17774   0.19349

 Mulliken charges and spin densities:
               1          2
     1  C    0.935961  -0.950828
     2  C   -0.156910  -0.089449
     3  C   -0.334223   0.379330
     4  C   -0.285116   0.232752
     5  N   -0.042875   0.143674
     6  C   -0.252998   0.075009
     7  C    0.442063  -0.932541
     8  C   -0.183964   0.347330
     9  O   -0.355488   0.124927
    10  N   -0.368877   0.066210
    11  H   -0.353741   0.484506
    12  H   -0.606721   0.732466
    13  H   -0.032816   0.183812
    14  H    0.086604   0.047955
    15  H    0.052147   0.124152
    16  H    0.041508  -0.020270
    17  H    0.243504   0.003175
    18  H    0.171940   0.047790
 Sum of Mulliken charges =  -1.00000   1.00000

 Dipole moment (field-independent basis, Debye):
    X=             -0.6768    Y=             -0.1919    Z=              0.9909  Tot=              1.2152
 Quadrupole moment (field-independent basis, Debye-Ang):
   XX=           -101.8864   YY=            -78.7220   ZZ=            -75.0232
   XY=             -2.5488   XZ=             -0.8448   YZ=             -0.5076

 Summary of Natural Population Analysis:

                                       Natural Population
                Natural  -----------------------------------------------
    Atom  No    Charge         Core      Valence    Rydberg      Total
 -----------------------------------------------------------------------
      C    1   -0.10773      0.99957     2.09789    0.01028     3.10773
      C    2   -0.09321      0.99953     2.08291    0.01077     3.09321
      C    3    0.06355      0.99944     1.92575    0.01126     2.93645
      C    4    0.10531      0.99949     1.87927    0.01593     2.89469
      N    5   -0.21247      0.99967     2.70046    0.01233     3.71247
      C    6   -0.00450      0.99959     1.99038    0.01454     3.00450
      C    7   -0.25546      0.99959     2.24636    0.00950     3.25546
      C    8    0.27697      0.99975     1.70246    0.02082     2.72303
      O    9   -0.27065      0.99987     3.26348    0.00729     4.27065
      N   10   -0.40904      0.99971     2.89934    0.01000     3.90904
      H   11    0.09671      0.00000     0.40202    0.00127     0.40329
      H   12    0.09339      0.00000     0.40474    0.00188     0.40661
      H   13    0.08281      0.00000     0.41592    0.00126     0.41719
      H   14    0.10938      0.00000     0.38887    0.00175     0.39062
      H   15    0.10609      0.00000     0.39196    0.00195     0.39391
      H   16    0.03622      0.00000     0.46124    0.00254     0.46378
      H   17    0.20456      0.00000     0.29281    0.00262     0.29544
      H   18    0.17808      0.00000     0.32032    0.00160     0.32192
 =======================================================================
   * Total *    0.00000      9.99621    25.86618    0.13761    36.00000

 Normal termination of Gaussian 16 at Tue Dec  8 10:37:27 2020.
