 Gaussian 16, Revision A.03,

 -----------------------------------------------------------
 # opt freq B3LYP/6-31G(d) empiricaldispersion=gd3bj scf=xqc
 -----------------------------------------------------------

 -------------------------------
 CID_148887675_JID_1221_neutraal
 -------------------------------
 Symbolic Z-matrix:
 Charge =  0 Multiplicity = 1

 SCF Done:  E(RB3LYP) =  -447.264261481     A.U. after   13 cycles
 SCF Done:  E(RB3LYP) =  -447.272997737     A.U. after   11 cycles
 SCF Done:  E(RB3LYP) =  -447.273545313     A.U. after   11 cycles
 SCF Done:  E(RB3LYP) =  -447.274524132     A.U. after   11 cycles
 SCF Done:  E(RB3LYP) =  -447.274624587     A.U. after    9 cycles
 SCF Done:  E(RB3LYP) =  -447.274636409     A.U. after    8 cycles
 SCF Done:  E(RB3LYP) =  -447.274639454     A.U. after    8 cycles
 SCF Done:  E(RB3LYP) =  -447.274639977     A.U. after    6 cycles
 SCF Done:  E(RB3LYP) =  -447.274640293     A.U. after    6 cycles
 SCF Done:  E(RB3LYP) =  -447.274640407     A.U. after    6 cycles
 SCF Done:  E(RB3LYP) =  -447.274640453     A.U. after    6 cycles
 Optimization completed.
    -- Stationary point found.
 Normal termination of Gaussian 16 at Tue Dec  8 19:29:27 2020.

 --------------------------------------------------------------------
 #N Geom=AllCheck Guess=TCheck SCRF=Check GenChk RB3LYP/6-31G(d) Freq
 --------------------------------------------------------------------

 Structure from the checkpoint file:  "JID_1221.chk"
 -------------------------------
 CID_148887675_JID_1221_neutraal
 -------------------------------
 Charge =  0 Multiplicity = 1

 SCF Done:  E(RB3LYP) =  -447.274640453     A.U. after    1 cycles

  Exact polarizability: 115.937  -0.290 103.607   1.464   0.828  99.678
 Approx polarizability: 150.645   0.443 148.518   0.629   1.311 143.790

                      1                      2                      3
                      A                      A                      A
 Frequencies --     96.5907               140.4064               148.9278
 Red. masses --      2.5550                 1.3492                 2.1628
 Frc consts  --      0.0140                 0.0157                 0.0283
 IR Inten    --      1.0910                 0.0289                 0.4204

                      4                      5                      6
                      A                      A                      A
 Frequencies --    176.4926               183.9407               218.3593
 Red. masses --      1.7027                 2.1020                 1.9123
 Frc consts  --      0.0312                 0.0419                 0.0537
 IR Inten    --      1.2007                 0.4765                 0.2171

                      7                      8                      9
                      A                      A                      A
 Frequencies --    241.5141               272.1793               298.8590
 Red. masses --      1.8725                 1.8746                 2.6263
 Frc consts  --      0.0644                 0.0818                 0.1382
 IR Inten    --      0.0802                 2.8133                 0.0671

                     10                     11                     12
                      A                      A                      A
 Frequencies --    345.3988               364.7233               400.4679
 Red. masses --      2.1364                 2.8247                 3.5554
 Frc consts  --      0.1502                 0.2214                 0.3360
 IR Inten    --      0.7434                 0.2224                 0.7404

                     13                     14                     15
                      A                      A                      A
 Frequencies --    427.4128               495.1697               556.4130
 Red. masses --      2.3163                 2.8648                 2.0030
 Frc consts  --      0.2493                 0.4139                 0.3654
 IR Inten    --      0.7037                 2.6220                 0.8843

                     16                     17                     18
                      A                      A                      A
 Frequencies --    608.3490               699.0539               756.3997
 Red. masses --      2.5835                 2.7383                 1.8300
 Frc consts  --      0.5633                 0.7884                 0.6169
 IR Inten    --      2.7861                12.9965                55.5628

                     19                     20                     21
                      A                      A                      A
 Frequencies --    781.8964               803.7662               816.2913
 Red. masses --      1.6461                 2.5907                 1.8284
 Frc consts  --      0.5929                 0.9861                 0.7178
 IR Inten    --     12.1260                 0.5299                10.0336

                     22                     23                     24
                      A                      A                      A
 Frequencies --    861.8510               913.3344               922.7828
 Red. masses --      2.1767                 2.0286                 2.0036
 Frc consts  --      0.9526                 0.9970                 1.0052
 IR Inten    --     14.9448                 2.4297                 8.0513

                     25                     26                     27
                      A                      A                      A
 Frequencies --    923.8769               969.5066               983.0619
 Red. masses --      1.8749                 2.0916                 2.2090
 Frc consts  --      0.9429                 1.1583                 1.2578
 IR Inten    --      0.8445                 4.6968                 0.3103

                     28                     29                     30
                      A                      A                      A
 Frequencies --   1007.1033              1030.0672              1061.7553
 Red. masses --      1.6250                 2.0735                 1.7176
 Frc consts  --      0.9711                 1.2963                 1.1408
 IR Inten    --      4.0714                 1.4011                 0.0580

                     31                     32                     33
                      A                      A                      A
 Frequencies --   1073.0048              1096.5602              1126.8736
 Red. masses --      1.6914                 1.4893                 1.6417
 Frc consts  --      1.1473                 1.0551                 1.2283
 IR Inten    --      2.4369                 1.2922                 7.8539

                     34                     35                     36
                      A                      A                      A
 Frequencies --   1140.6931              1150.8264              1168.3665
 Red. masses --      1.6523                 2.2110                 1.3283
 Frc consts  --      1.2667                 1.7252                 1.0683
 IR Inten    --      2.3804                16.7995                 5.5958

                     37                     38                     39
                      A                      A                      A
 Frequencies --   1174.8946              1184.5923              1203.8300
 Red. masses --      1.5875                 2.3112                 1.7201
 Frc consts  --      1.2911                 1.9108                 1.4687
 IR Inten    --     20.4079                 3.7308                 1.2679

                     40                     41                     42
                      A                      A                      A
 Frequencies --   1224.2604              1243.1406              1255.4675
 Red. masses --      1.4751                 1.3393                 1.6608
 Frc consts  --      1.3026                 1.2194                 1.5423
 IR Inten    --      4.5717                 0.4232                 1.5253

                     43                     44                     45
                      A                      A                      A
 Frequencies --   1276.7745              1295.3263              1316.3125
 Red. masses --      1.8037                 1.5127                 1.2814
 Frc consts  --      1.7324                 1.4955                 1.3082
 IR Inten    --      6.7568                 5.1562                 1.1316

                     46                     47                     48
                      A                      A                      A
 Frequencies --   1336.1086              1351.6442              1362.3879
 Red. masses --      1.3584                 1.3790                 1.3120
 Frc consts  --      1.4288                 1.4843                 1.4348
 IR Inten    --      0.7058                 0.6828                 1.1152

                     49                     50                     51
                      A                      A                      A
 Frequencies --   1393.3469              1395.2019              1408.5743
 Red. masses --      1.3618                 1.3777                 1.3435
 Frc consts  --      1.5577                 1.5801                 1.5706
 IR Inten    --      0.1119                 4.0547                 3.6662

                     52                     53                     54
                      A                      A                      A
 Frequencies --   1414.2899              1420.0796              1432.4883
 Red. masses --      1.4329                 1.4522                 1.4247
 Frc consts  --      1.6887                 1.7255                 1.7225
 IR Inten    --      4.4375                 1.9519                 3.7722

                     55                     56                     57
                      A                      A                      A
 Frequencies --   1440.0166              1481.6695              1508.8835
 Red. masses --      1.2883                 1.1711                 1.1203
 Frc consts  --      1.5740                 1.5147                 1.5027
 IR Inten    --      5.3453                 1.3040                10.2470

                     58                     59                     60
                      A                      A                      A
 Frequencies --   1511.3693              1513.3863              1519.1568
 Red. masses --      1.1365                 1.0790                 1.0630
 Frc consts  --      1.5296                 1.4561                 1.4454
 IR Inten    --      8.2672                 5.2134                 3.6908

                     61                     62                     63
                      A                      A                      A
 Frequencies --   1520.8432              1532.3894              1537.6828
 Red. masses --      1.0758                 1.0733                 1.0825
 Frc consts  --      1.4661                 1.4850                 1.5080
 IR Inten    --      2.5357                 0.7638                 5.0098

                     64                     65                     66
                      A                      A                      A
 Frequencies --   1545.6262              1549.1979              2964.5149
 Red. masses --      1.0742                 1.0521                 1.0591
 Frc consts  --      1.5120                 1.4878                 5.4837
 IR Inten    --      4.3723                14.2573                67.6527

                     67                     68                     69
                      A                      A                      A
 Frequencies --   3012.6880              3015.6542              3027.6610
 Red. masses --      1.0706                 1.0770                 1.0624
 Frc consts  --      5.7251                 5.7707                 5.7377
 IR Inten    --      9.9113                26.0603                15.5713

                     70                     71                     72
                      A                      A                      A
 Frequencies --   3034.2664              3041.5465              3043.8695
 Red. masses --      1.0656                 1.0820                 1.0660
 Frc consts  --      5.7801                 5.8977                 5.8191
 IR Inten    --     13.7318                87.7216                27.9207

                     73                     74                     75
                      A                      A                      A
 Frequencies --   3046.5509              3054.0514              3054.9968
 Red. masses --      1.0572                 1.0891                 1.0910
 Frc consts  --      5.7814                 5.9853                 5.9994
 IR Inten    --     15.0015                86.0230                74.2575

                     76                     77                     78
                      A                      A                      A
 Frequencies --   3062.3087              3066.0495              3069.8546
 Red. masses --      1.0879                 1.0913                 1.0757
 Frc consts  --      6.0108                 6.0442                 5.9730
 IR Inten    --     27.2519                31.6702                38.7932

                     79                     80                     81
                      A                      A                      A
 Frequencies --   3073.8613              3093.3127              3097.2782
 Red. masses --      1.0975                 1.0965                 1.1012
 Frc consts  --      6.1095                 6.1817                 6.2240
 IR Inten    --     38.0356               103.8424                26.5688

                     82                     83                     84
                      A                      A                      A
 Frequencies --   3116.8592              3154.6304              3488.7529
 Red. masses --      1.1020                 1.0931                 1.0735
 Frc consts  --      6.3079                 6.4095                 7.6979
 IR Inten    --     37.4037                30.5907                 1.3944

 - Thermochemistry -
 -------------------
 Temperature   298.150 Kelvin.  Pressure   1.00000 Atm.
 Atom     1 has atomic number  6 and mass  12.00000

 Molecular mass:   153.15175 amu.
 Principal axes and moments of inertia in atomic units:
                           1         2         3
     Eigenvalues --  1183.400412114.584912244.36834
           X            0.99987   0.00895   0.01309
           Y           -0.00896   0.99996   0.00104
           Z           -0.01308  -0.00115   0.99991
 This molecule is an asymmetric top.
 Rotational symmetry number  1.
 Warning -- assumption of classical behavior for rotation
           may cause significant error
 Rotational temperatures (Kelvin)      0.07319     0.04096     0.03859
 Rotational constants (GHZ):           1.52505     0.85347     0.80412
 Zero-point vibrational energy     736480.5 (Joules/Mol)
                                  176.02306 (Kcal/Mol)
 Warning -- explicit consideration of  16 degrees of freedom as
           vibrations may cause significant error
 Vibrational temperatures:    138.97   202.01   214.27   253.93   264.65
          (Kelvin)            314.17   347.48   391.61   429.99   496.95
                              524.76   576.18   614.95   712.44   800.55
                              875.28  1005.78  1088.29  1124.97  1156.44
                             1174.46  1240.01  1314.08  1327.68  1329.25
                             1394.90  1414.41  1449.00  1482.04  1527.63
                             1543.81  1577.71  1621.32  1641.20  1655.78
                             1681.02  1690.41  1704.36  1732.04  1761.44
                             1788.60  1806.34  1836.99  1863.69  1893.88
                             1922.36  1944.71  1960.17  2004.72  2007.38
                             2026.62  2034.85  2043.18  2061.03  2071.86
                             2131.79  2170.95  2174.52  2177.43  2185.73
                             2188.15  2204.77  2212.38  2223.81  2228.95
                             4265.28  4334.59  4338.85  4356.13  4365.63
                             4376.11  4379.45  4383.31  4394.10  4395.46
                             4405.98  4411.36  4416.84  4422.60  4450.59
                             4456.29  4484.47  4538.81  5019.54

 Zero-point correction=                           0.280511 (Hartree/Particle)
 Thermal correction to Energy=                    0.291574
 Thermal correction to Enthalpy=                  0.292519
 Thermal correction to Gibbs Free Energy=         0.244812
 Sum of electronic and zero-point Energies=           -446.994130
 Sum of electronic and thermal Energies=              -446.983066
 Sum of electronic and thermal Enthalpies=            -446.982122
 Sum of electronic and thermal Free Energies=         -447.029829

                     E (Thermal)             CV                S
                      KCal/Mol        Cal/Mol-Kelvin    Cal/Mol-Kelvin
 Total                  182.966             44.146            100.407
 Electronic               0.000              0.000              0.000
 Translational            0.889              2.981             40.989
 Rotational               0.889              2.981             30.108
 Vibrational            181.188             38.184             29.310
 Vibration     1          0.603              1.952              3.522
 Vibration     2          0.615              1.913              2.798
 Vibration     3          0.618              1.904              2.686
 Vibration     4          0.628              1.871              2.365
 Vibration     5          0.631              1.862              2.288
 Vibration     6          0.646              1.813              1.973
 Vibration     7          0.658              1.777              1.792
 Vibration     8          0.675              1.725              1.582
 Vibration     9          0.692              1.676              1.423
 Vibration    10          0.724              1.585              1.187
 Vibration    11          0.738              1.545              1.102
 Vibration    12          0.766              1.469              0.961
 Vibration    13          0.789              1.411              0.867
 Vibration    14          0.851              1.261              0.670
 Vibration    15          0.912              1.126              0.531
 Vibration    16          0.967              1.014              0.436

 Optimization completed.
    -- Stationary point found.
 Normal termination of Gaussian 16 at Tue Dec  8 19:36:56 2020.

 ----------------------------------------------------------------------
 # B3LYP/6-311++G(d,p) empiricaldispersion=gd3bj scf=xqc pop=npa geom=c
 heck
 ----------------------------------------------------------------------

 ---------------------------------------
 CID_148887675_JID_1221_Energie_neutraal
 ---------------------------------------
 Structure from the checkpoint file:  "JID_1221.chk"
 Charge =  0 Multiplicity = 1

 SCF Done:  E(RB3LYP) =  -447.397822224     A.U. after   13 cycles
 Normal termination of Gaussian 16 at Tue Dec  8 19:40:04 2020.

 ----------------------------------------------------------------------
 # B3LYP/6-311++G(d,p) empiricaldispersion=gd3bj scf=xqc pop=npa geom=c
 heck
 ----------------------------------------------------------------------

 -------------------------------------
 CID_148887675_JID_1221_Energie_kation
 -------------------------------------
 Structure from the checkpoint file:  "JID_1221.chk"
 Charge =  1 Multiplicity = 2

 SCF Done:  E(UB3LYP) =  -447.102586559     A.U. after   17 cycles
 Normal termination of Gaussian 16 at Tue Dec  8 19:46:01 2020.
 Gaussian 16:  ES64L-G16RevA.03 25-Dec-2016

 ----------------------------------------------------------------------
 # B3LYP/6-311++G(d,p) empiricaldispersion=gd3bj scf=xqc pop=npa geom=c
 heck
 ----------------------------------------------------------------------

 ------------------------------------
 CID_148887675_JID_1221_Energie_anion
 ------------------------------------
 Structure from the checkpoint file:  "JID_1221.chk"
 Charge = -1 Multiplicity = 2

                         Standard orientation:
 ---------------------------------------------------------------------
 Center     Atomic      Atomic             Coordinates (Angstroms)
 Number     Number       Type             X           Y           Z
 ---------------------------------------------------------------------
      1          6           0        1.512408    2.153849   -0.395495
      2          6           0        0.211810    1.419308   -0.100134
      3          6           0       -0.338746    0.249603   -0.971601
      4          6           0        0.668790   -0.722987   -1.600726
      5          6           0        1.902435   -1.141753   -0.773001
      6          6           0        1.649615   -1.484219    0.701290
      7          6           0        1.238142   -0.305695    1.604167
      8          6           0        0.017077    0.514895    1.158040
      9          6           0       -1.021783   -0.294888    0.335190
     10          7           0       -2.392318    0.115881    0.600582
     11          6           0       -3.362846   -0.484510   -0.306553
     12          1           0        1.663826    2.966052    0.326483
     13          1           0        1.481324    2.604147   -1.395284
     14          1           0        2.393831    1.511938   -0.350495
     15          1           0       -0.577464    2.182900   -0.066988
     16          1           0       -1.044255    0.558794   -1.754006
     17          1           0        1.028559   -0.302496   -2.549456
     18          1           0        0.106531   -1.629524   -1.869588
     19          1           0        2.669809   -0.362151   -0.826819
     20          1           0        2.344811   -2.019168   -1.262854
     21          1           0        2.566587   -1.920782    1.118249
     22          1           0        0.891432   -2.275495    0.763778
     23          1           0        2.095134    0.370945    1.727708
     24          1           0        1.029449   -0.711591    2.602446
     25          1           0       -0.407035    1.029013    2.029098
     26          1           0       -0.990411   -1.384569    0.449199
     27          1           0       -2.464263    1.130625    0.551511
     28          1           0       -4.364716   -0.113666   -0.066419
     29          1           0       -3.174069   -0.296542   -1.378990
     30          1           0       -3.364261   -1.571218   -0.158710
 ---------------------------------------------------------------------

 SCF Done:  E(UB3LYP) =  -447.381472099     A.U. after   27 cycles

 The electronic state is 2-A.
 Alpha  occ. eigenvalues --  -14.19157 -10.08285 -10.08084 -10.06073 -10.06020
 Alpha  occ. eigenvalues --  -10.05945 -10.05905 -10.05683 -10.05644 -10.05638
 Alpha  occ. eigenvalues --  -10.04927  -0.80682  -0.73744  -0.67364  -0.64697
 Alpha  occ. eigenvalues --   -0.61765  -0.56694  -0.53411  -0.52701  -0.50248
 Alpha  occ. eigenvalues --   -0.43815  -0.41178  -0.38960  -0.36466  -0.35601
 Alpha  occ. eigenvalues --   -0.34404  -0.32794  -0.32165  -0.30867  -0.30412
 Alpha  occ. eigenvalues --   -0.29297  -0.28966  -0.27517  -0.26940  -0.25830
 Alpha  occ. eigenvalues --   -0.23123  -0.22486  -0.21592  -0.20609  -0.19633
 Alpha  occ. eigenvalues --   -0.18304  -0.17719  -0.11419   0.04666
 Alpha virt. eigenvalues --    0.06860   0.07239   0.07851   0.09092   0.09293
 Alpha virt. eigenvalues --    0.09795   0.10236   0.10515   0.11921   0.12343
 Alpha virt. eigenvalues --    0.12566   0.12930   0.13146   0.13405   0.14258

  Beta  occ. eigenvalues --  -14.19140 -10.08283 -10.08055 -10.06059 -10.06015
  Beta  occ. eigenvalues --  -10.05932 -10.05891 -10.05667 -10.05631 -10.05621
  Beta  occ. eigenvalues --  -10.04896  -0.80654  -0.73709  -0.67330  -0.64663
  Beta  occ. eigenvalues --   -0.61725  -0.56639  -0.53361  -0.52660  -0.50194
  Beta  occ. eigenvalues --   -0.43766  -0.41127  -0.38902  -0.36422  -0.35574
  Beta  occ. eigenvalues --   -0.34384  -0.32749  -0.32128  -0.30826  -0.30373
  Beta  occ. eigenvalues --   -0.29265  -0.28931  -0.27478  -0.26907  -0.25792
  Beta  occ. eigenvalues --   -0.23092  -0.22450  -0.21559  -0.20575  -0.19602
  Beta  occ. eigenvalues --   -0.18273  -0.17686  -0.11393
  Beta virt. eigenvalues --    0.06863   0.07697   0.08004   0.08460   0.09597
  Beta virt. eigenvalues --    0.09792   0.10390   0.10683   0.10961   0.12358
  Beta virt. eigenvalues --    0.12688   0.13026   0.13383   0.13463   0.13869

 Mulliken charges and spin densities:
               1          2
     1  C    1.602158  -2.284779
     2  C   -0.516066   0.485605
     3  C    0.331474  -0.000146
     4  C   -0.018974  -0.729445
     5  C    0.493300  -0.681006
     6  C   -0.617322   0.187495
     7  C    0.443819  -0.987446
     8  C   -0.307342   0.354221
     9  C   -0.690102   0.245890
    10  N   -0.050027  -0.007338
    11  C    0.689580  -1.002513
    12  H   -0.162214   0.302173
    13  H   -0.225471   0.372608
    14  H    0.015750   0.105155
    15  H   -0.520819   0.707812
    16  H   -0.176524   0.423952
    17  H   -0.227646   0.374080
    18  H    0.012064   0.135689
    19  H    0.026021   0.093806
    20  H   -0.378644   0.552917
    21  H   -0.332511   0.508340
    22  H   -0.092695   0.195459
    23  H   -0.168980   0.314008
    24  H    0.043061   0.111536
    25  H   -0.004378   0.219145
    26  H    0.354961  -0.118441
    27  H    0.122693   0.103801
    28  H   -0.315571   0.450492
    29  H   -0.179509   0.293665
    30  H   -0.150084   0.273265
 Sum of Mulliken charges =  -1.00000   1.00000

 Dipole moment (field-independent basis, Debye):
    X=              0.2430    Y=             -1.3455    Z=              1.6829  Tot=              2.1683
 Quadrupole moment (field-independent basis, Debye-Ang):
   XX=           -129.0234   YY=           -114.7754   ZZ=           -111.2841
   XY=              4.6550   XZ=             -0.8790   YZ=              0.5242

 Summary of Natural Population Analysis:

                                       Natural Population
                Natural  -----------------------------------------------
    Atom  No    Charge         Core      Valence    Rydberg      Total
 -----------------------------------------------------------------------
      C    1   -0.28783      0.99964     2.28265    0.00554     3.28783
      C    2   -0.10807      0.99958     2.09559    0.01291     3.10807
      C    3   -0.11219      0.99957     2.09945    0.01317     3.11219
      C    4   -0.19034      0.99961     2.18106    0.00967     3.19034
      C    5   -0.19004      0.99962     2.18234    0.00807     3.19004
      C    6   -0.19134      0.99962     2.18332    0.00840     3.19134
      C    7   -0.18911      0.99961     2.18072    0.00878     3.18911
      C    8   -0.10403      0.99957     2.09201    0.01246     3.10403
      C    9   -0.00278      0.99956     1.98960    0.01363     3.00278
      N   10   -0.33526      0.99973     2.82342    0.01210     3.83526
      C   11   -0.17844      0.99966     2.17073    0.00805     3.17844
      H   12    0.09933      0.00000     0.39963    0.00105     0.40067
      H   13    0.10194      0.00000     0.39697    0.00110     0.39806
      H   14    0.09628      0.00000     0.40241    0.00131     0.40372
      H   15    0.09684      0.00000     0.40098    0.00218     0.40316
      H   16    0.09986      0.00000     0.39835    0.00179     0.40014
      H   17    0.10075      0.00000     0.39806    0.00119     0.39925
      H   18    0.09543      0.00000     0.40313    0.00144     0.40457
      H   19    0.09265      0.00000     0.40574    0.00160     0.40735
      H   20    0.09863      0.00000     0.40001    0.00137     0.40137
      H   21    0.09915      0.00000     0.39968    0.00117     0.40085
      H   22    0.09163      0.00000     0.40699    0.00138     0.40837
      H   23    0.09676      0.00000     0.40199    0.00124     0.40324
      H   24    0.09876      0.00000     0.40020    0.00104     0.40124
      H   25    0.09820      0.00000     0.40016    0.00164     0.40180
      H   26    0.08833      0.00000     0.40972    0.00195     0.41167
      H   27    0.17126      0.00000     0.32501    0.00373     0.32874
      H   28    0.09339      0.00000     0.40564    0.00097     0.40661
      H   29    0.08139      0.00000     0.41691    0.00170     0.41861
      H   30    0.08884      0.00000     0.41003    0.00113     0.41116
 =======================================================================
   * Total *    0.00000     10.99575    31.86248    0.14176    43.00000

 Normal termination of Gaussian 16 at Tue Dec  8 19:55:49 2020.
