 Gaussian 16, Revision A.03,

 -----------------------------------------------------------
 # opt freq B3LYP/6-31G(d) empiricaldispersion=gd3bj scf=xqc
 -----------------------------------------------------------

 -------------------------------
 CID_131109919_JID_3048_neutraal
 -------------------------------
 Symbolic Z-matrix:
 Charge =  0 Multiplicity = 1

 SCF Done:  E(RB3LYP) =  -937.896579693     A.U. after   14 cycles
 SCF Done:  E(RB3LYP) =  -937.902288811     A.U. after   12 cycles
 SCF Done:  E(RB3LYP) =  -937.903240084     A.U. after   12 cycles
 SCF Done:  E(RB3LYP) =  -937.903740443     A.U. after   12 cycles
 SCF Done:  E(RB3LYP) =  -937.904187881     A.U. after   12 cycles
 SCF Done:  E(RB3LYP) =  -937.904549961     A.U. after   12 cycles
 SCF Done:  E(RB3LYP) =  -937.904985405     A.U. after   13 cycles
 SCF Done:  E(RB3LYP) =  -937.905394992     A.U. after   11 cycles
 SCF Done:  E(RB3LYP) =  -937.905636590     A.U. after   11 cycles
 SCF Done:  E(RB3LYP) =  -937.906618585     A.U. after   15 cycles
 SCF Done:  E(RB3LYP) =  -937.914338499     A.U. after   11 cycles
 SCF Done:  E(RB3LYP) =  -937.914104584     A.U. after   12 cycles
 SCF Done:  E(RB3LYP) =  -937.914340214     A.U. after   12 cycles
 SCF Done:  E(RB3LYP) =  -937.914304935     A.U. after   11 cycles
 SCF Done:  E(RB3LYP) =  -937.914340700     A.U. after   11 cycles
 SCF Done:  E(RB3LYP) =  -937.914340640     A.U. after    7 cycles
 Optimization completed.
    -- Stationary point found.
 Normal termination of Gaussian 16 at Wed Dec  9 23:01:27 2020.

 --------------------------------------------------------------------
 #N Geom=AllCheck Guess=TCheck SCRF=Check GenChk RB3LYP/6-31G(d) Freq
 --------------------------------------------------------------------

 Structure from the checkpoint file:  "JID_3048.chk"
 -------------------------------
 CID_131109919_JID_3048_neutraal
 -------------------------------
 Charge =  0 Multiplicity = 1

 SCF Done:  E(RB3LYP) =  -937.914340640     A.U. after    1 cycles

  Exact polarizability: 139.580   5.696 123.741   0.147  -4.029 115.657
 Approx polarizability: 187.553   6.619 178.175   5.995  -5.993 190.660

                      1                      2                      3
                      A                      A                      A
 Frequencies --     49.3521                70.0267                88.2179
 Red. masses --      3.7556                 3.1876                 5.2028
 Frc consts  --      0.0054                 0.0092                 0.0239
 IR Inten    --      0.3541                 0.4371                 2.6046

                      4                      5                      6
                      A                      A                      A
 Frequencies --    125.3838               146.1079               159.9528
 Red. masses --      2.7039                 2.1402                 2.6538
 Frc consts  --      0.0250                 0.0269                 0.0400
 IR Inten    --      3.2483                 0.8306                 2.4253

                      7                      8                      9
                      A                      A                      A
 Frequencies --    198.7463               232.3934               241.1357
 Red. masses --      3.2699                 3.4860                 1.7725
 Frc consts  --      0.0761                 0.1109                 0.0607
 IR Inten    --      2.3873                 6.1686                 0.5744

                     10                     11                     12
                      A                      A                      A
 Frequencies --    254.1808               279.1496               295.0432
 Red. masses --      1.9486                 3.2581                 2.6276
 Frc consts  --      0.0742                 0.1496                 0.1348
 IR Inten    --      0.0040                 0.8373                 4.0012

                     13                     14                     15
                      A                      A                      A
 Frequencies --    321.3910               356.3241               390.2381
 Red. masses --      3.8398                 2.4307                 3.3793
 Frc consts  --      0.2337                 0.1818                 0.3032
 IR Inten    --      8.7790                 1.9408                 4.7791

                     16                     17                     18
                      A                      A                      A
 Frequencies --    409.2284               447.6488               458.0236
 Red. masses --      1.0722                 2.5228                 3.3806
 Frc consts  --      0.1058                 0.2979                 0.4179
 IR Inten    --     53.8915                 7.5440                 5.8857

                     19                     20                     21
                      A                      A                      A
 Frequencies --    475.4843               505.9563               537.8365
 Red. masses --      1.6680                 1.8402                 3.1034
 Frc consts  --      0.2222                 0.2776                 0.5289
 IR Inten    --      0.1443                 0.6198                 4.9370

                     22                     23                     24
                      A                      A                      A
 Frequencies --    573.1860               624.8691               649.7070
 Red. masses --      3.8530                 2.5718                 3.5613
 Frc consts  --      0.7458                 0.5917                 0.8857
 IR Inten    --      1.7771                 3.7431                11.8109

                     25                     26                     27
                      A                      A                      A
 Frequencies --    734.2915               782.1142               823.6846
 Red. masses --      2.9875                 1.6315                 1.7140
 Frc consts  --      0.9491                 0.5880                 0.6851
 IR Inten    --      7.2436                 5.1854                 1.2005

                     28                     29                     30
                      A                      A                      A
 Frequencies --    837.3007               871.6186               903.6059
 Red. masses --      1.5635                 1.9314                 2.1107
 Frc consts  --      0.6458                 0.8645                 1.0154
 IR Inten    --      1.6748                 7.4431                17.2955

                     31                     32                     33
                      A                      A                      A
 Frequencies --    907.4693               926.5715               948.3764
 Red. masses --      2.0872                 1.5796                 1.7111
 Frc consts  --      1.0127                 0.7990                 0.9067
 IR Inten    --     20.8878               128.1551                24.3977

                     34                     35                     36
                      A                      A                      A
 Frequencies --    984.9812               996.4523              1013.7396
 Red. masses --      1.9650                 2.1787                 1.9391
 Frc consts  --      1.1233                 1.2745                 1.1741
 IR Inten    --     39.4135                 3.4137                15.6437

                     37                     38                     39
                      A                      A                      A
 Frequencies --   1036.6761              1060.0911              1070.5614
 Red. masses --      2.0259                 3.7498                 3.3422
 Frc consts  --      1.2828                 2.4828                 2.2568
 IR Inten    --     13.5506                38.7692                24.6787

                     40                     41                     42
                      A                      A                      A
 Frequencies --   1075.2734              1083.7023              1117.0333
 Red. masses --      1.3690                 2.2139                 1.6363
 Frc consts  --      0.9326                 1.5319                 1.2030
 IR Inten    --      0.7294                20.7635                23.8283

                     43                     44                     45
                      A                      A                      A
 Frequencies --   1141.1393              1161.5837              1201.7698
 Red. masses --      1.9924                 1.6025                 1.3181
 Frc consts  --      1.5286                 1.2739                 1.1216
 IR Inten    --     19.2458                28.5739                12.5341

                     46                     47                     48
                      A                      A                      A
 Frequencies --   1220.5039              1238.3062              1256.8286
 Red. masses --      2.0214                 1.3192                 1.2945
 Frc consts  --      1.7741                 1.1918                 1.2048
 IR Inten    --     15.5761                 3.1597                 4.3425

                     49                     50                     51
                      A                      A                      A
 Frequencies --   1264.6509              1284.3855              1301.8661
 Red. masses --      1.5759                 1.3153                 1.2249
 Frc consts  --      1.4850                 1.2784                 1.2231
 IR Inten    --      5.1940                10.7645                 1.9856

                     52                     53                     54
                      A                      A                      A
 Frequencies --   1322.9703              1342.9483              1370.2593
 Red. masses --      1.2477                 1.2860                 1.4432
 Frc consts  --      1.2867                 1.3666                 1.5966
 IR Inten    --      2.1320                 2.9349                18.6084

                     55                     56                     57
                      A                      A                      A
 Frequencies --   1376.6651              1389.7732              1391.5458
 Red. masses --      1.4496                 1.4090                 1.3423
 Frc consts  --      1.6187                 1.6034                 1.5314
 IR Inten    --     13.9704                 9.2213                 3.1812

                     58                     59                     60
                      A                      A                      A
 Frequencies --   1409.1428              1417.7741              1422.3182
 Red. masses --      1.2881                 1.3244                 1.3844
 Frc consts  --      1.5070                 1.5685                 1.6501
 IR Inten    --     30.0561                20.5070                17.6790

                     61                     62                     63
                      A                      A                      A
 Frequencies --   1439.7988              1442.9815              1453.8907
 Red. masses --      1.2542                 1.3985                 1.3330
 Frc consts  --      1.5318                 1.7157                 1.6602
 IR Inten    --      9.2093                 7.9492                 5.1226

                     64                     65                     66
                      A                      A                      A
 Frequencies --   1479.3440              1489.1080              1499.0251
 Red. masses --      1.0936                 1.0941                 1.0842
 Frc consts  --      1.4100                 1.4294                 1.4354
 IR Inten    --      5.5111                 5.2592                 6.2867

                     67                     68                     69
                      A                      A                      A
 Frequencies --   1505.0694              1506.5639              1522.4003
 Red. masses --      1.0831                 1.0842                 1.1132
 Frc consts  --      1.4455                 1.4499                 1.5201
 IR Inten    --      6.6260                 5.4637                12.4747

                     70                     71                     72
                      A                      A                      A
 Frequencies --   1529.9311              1534.6852              1541.4961
 Red. masses --      1.0532                 1.0589                 1.0784
 Frc consts  --      1.4524                 1.4694                 1.5097
 IR Inten    --      1.3371                11.1593                 3.2550

                     73                     74                     75
                      A                      A                      A
 Frequencies --   1716.7822              2921.9471              2984.4202
 Red. masses --      1.0840                 1.0734                 1.0646
 Frc consts  --      1.8823                 5.3996                 5.5870
 IR Inten    --     15.9513                90.2294                45.0430

                     76                     77                     78
                      A                      A                      A
 Frequencies --   2987.9526              3009.4564              3040.2545
 Red. masses --      1.0781                 1.0646                 1.0539
 Frc consts  --      5.6711                 5.6810                 5.7392
 IR Inten    --     38.0380               102.8358                15.3175

                     79                     80                     81
                      A                      A                      A
 Frequencies --   3042.1927              3044.4049              3048.7587
 Red. masses --      1.0883                 1.0679                 1.0924
 Frc consts  --      5.9343                 5.8316                 5.9823
 IR Inten    --     14.2500                49.3545                63.3752

                     82                     83                     84
                      A                      A                      A
 Frequencies --   3058.8842              3068.0268              3068.8102
 Red. masses --      1.0652                 1.0600                 1.0642
 Frc consts  --      5.8722                 5.8787                 5.9047
 IR Inten    --     26.5997                24.9995                10.0630

                     85                     86                     87
                      A                      A                      A
 Frequencies --   3090.9586              3098.3142              3109.6348
 Red. masses --      1.0989                 1.0885                 1.1000
 Frc consts  --      6.1860                 6.1566                 6.2669
 IR Inten    --      6.3699                29.0873                42.2011

                     88                     89                     90
                      A                      A                      A
 Frequencies --   3110.6794              3115.0923              3121.3353
 Red. masses --      1.0956                 1.1019                 1.1048
 Frc consts  --      6.2460                 6.3001                 6.3418
 IR Inten    --      9.9332                70.2328                11.8481

                     91                     92                     93
                      A                      A                      A
 Frequencies --   3131.6339              3427.3036              3524.8089
 Red. masses --      1.0998                 1.0503                 1.0923
 Frc consts  --      6.3547                 7.2691                 7.9956
 IR Inten    --      3.5373                45.0505                22.4281

 - Thermochemistry -
 -------------------
 Temperature   298.150 Kelvin.  Pressure   1.00000 Atm.
 Atom     1 has atomic number  6 and mass  12.00000

 Molecular mass:   204.12964 amu.
 Principal axes and moments of inertia in atomic units:
                           1         2         3
     Eigenvalues --  1847.547543254.860343562.03257
           X            0.99897   0.04540  -0.00069
           Y           -0.04529   0.99530  -0.08562
           Z           -0.00320   0.08556   0.99633
 This molecule is an asymmetric top.
 Rotational symmetry number  1.
 Warning -- assumption of classical behavior for rotation
           may cause significant error
 Rotational temperatures (Kelvin)      0.04688     0.02661     0.02432
 Rotational constants (GHZ):           0.97683     0.55448     0.50666
 Zero-point vibrational energy     779029.1 (Joules/Mol)
                                  186.19244 (Kcal/Mol)
 Warning -- explicit consideration of  22 degrees of freedom as
           vibrations may cause significant error
 Vibrational temperatures:     71.01   100.75   126.93   180.40   210.22
          (Kelvin)            230.14   285.95   334.36   346.94   365.71
                              401.63   424.50   462.41   512.67   561.47
                              588.79   644.07   658.99   684.12   727.96
                              773.83   824.69   899.05   934.78  1056.48
                             1125.29  1185.10  1204.69  1254.06  1300.09
                             1305.65  1333.13  1364.50  1417.17  1433.67
                             1458.55  1491.55  1525.23  1540.30  1547.08
                             1559.21  1607.16  1641.84  1671.26  1729.08
                             1756.03  1781.65  1808.30  1819.55  1847.94
                             1873.10  1903.46  1932.20  1971.50  1980.71
                             1999.57  2002.12  2027.44  2039.86  2046.40
                             2071.55  2076.13  2091.82  2128.45  2142.49
                             2156.76  2165.46  2167.61  2190.39  2201.23
                             2208.07  2217.87  2470.07  4204.03  4293.91
                             4299.00  4329.94  4374.25  4377.04  4380.22
                             4386.48  4401.05  4414.21  4415.33  4447.20
                             4457.78  4474.07  4475.57  4481.92  4490.91
                             4505.72  4931.13  5071.41

 Zero-point correction=                           0.296717 (Hartree/Particle)
 Thermal correction to Energy=                    0.310967
 Thermal correction to Enthalpy=                  0.311912
 Thermal correction to Gibbs Free Energy=         0.256416
 Sum of electronic and zero-point Energies=           -937.617624
 Sum of electronic and thermal Energies=              -937.603373
 Sum of electronic and thermal Enthalpies=            -937.602429
 Sum of electronic and thermal Free Energies=         -937.657925

                     E (Thermal)             CV                S
                      KCal/Mol        Cal/Mol-Kelvin    Cal/Mol-Kelvin
 Total                  195.135             55.407            116.801
 Electronic               0.000              0.000              0.000
 Translational            0.889              2.981             41.845
 Rotational               0.889              2.981             31.438
 Vibrational            193.358             49.445             43.518
 Vibration     1          0.595              1.978              4.843
 Vibration     2          0.598              1.968              4.153
 Vibration     3          0.601              1.957              3.699
 Vibration     4          0.610              1.928              3.016
 Vibration     5          0.617              1.907              2.722
 Vibration     6          0.622              1.891              2.550
 Vibration     7          0.637              1.842              2.145
 Vibration     8          0.653              1.791              1.860
 Vibration     9          0.658              1.777              1.794
 Vibration    10          0.665              1.756              1.701
 Vibration    11          0.679              1.712              1.539
 Vibration    12          0.689              1.683              1.445
 Vibration    13          0.707              1.633              1.303
 Vibration    14          0.732              1.562              1.138
 Vibration    15          0.758              1.491              0.999
 Vibration    16          0.774              1.450              0.929
 Vibration    17          0.807              1.366              0.803
 Vibration    18          0.816              1.343              0.772
 Vibration    19          0.832              1.304              0.722
 Vibration    20          0.861              1.237              0.643
 Vibration    21          0.893              1.166              0.570
 Vibration    22          0.929              1.089              0.498

                           ! Non-Optimized Parameters !
 Normal termination of Gaussian 16 at Wed Dec  9 23:11:58 2020.

 ----------------------------------------------------------------------
 # B3LYP/6-311++G(d,p) empiricaldispersion=gd3bj scf=xqc pop=npa geom=c
 heck
 ----------------------------------------------------------------------

 ---------------------------------------
 CID_131109919_JID_3048_Energie_neutraal
 ---------------------------------------
 Structure from the checkpoint file:  "JID_3048.chk"
 Charge =  0 Multiplicity = 1

 SCF Done:  E(RB3LYP) =  -938.103038665     A.U. after   14 cycles
 Normal termination of Gaussian 16 at Wed Dec  9 23:16:15 2020.

 ----------------------------------------------------------------------
 # B3LYP/6-311++G(d,p) empiricaldispersion=gd3bj scf=xqc pop=npa geom=c
 heck
 ----------------------------------------------------------------------

 -------------------------------------
 CID_131109919_JID_3048_Energie_kation
 -------------------------------------
 Structure from the checkpoint file:  "JID_3048.chk"
 Charge =  1 Multiplicity = 2

 SCF Done:  E(UB3LYP) =  -937.833205226     A.U. after   23 cycles
 Normal termination of Gaussian 16 at Wed Dec  9 23:25:30 2020.
 Gaussian 16:  ES64L-G16RevA.03 25-Dec-2016

 ----------------------------------------------------------------------
 # B3LYP/6-311++G(d,p) empiricaldispersion=gd3bj scf=xqc pop=npa geom=c
 heck
 ----------------------------------------------------------------------

 ------------------------------------
 CID_131109919_JID_3048_Energie_anion
 ------------------------------------
 Structure from the checkpoint file:  "JID_3048.chk"
 Charge = -1 Multiplicity = 2

                         Standard orientation:
 ---------------------------------------------------------------------
 Center     Atomic      Atomic             Coordinates (Angstroms)
 Number     Number       Type             X           Y           Z
 ---------------------------------------------------------------------
      1          6           0       -3.248414   -1.318359    0.570825
      2          6           0       -2.460875   -0.739276   -0.606256
      3          6           0       -2.196378    0.771624   -0.537112
      4          6           0       -1.488489    1.243748    0.758124
      5          7           0       -0.089131    0.854017    0.865770
      6          6           0        0.935361    1.864032    0.675982
      7          6           0        2.032190    1.470288   -0.320015
      8          6           0        2.762215    0.171353    0.009928
      9         16           0        1.787508   -1.340715   -0.464570
     10          8           0        0.902248   -0.952535   -1.638472
     11          6           0        0.738346   -1.515392    1.050993
     12          6           0        0.275064   -0.226528    1.749976
     13          7           0       -1.490446    1.146987   -1.762327
     14          1           0       -2.682980   -1.285418    1.509776
     15          1           0       -3.509908   -2.366389    0.386541
     16          1           0       -4.183838   -0.768611    0.734451
     17          1           0       -1.502050   -1.256032   -0.723130
     18          1           0       -3.006215   -0.920211   -1.539379
     19          1           0       -3.174663    1.279546   -0.539521
     20          1           0       -1.548110    2.341082    0.782475
     21          1           0       -2.042412    0.893176    1.641422
     22          1           0        0.457475    2.777709    0.310189
     23          1           0        1.411460    2.119890    1.643140
     24          1           0        2.773613    2.279413   -0.365650
     25          1           0        1.596323    1.365682   -1.318723
     26          1           0        3.034486    0.076669    1.067638
     27          1           0        3.679437    0.089392   -0.581281
     28          1           0        1.310817   -2.151547    1.738387
     29          1           0       -0.111416   -2.098193    0.684786
     30          1           0        1.076369    0.109070    2.427855
     31          1           0       -0.576960   -0.489220    2.391862
     32          1           0       -1.233328    2.133236   -1.737806
     33          1           0       -0.623306    0.606494   -1.810918
 ---------------------------------------------------------------------

 SCF Done:  E(UB3LYP) =  -938.091825922     A.U. after   31 cycles

 The electronic state is 2-A.
 Alpha  occ. eigenvalues --  -88.84140 -18.98174 -14.20201 -14.17904 -10.10514
 Alpha  occ. eigenvalues --  -10.09760 -10.09728 -10.09716 -10.09527 -10.09306
 Alpha  occ. eigenvalues --  -10.07258 -10.06746 -10.06140  -7.91856  -5.88137
 Alpha  occ. eigenvalues --   -5.87994  -5.87427  -0.90808  -0.83207  -0.77757
 Alpha  occ. eigenvalues --   -0.70303  -0.68702  -0.67126  -0.62699  -0.58268
 Alpha  occ. eigenvalues --   -0.57336  -0.54388  -0.49299  -0.47167  -0.45372
 Alpha  occ. eigenvalues --   -0.39842  -0.39657  -0.38854  -0.37183  -0.35987
 Alpha  occ. eigenvalues --   -0.35224  -0.34867  -0.33558  -0.32852  -0.32244
 Alpha  occ. eigenvalues --   -0.31218  -0.30394  -0.28568  -0.28432  -0.27066
 Alpha  occ. eigenvalues --   -0.26406  -0.25680  -0.24959  -0.24778  -0.24009
 Alpha  occ. eigenvalues --   -0.23169  -0.22473  -0.17097  -0.13945  -0.13571
 Alpha  occ. eigenvalues --   -0.10414   0.04357
 Alpha virt. eigenvalues --    0.06471   0.06839   0.07839   0.08678   0.08731
 Alpha virt. eigenvalues --    0.09288   0.10139   0.10328   0.10857   0.11707
 Alpha virt. eigenvalues --    0.12107   0.12438   0.12650   0.13391   0.13510

  Beta  occ. eigenvalues --  -88.84138 -18.98171 -14.20171 -14.17902 -10.10478
  Beta  occ. eigenvalues --  -10.09713 -10.09707 -10.09692 -10.09516 -10.09299
  Beta  occ. eigenvalues --  -10.07242 -10.06728 -10.06137  -7.91854  -5.88136
  Beta  occ. eigenvalues --   -5.87992  -5.87423  -0.90796  -0.83164  -0.77744
  Beta  occ. eigenvalues --   -0.70253  -0.68650  -0.67109  -0.62659  -0.58202
  Beta  occ. eigenvalues --   -0.57293  -0.54353  -0.49245  -0.47095  -0.45315
  Beta  occ. eigenvalues --   -0.39802  -0.39611  -0.38822  -0.37139  -0.35957
  Beta  occ. eigenvalues --   -0.35195  -0.34831  -0.33500  -0.32816  -0.32205
  Beta  occ. eigenvalues --   -0.31171  -0.30353  -0.28550  -0.28409  -0.27020
  Beta  occ. eigenvalues --   -0.26366  -0.25654  -0.24922  -0.24747  -0.23970
  Beta  occ. eigenvalues --   -0.23150  -0.22460  -0.17072  -0.13920  -0.13526
  Beta  occ. eigenvalues --   -0.10275
  Beta virt. eigenvalues --    0.06551   0.07226   0.07645   0.08470   0.09145
  Beta virt. eigenvalues --    0.09318   0.09847   0.10444   0.10661   0.10977
  Beta virt. eigenvalues --    0.11932   0.12302   0.12925   0.12964   0.13661

 Mulliken charges and spin densities:
               1          2
     1  C    0.033422  -0.634587
     2  C   -0.433354   0.124819
     3  C   -0.333170   0.659302
     4  C    0.147671  -0.945956
     5  N   -0.112947   0.289035
     6  C    1.409138  -1.854576
     7  C   -1.495186   1.310631
     8  C    0.531874  -1.233341
     9  S    1.541849  -0.777177
    10  O   -0.451722   0.015512
    11  C   -1.129366   0.404651
    12  C    1.313753  -1.437427
    13  N   -0.303083  -0.077713
    14  H    0.003616   0.137679
    15  H   -0.032431   0.167647
    16  H    0.016379   0.104763
    17  H    0.137128   0.001241
    18  H    0.191258  -0.008040
    19  H    0.033437   0.136761
    20  H    0.029137   0.113464
    21  H    0.021160   0.093958
    22  H    0.036923   0.091946
    23  H   -0.429191   0.575181
    24  H   -0.568036   0.735218
    25  H    0.274762  -0.112086
    26  H   -0.336234   0.522163
    27  H   -0.472282   0.740421
    28  H   -0.897030   1.113180
    29  H    0.339339  -0.137115
    30  H   -0.212380   0.378256
    31  H   -0.323044   0.447288
    32  H    0.198393   0.014728
    33  H    0.270217   0.040179
 Sum of Mulliken charges =  -1.00000   1.00000

 Dipole moment (field-independent basis, Debye):
    X=             -5.4320    Y=              0.3294    Z=             -3.1148  Tot=              6.2704
 Quadrupole moment (field-independent basis, Debye-Ang):
   XX=           -152.9601   YY=           -125.5430   ZZ=           -144.3507
   XY=             -3.6889   XZ=            -10.4276   YZ=             -0.0567

 Summary of Natural Population Analysis:

                                       Natural Population
                Natural  -----------------------------------------------
    Atom  No    Charge         Core      Valence    Rydberg      Total
 -----------------------------------------------------------------------
      C    1   -0.28829      0.99967     2.28388    0.00475     3.28829
      C    2   -0.20163      0.99961     2.19254    0.00949     3.20163
      C    3   -0.01340      0.99959     2.00165    0.01215     3.01340
      C    4   -0.07988      0.99958     2.06853    0.01176     3.07988
      N    5   -0.29800      0.99968     2.77921    0.01910     3.79800
      C    6   -0.07241      0.99959     2.06086    0.01195     3.07241
      C    7   -0.20603      0.99960     2.19542    0.01101     3.20603
      C    8   -0.27466      0.99958     2.26242    0.01266     3.27466
      S    9    0.58115      4.99945     2.36810    0.05130     7.41885
      O   10   -0.49101      0.99993     3.48490    0.00618     4.49101
      C   11   -0.27792      0.99957     2.26586    0.01249     3.27792
      C   12   -0.08951      0.99959     2.07534    0.01458     3.08951
      N   13   -0.42983      0.99977     2.92158    0.00848     3.92983
      H   14    0.09626      0.00000     0.40268    0.00106     0.40374
      H   15    0.09794      0.00000     0.40139    0.00068     0.40206
      H   16    0.09400      0.00000     0.40507    0.00093     0.40600
      H   17    0.10536      0.00000     0.39293    0.00172     0.39464
      H   18    0.09979      0.00000     0.39921    0.00100     0.40021
      H   19    0.07947      0.00000     0.41881    0.00172     0.42053
      H   20    0.08868      0.00000     0.41003    0.00130     0.41132
      H   21    0.09173      0.00000     0.40679    0.00149     0.40827
      H   22    0.09477      0.00000     0.40399    0.00124     0.40523
      H   23    0.08487      0.00000     0.41303    0.00210     0.41513
      H   24    0.10305      0.00000     0.39558    0.00137     0.39695
      H   25    0.10828      0.00000     0.39006    0.00166     0.39172
      H   26    0.11249      0.00000     0.38263    0.00487     0.38751
      H   27    0.11091      0.00000     0.38702    0.00207     0.38909
      H   28    0.10915      0.00000     0.38764    0.00321     0.39085
      H   29    0.10746      0.00000     0.39115    0.00138     0.39254
      H   30    0.09674      0.00000     0.39998    0.00329     0.40326
      H   31    0.09977      0.00000     0.39838    0.00185     0.40023
      H   32    0.16647      0.00000     0.33162    0.00191     0.33353
      H   33    0.19422      0.00000     0.30327    0.00252     0.30578
 =======================================================================
   * Total *    0.00000     16.99520    38.78156    0.22324    56.00000

 Normal termination of Gaussian 16 at Wed Dec  9 23:37:38 2020.
