 Gaussian 16, Revision A.03,

 -----------------------------------------------------------
 # opt freq B3LYP/6-31G(d) empiricaldispersion=gd3bj scf=xqc
 -----------------------------------------------------------

 -----------------------------
 CID_13381393_JID_493_neutraal
 -----------------------------
 Symbolic Z-matrix:
 Charge =  0 Multiplicity = 1

 SCF Done:  E(RB3LYP) =  -474.752479219     A.U. after   14 cycles
 SCF Done:  E(RB3LYP) =  -474.755563886     A.U. after   12 cycles
 SCF Done:  E(RB3LYP) =  -474.756207209     A.U. after   11 cycles
 SCF Done:  E(RB3LYP) =  -474.756396233     A.U. after   11 cycles
 SCF Done:  E(RB3LYP) =  -474.756492919     A.U. after   11 cycles
 SCF Done:  E(RB3LYP) =  -474.756521883     A.U. after   11 cycles
 SCF Done:  E(RB3LYP) =  -474.756546509     A.U. after   10 cycles
 SCF Done:  E(RB3LYP) =  -474.756558474     A.U. after   10 cycles
 SCF Done:  E(RB3LYP) =  -474.756560814     A.U. after    8 cycles
 SCF Done:  E(RB3LYP) =  -474.756561430     A.U. after    8 cycles
 SCF Done:  E(RB3LYP) =  -474.756561548     A.U. after    7 cycles
 SCF Done:  E(RB3LYP) =  -474.756561622     A.U. after    7 cycles
 SCF Done:  E(RB3LYP) =  -474.756561647     A.U. after    7 cycles
 Optimization completed.
    -- Stationary point found.
 Normal termination of Gaussian 16 at Tue Dec  8 10:42:31 2020.

 --------------------------------------------------------------------
 #N Geom=AllCheck Guess=TCheck SCRF=Check GenChk RB3LYP/6-31G(d) Freq
 --------------------------------------------------------------------

 Structure from the checkpoint file:  "JID_493.chk"
 -----------------------------
 CID_13381393_JID_493_neutraal
 -----------------------------
 Charge =  0 Multiplicity = 1

 SCF Done:  E(RB3LYP) =  -474.756561647     A.U. after    1 cycles

  Exact polarizability: 106.279   2.084  79.086   0.206   0.478  59.773
 Approx polarizability: 138.184   0.781 132.894  -0.563   0.022  84.709

                      1                      2                      3
                      A                      A                      A
 Frequencies --     43.6226               114.1276               164.7011
 Red. masses --      4.4479                 3.6035                 3.1473
 Frc consts  --      0.0050                 0.0277                 0.0503
 IR Inten    --      4.4198                 0.7378                 3.5927

                      4                      5                      6
                      A                      A                      A
 Frequencies --    217.1776               254.5597               272.0303
 Red. masses --      1.0265                 2.0368                 1.1152
 Frc consts  --      0.0285                 0.0778                 0.0486
 IR Inten    --      0.1107                 7.4139                 4.2834

                      7                      8                      9
                      A                      A                      A
 Frequencies --    275.8878               294.7315               314.5533
 Red. masses --      1.1069                 1.5086                 2.4757
 Frc consts  --      0.0496                 0.0772                 0.1443
 IR Inten    --      0.4129                30.7916                 3.8203

                     10                     11                     12
                      A                      A                      A
 Frequencies --    328.6632               355.4126               400.4037
 Red. masses --      2.5361                 2.5560                 2.7056
 Frc consts  --      0.1614                 0.1902                 0.2556
 IR Inten    --      0.9424                 4.4598                 0.5143

                     13                     14                     15
                      A                      A                      A
 Frequencies --    451.8841               518.8654               589.1101
 Red. masses --      3.9240                 3.9733                 3.0581
 Frc consts  --      0.4721                 0.6303                 0.6253
 IR Inten    --      3.8898                 2.2478                 7.5061

                     16                     17                     18
                      A                      A                      A
 Frequencies --    631.3744               708.0288               747.6762
 Red. masses --      1.5807                 8.2453                 6.3227
 Frc consts  --      0.3713                 2.4353                 2.0825
 IR Inten    --    242.3989                28.0792                 3.2909

                     19                     20                     21
                      A                      A                      A
 Frequencies --    768.9277               844.5179               946.6148
 Red. masses --      4.8248                 2.6577                 1.7997
 Frc consts  --      1.6807                 1.1168                 0.9501
 IR Inten    --     61.5324                 0.4198                 0.6889

                     22                     23                     24
                      A                      A                      A
 Frequencies --    958.0998               976.2221               983.0290
 Red. masses --      1.7172                 9.8955                 1.1987
 Frc consts  --      0.9287                 5.5563                 0.6825
 IR Inten    --      3.9473                16.7881                 0.0010

                     25                     26                     27
                      A                      A                      A
 Frequencies --    988.3767              1041.9238              1063.2805
 Red. masses --     11.1755                 2.8709                 1.4017
 Frc consts  --      6.4323                 1.8363                 0.9337
 IR Inten    --      4.4709                27.7689                 0.0926

                     28                     29                     30
                      A                      A                      A
 Frequencies --   1069.1924              1150.6909              1163.5523
 Red. masses --      1.6676                 2.1218                 3.3388
 Frc consts  --      1.1232                 1.6553                 2.6632
 IR Inten    --     16.5600                 0.0554                79.4812

                     31                     32                     33
                      A                      A                      A
 Frequencies --   1243.9443              1261.2012              1325.5715
 Red. masses --      2.6165                 2.8443                 3.5647
 Frc consts  --      2.3855                 2.6656                 3.6904
 IR Inten    --      4.3077                 3.2540                 2.8707

                     34                     35                     36
                      A                      A                      A
 Frequencies --   1424.1751              1427.9551              1454.6528
 Red. masses --      1.2131                 1.2492                 1.6228
 Frc consts  --      1.4497                 1.5008                 2.0232
 IR Inten    --      4.4808                 7.5761                32.2718

                     37                     38                     39
                      A                      A                      A
 Frequencies --   1464.9904              1507.0770              1516.0072
 Red. masses --      2.2369                 1.0477                 1.0486
 Frc consts  --      2.8286                 1.4021                 1.4199
 IR Inten    --     28.4160                 0.0405                 1.2539

                     40                     41                     42
                      A                      A                      A
 Frequencies --   1519.3836              1529.3023              1532.9762
 Red. masses --      1.0453                 1.0501                 1.0527
 Frc consts  --      1.4217                 1.4470                 1.4576
 IR Inten    --      0.0322                 5.7592                 7.2300

                     43                     44                     45
                      A                      A                      A
 Frequencies --   1548.2733              1620.6496              1643.1200
 Red. masses --      1.0964                 2.9008                 2.4241
 Frc consts  --      1.5485                 4.4889                 3.8560
 IR Inten    --      2.9895                66.3220                29.5296

                     46                     47                     48
                      A                      A                      A
 Frequencies --   1704.6241              3051.5633              3054.5982
 Red. masses --      2.9533                 1.0340                 1.0347
 Frc consts  --      5.0560                 5.6732                 5.6882
 IR Inten    --    301.8939                23.6099                16.5466

                     49                     50                     51
                      A                      A                      A
 Frequencies --   3063.6662              3122.1112              3124.7186
 Red. masses --      1.0363                 1.1032                 1.1027
 Frc consts  --      5.7308                 6.3356                 6.3437
 IR Inten    --     22.2836                 7.9734                20.7843

                     52                     53                     54
                      A                      A                      A
 Frequencies --   3129.4565              3133.2590              3134.3412
 Red. masses --      1.1036                 1.1027                 1.1015
 Frc consts  --      6.3678                 6.3782                 6.3760
 IR Inten    --      8.0080                38.0162                43.6667

                     55                     56                     57
                      A                      A                      A
 Frequencies --   3145.6743              3560.5014              3665.3227
 Red. masses --      1.1029                 1.0474                 1.0992
 Frc consts  --      6.4298                 7.8234                 8.7004
 IR Inten    --     20.7071                38.4454                36.2748

 - Thermochemistry -
 -------------------
 Temperature   298.150 Kelvin.  Pressure   1.00000 Atm.
 Atom     1 has atomic number  6 and mass  12.00000

 Molecular mass:   141.09021 amu.
 Principal axes and moments of inertia in atomic units:
                           1         2         3
     Eigenvalues --   653.197212006.268512258.40612
           X            0.99995   0.00918   0.00395
           Y           -0.00922   0.99991   0.00994
           Z           -0.00385  -0.00998   0.99994
 This molecule is an asymmetric top.
 Rotational symmetry number  1.
 Warning -- assumption of classical behavior for rotation
           may cause significant error
 Rotational temperatures (Kelvin)      0.13260     0.04317     0.03835
 Rotational constants (GHZ):           2.76293     0.89955     0.79912
 Zero-point vibrational energy     463830.2 (Joules/Mol)
                                  110.85808 (Kcal/Mol)
 Warning -- explicit consideration of  15 degrees of freedom as
           vibrations may cause significant error
 Vibrational temperatures:     62.76   164.20   236.97   312.47   366.25
          (Kelvin)            391.39   396.94   424.05   452.57   472.87
                              511.36   576.09   650.16   746.53   847.60
                              908.41  1018.70  1075.74  1106.32  1215.07
                             1361.97  1378.49  1404.57  1414.36  1422.05
                             1499.10  1529.82  1538.33  1655.59  1674.09
                             1789.76  1814.59  1907.20  2049.07  2054.51
                             2092.92  2107.79  2168.35  2181.20  2186.05
                             2200.32  2205.61  2227.62  2331.75  2364.08
                             2452.57  4390.52  4394.89  4407.93  4492.02
                             4495.77  4502.59  4508.06  4509.62  4525.92
                             5122.77  5273.58

 Zero-point correction=                           0.176664 (Hartree/Particle)
 Thermal correction to Energy=                    0.187044
 Thermal correction to Enthalpy=                  0.187988
 Thermal correction to Gibbs Free Energy=         0.141289
 Sum of electronic and zero-point Energies=           -474.579898
 Sum of electronic and thermal Energies=              -474.569518
 Sum of electronic and thermal Enthalpies=            -474.568574
 Sum of electronic and thermal Free Energies=         -474.615272

                     E (Thermal)             CV                S
                      KCal/Mol        Cal/Mol-Kelvin    Cal/Mol-Kelvin
 Total                  117.372             39.052             98.285
 Electronic               0.000              0.000              0.000
 Translational            0.889              2.981             40.744
 Rotational               0.889              2.981             29.472
 Vibrational            115.594             33.090             28.069
 Vibration     1          0.595              1.980              5.087
 Vibration     2          0.607              1.938              3.197
 Vibration     3          0.623              1.886              2.495
 Vibration     4          0.646              1.815              1.982
 Vibration     5          0.665              1.755              1.699
 Vibration     6          0.675              1.725              1.583
 Vibration     7          0.678              1.718              1.559
 Vibration     8          0.689              1.684              1.447
 Vibration     9          0.702              1.646              1.338
 Vibration    10          0.712              1.618              1.267
 Vibration    11          0.731              1.564              1.142
 Vibration    12          0.766              1.469              0.961
 Vibration    13          0.811              1.357              0.790
 Vibration    14          0.874              1.208              0.613
 Vibration    15          0.946              1.055              0.469

                           ! Non-Optimized Parameters !
 Normal termination of Gaussian 16 at Tue Dec  8 10:47:08 2020.

 ----------------------------------------------------------------------
 # B3LYP/6-311++G(d,p) empiricaldispersion=gd3bj scf=xqc pop=npa geom=c
 heck
 ----------------------------------------------------------------------

 -------------------------------------
 CID_13381393_JID_493_Energie_neutraal
 -------------------------------------
 Structure from the checkpoint file:  "JID_493.chk"
 Charge =  0 Multiplicity = 1

 SCF Done:  E(RB3LYP) =  -474.895917842     A.U. after   14 cycles
 Normal termination of Gaussian 16 at Tue Dec  8 10:48:26 2020.

 ----------------------------------------------------------------------
 # B3LYP/6-311++G(d,p) empiricaldispersion=gd3bj scf=xqc pop=npa geom=c
 heck
 ----------------------------------------------------------------------

 -----------------------------------
 CID_13381393_JID_493_Energie_kation
 -----------------------------------
 Structure from the checkpoint file:  "JID_493.chk"
 Charge =  1 Multiplicity = 2

 SCF Done:  E(UB3LYP) =  -474.573456386     A.U. after   20 cycles
 Normal termination of Gaussian 16 at Tue Dec  8 10:54:47 2020.
 Gaussian 16:  ES64L-G16RevA.03 25-Dec-2016

 ----------------------------------------------------------------------
 # B3LYP/6-311++G(d,p) empiricaldispersion=gd3bj scf=xqc pop=npa geom=c
 heck
 ----------------------------------------------------------------------

 ----------------------------------
 CID_13381393_JID_493_Energie_anion
 ----------------------------------
 Structure from the checkpoint file:  "JID_493.chk"
 Charge = -1 Multiplicity = 2

                         Standard orientation:
 ---------------------------------------------------------------------
 Center     Atomic      Atomic             Coordinates (Angstroms)
 Number     Number       Type             X           Y           Z
 ---------------------------------------------------------------------
      1          6           0        1.832021   -0.940181    1.265092
      2          6           0        1.528658   -0.109181   -0.000336
      3          6           0        2.382878    1.168110   -0.010952
      4          6           0        1.822385   -0.954219   -1.258700
      5          6           0        0.080060    0.279773    0.003040
      6          7           0       -0.469276    1.445977   -0.004464
      7          7           0       -1.866060    1.254230   -0.014537
      8          6           0       -2.033181   -0.032934    0.002631
      9          8           0       -0.868365   -0.733821    0.011231
     10          7           0       -3.202681   -0.744240    0.083765
     11          1           0        2.886714   -1.236780    1.270013
     12          1           0        1.220152   -1.847026    1.300398
     13          1           0        1.635282   -0.357367    2.171054
     14          1           0        3.444141    0.896784   -0.011318
     15          1           0        2.174933    1.773627   -0.897536
     16          1           0        2.178710    1.785265    0.868402
     17          1           0        1.211851   -1.862578   -1.277982
     18          1           0        1.618409   -0.382031   -2.169990
     19          1           0        2.877160   -1.250211   -1.268808
     20          1           0       -3.196755   -1.631759   -0.403816
     21          1           0       -4.014482   -0.177346   -0.128262
 ---------------------------------------------------------------------

 SCF Done:  E(UB3LYP) =  -474.885633468     A.U. after   31 cycles

 The electronic state is 2-A.
 Alpha  occ. eigenvalues --  -19.09721 -14.22826 -14.22655 -14.21306 -10.18826
 Alpha  occ. eigenvalues --  -10.15359 -10.10724 -10.06721 -10.06545 -10.06529
 Alpha  occ. eigenvalues --   -1.04818  -0.86565  -0.83157  -0.74585  -0.68572
 Alpha  occ. eigenvalues --   -0.59721  -0.59504  -0.55563  -0.51461  -0.46438
 Alpha  occ. eigenvalues --   -0.42741  -0.39982  -0.38983  -0.37874  -0.34544
 Alpha  occ. eigenvalues --   -0.34126  -0.33937  -0.29770  -0.29475  -0.27354
 Alpha  occ. eigenvalues --   -0.26432  -0.25164  -0.24338  -0.23390  -0.23009
 Alpha  occ. eigenvalues --   -0.20944  -0.17338  -0.12911   0.04433
 Alpha virt. eigenvalues --    0.06214   0.08576   0.08838   0.09260   0.10177
 Alpha virt. eigenvalues --    0.10802   0.11675   0.11899   0.12525   0.13122
 Alpha virt. eigenvalues --    0.13621   0.14916   0.15275   0.15478   0.16978

  Beta  occ. eigenvalues --  -19.09700 -14.22722 -14.22653 -14.21295 -10.18819
  Beta  occ. eigenvalues --  -10.15354 -10.10723 -10.06692 -10.06531 -10.06495
  Beta  occ. eigenvalues --   -1.04793  -0.86548  -0.83036  -0.74551  -0.68525
  Beta  occ. eigenvalues --   -0.59682  -0.59447  -0.55528  -0.51370  -0.46394
  Beta  occ. eigenvalues --   -0.42644  -0.39894  -0.38933  -0.37822  -0.34510
  Beta  occ. eigenvalues --   -0.34092  -0.33898  -0.29736  -0.29442  -0.27326
  Beta  occ. eigenvalues --   -0.26394  -0.25126  -0.24311  -0.23371  -0.22962
  Beta  occ. eigenvalues --   -0.20925  -0.17326  -0.12860
  Beta virt. eigenvalues --    0.06797   0.08187   0.08935   0.09269   0.09982
  Beta virt. eigenvalues --    0.10744   0.11403   0.11794   0.12472   0.12888
  Beta virt. eigenvalues --    0.13694   0.13907   0.14958   0.15409   0.15721

 Mulliken charges and spin densities:
               1          2
     1  C    0.275864  -0.788649
     2  C   -1.617307   2.709344
     3  C    0.052315  -0.818172
     4  C    0.532298  -1.047077
     5  C    1.383136  -2.299853
     6  N   -0.196602   0.101002
     7  N    0.031327  -0.155561
     8  C    0.914710  -0.713727
     9  O   -0.017373   0.000018
    10  N   -0.459690   0.124122
    11  H   -0.325935   0.489987
    12  H   -0.022351   0.181128
    13  H   -0.012636   0.162353
    14  H   -0.142297   0.300673
    15  H    0.107391   0.054902
    16  H    0.092977   0.066389
    17  H   -0.146784   0.309354
    18  H   -0.074823   0.225937
    19  H   -0.316166   0.479522
    20  H   -0.663360   0.943676
    21  H   -0.394695   0.674634
 Sum of Mulliken charges =  -1.00000   1.00000

 Dipole moment (field-independent basis, Debye):
    X=              4.5945    Y=              2.8701    Z=              1.3654  Tot=              5.5867
 Quadrupole moment (field-independent basis, Debye-Ang):
   XX=           -131.5200   YY=           -100.8566   ZZ=            -84.5575
   XY=             -3.3087   XZ=             -3.6186   YZ=             -2.9125

 Summary of Natural Population Analysis:

                                       Natural Population
                Natural  -----------------------------------------------
    Atom  No    Charge         Core      Valence    Rydberg      Total
 -----------------------------------------------------------------------
      C    1   -0.27985      0.99963     2.27302    0.00720     3.27985
      C    2   -0.07454      0.99954     2.06305    0.01194     3.07454
      C    3   -0.27825      0.99964     2.27256    0.00605     3.27825
      C    4   -0.27984      0.99963     2.27301    0.00720     3.27984
      C    5    0.25992      0.99952     1.71862    0.02194     2.74008
      N    6   -0.16381      0.99964     2.65271    0.01146     3.66381
      N    7   -0.20307      0.99966     2.69019    0.01322     3.70307
      C    8    0.33853      0.99961     1.64135    0.02051     2.66147
      O    9   -0.25072      0.99985     3.24242    0.00844     4.25072
      N   10   -0.39709      0.99971     2.88734    0.01004     3.89709
      H   11    0.10095      0.00000     0.39785    0.00121     0.39905
      H   12    0.10643      0.00000     0.39228    0.00130     0.39357
      H   13    0.10082      0.00000     0.39826    0.00092     0.39918
      H   14    0.09833      0.00000     0.40080    0.00087     0.40167
      H   15    0.10541      0.00000     0.39357    0.00102     0.39459
      H   16    0.10487      0.00000     0.39414    0.00099     0.39513
      H   17    0.10734      0.00000     0.39111    0.00155     0.39266
      H   18    0.10159      0.00000     0.39734    0.00107     0.39841
      H   19    0.10058      0.00000     0.39809    0.00133     0.39942
      H   20    0.20301      0.00000     0.27062    0.02638     0.29699
      H   21    0.19940      0.00000     0.29451    0.00610     0.30060
 =======================================================================
   * Total *    0.00000      9.99643    27.84284    0.16072    38.00000

 Normal termination of Gaussian 16 at Tue Dec  8 11:01:30 2020.
