 Gaussian 16, Revision A.03,

 -----------------------------------------------------------
 # opt freq B3LYP/6-31G(d) empiricaldispersion=gd3bj scf=xqc
 -----------------------------------------------------------

 -------------------------------
 CID_116219656_JID_5024_neutraal
 -------------------------------
 Symbolic Z-matrix:
 Charge =  0 Multiplicity = 1

 SCF Done:  E(RB3LYP) =  -1351.99261195     A.U. after   14 cycles
 SCF Done:  E(RB3LYP) =  -1351.99764977     A.U. after   13 cycles
 SCF Done:  E(RB3LYP) =  -1351.99798070     A.U. after   13 cycles
 SCF Done:  E(RB3LYP) =  -1351.99938939     A.U. after   12 cycles
 SCF Done:  E(RB3LYP) =  -1352.00002184     A.U. after   11 cycles
 SCF Done:  E(RB3LYP) =  -1352.00014812     A.U. after   11 cycles
 SCF Done:  E(RB3LYP) =  -1352.00019294     A.U. after   11 cycles
 SCF Done:  E(RB3LYP) =  -1352.00021256     A.U. after    9 cycles
 SCF Done:  E(RB3LYP) =  -1352.00021774     A.U. after    8 cycles
 SCF Done:  E(RB3LYP) =  -1352.00022221     A.U. after    8 cycles
 SCF Done:  E(RB3LYP) =  -1352.00022483     A.U. after    8 cycles
 SCF Done:  E(RB3LYP) =  -1352.00022596     A.U. after    8 cycles
 SCF Done:  E(RB3LYP) =  -1352.00022628     A.U. after    7 cycles
 SCF Done:  E(RB3LYP) =  -1352.00022627     A.U. after    7 cycles
 SCF Done:  E(RB3LYP) =  -1352.00022625     A.U. after    7 cycles
 Optimization completed.
    -- Stationary point found.
 Normal termination of Gaussian 16 at Thu Dec 10 14:49:15 2020.

 --------------------------------------------------------------------
 #N Geom=AllCheck Guess=TCheck SCRF=Check GenChk RB3LYP/6-31G(d) Freq
 --------------------------------------------------------------------

 Structure from the checkpoint file:  "JID_5024.chk"
 -------------------------------
 CID_116219656_JID_5024_neutraal
 -------------------------------
 Charge =  0 Multiplicity = 1

 SCF Done:  E(RB3LYP) =  -1352.00022625     A.U. after    1 cycles

  Exact polarizability: 171.173   5.574 151.073 -14.555  11.165 124.550
 Approx polarizability: 228.420  13.571 247.615 -27.025  22.970 200.374

                      1                      2                      3
                      A                      A                      A
 Frequencies --     30.8826                38.0418                66.8039
 Red. masses --      5.0748                 4.9074                 4.5959
 Frc consts  --      0.0029                 0.0042                 0.0121
 IR Inten    --      1.0923                 0.7466                 0.8759

                      4                      5                      6
                      A                      A                      A
 Frequencies --     80.5990               117.8863               127.1158
 Red. masses --      3.3221                 4.6057                 3.5285
 Frc consts  --      0.0127                 0.0377                 0.0336
 IR Inten    --      0.0445                 0.7677                 1.5662

                      7                      8                      9
                      A                      A                      A
 Frequencies --    150.5912               190.2497               213.2096
 Red. masses --      4.1080                 2.8687                 1.7343
 Frc consts  --      0.0549                 0.0612                 0.0464
 IR Inten    --      7.5906                 2.0298                 0.3280

                     10                     11                     12
                      A                      A                      A
 Frequencies --    256.3601               267.1711               277.6767
 Red. masses --      2.0514                 3.9764                 2.1820
 Frc consts  --      0.0794                 0.1672                 0.0991
 IR Inten    --      2.8679                 3.3026                 6.7274

                     13                     14                     15
                      A                      A                      A
 Frequencies --    290.8522               311.2765               351.8705
 Red. masses --      2.2998                 5.3723                 2.4811
 Frc consts  --      0.1146                 0.3067                 0.1810
 IR Inten    --      9.5029                 1.9824                 1.7271

                     16                     17                     18
                      A                      A                      A
 Frequencies --    408.6976               418.1702               441.8149
 Red. masses --      3.5383                 2.7165                 2.3653
 Frc consts  --      0.3482                 0.2799                 0.2720
 IR Inten    --      2.1733                 1.8349                 5.6454

                     19                     20                     21
                      A                      A                      A
 Frequencies --    523.9768               547.8620               606.4458
 Red. masses --      2.9827                 3.0862                 4.1928
 Frc consts  --      0.4825                 0.5458                 0.9085
 IR Inten    --     11.0226                62.6660                14.0905

                     22                     23                     24
                      A                      A                      A
 Frequencies --    614.3604               625.1187               650.0406
 Red. masses --      3.2950                 3.7726                 4.6636
 Frc consts  --      0.7327                 0.8686                 1.1611
 IR Inten    --     14.0830                15.9790                 1.2614

                     25                     26                     27
                      A                      A                      A
 Frequencies --    660.0833               662.8883               668.0220
 Red. masses --      3.3620                 1.2599                 3.5817
 Frc consts  --      0.8631                 0.3262                 0.9417
 IR Inten    --      5.4410                40.9350                 6.4723

                     28                     29                     30
                      A                      A                      A
 Frequencies --    727.3152               735.1517               803.6664
 Red. masses --      3.9540                 7.3444                 3.0460
 Frc consts  --      1.2323                 2.3386                 1.1591
 IR Inten    --      1.1210                12.4367                18.0114

                     31                     32                     33
                      A                      A                      A
 Frequencies --    809.2695               822.9773               845.0866
 Red. masses --      1.1781                 1.2586                 1.6635
 Frc consts  --      0.4546                 0.5022                 0.7000
 IR Inten    --      2.9655                 7.6944                 5.5232

                     34                     35                     36
                      A                      A                      A
 Frequencies --    911.2667               941.6568               958.5919
 Red. masses --      1.8614                 5.2442                 1.6795
 Frc consts  --      0.9107                 2.7398                 0.9093
 IR Inten    --     12.8400                 3.5230                 0.9982

                     37                     38                     39
                      A                      A                      A
 Frequencies --    970.8911              1008.8955              1014.4668
 Red. masses --      2.2369                 1.8542                 2.5011
 Frc consts  --      1.2423                 1.1120                 1.5166
 IR Inten    --     11.2572                 6.0749                 0.7877

                     40                     41                     42
                      A                      A                      A
 Frequencies --   1025.6592              1071.1864              1077.8885
 Red. masses --      2.4981                 2.2855                 2.3100
 Frc consts  --      1.5483                 1.5451                 1.5813
 IR Inten    --      1.9739                10.1668                 1.6797

                     43                     44                     45
                      A                      A                      A
 Frequencies --   1112.8533              1119.6024              1137.3276
 Red. masses --      1.4838                 1.5496                 3.1073
 Frc consts  --      1.0827                 1.1445                 2.3681
 IR Inten    --      5.1743                13.4848                21.8875

                     46                     47                     48
                      A                      A                      A
 Frequencies --   1180.7128              1183.8298              1203.0047
 Red. masses --      1.7365                 1.1002                 1.3383
 Frc consts  --      1.4263                 0.9084                 1.1412
 IR Inten    --     23.4905                 8.8426                 1.3260

                     49                     50                     51
                      A                      A                      A
 Frequencies --   1236.2588              1245.6990              1259.1134
 Red. masses --      2.3651                 1.3635                 1.3316
 Frc consts  --      2.1297                 1.2466                 1.2438
 IR Inten    --      6.9943                20.1725                 7.5152

                     52                     53                     54
                      A                      A                      A
 Frequencies --   1271.3651              1295.4610              1312.1333
 Red. masses --      1.2285                 1.8941                 1.3536
 Frc consts  --      1.1700                 1.8729                 1.3731
 IR Inten    --      8.8816                 9.8963                14.4680

                     55                     56                     57
                      A                      A                      A
 Frequencies --   1319.5741              1345.4268              1352.0254
 Red. masses --      1.8052                 1.2438                 1.2369
 Frc consts  --      1.8520                 1.3265                 1.3321
 IR Inten    --     24.6345                14.9001                10.6041

                     58                     59                     60
                      A                      A                      A
 Frequencies --   1362.4092              1396.3302              1403.7232
 Red. masses --      1.2218                 1.5542                 1.6720
 Frc consts  --      1.3361                 1.7854                 1.9411
 IR Inten    --     15.8519                16.3920                22.7163

                     61                     62                     63
                      A                      A                      A
 Frequencies --   1404.3414              1443.9653              1454.3661
 Red. masses --      1.5516                 1.2579                 1.7858
 Frc consts  --      1.8029                 1.5453                 2.2255
 IR Inten    --      8.5315                14.5181                23.2254

                     64                     65                     66
                      A                      A                      A
 Frequencies --   1482.6434              1489.5415              1506.6910
 Red. masses --      1.0848                 1.0860                 1.0863
 Frc consts  --      1.4050                 1.4196                 1.4530
 IR Inten    --      1.9450                12.9127                 2.2340

                     67                     68                     69
                      A                      A                      A
 Frequencies --   1517.3121              1526.4864              1530.2188
 Red. masses --      1.0427                 1.0824                 1.0922
 Frc consts  --      1.4144                 1.4860                 1.5069
 IR Inten    --      7.0013                 1.9800                11.9725

                     70                     71                     72
                      A                      A                      A
 Frequencies --   1539.9941              1566.3832              1579.5861
 Red. masses --      1.1009                 3.2215                 2.3688
 Frc consts  --      1.5383                 4.6570                 3.4822
 IR Inten    --      6.0686                34.4676                73.2906

                     73                     74                     75
                      A                      A                      A
 Frequencies --   1608.9855              3025.2410              3036.7005
 Red. masses --      7.1740                 1.0825                 1.0739
 Frc consts  --     10.9424                 5.8372                 5.8348
 IR Inten    --    222.2359                14.8093                47.2857

                     76                     77                     78
                      A                      A                      A
 Frequencies --   3056.1907              3061.3723              3063.9520
 Red. masses --      1.0354                 1.0588                 1.0606
 Frc consts  --      5.6979                 5.8464                 5.8664
 IR Inten    --     16.8621                12.9806                23.3506

                     79                     80                     81
                      A                      A                      A
 Frequencies --   3064.3693              3067.9231              3105.8999
 Red. masses --      1.0630                 1.0604                 1.1025
 Frc consts  --      5.8812                 5.8807                 6.2663
 IR Inten    --     40.7721                39.3255                 4.9539

                     82                     83                     84
                      A                      A                      A
 Frequencies --   3112.4103              3117.2852              3129.6539
 Red. masses --      1.1074                 1.1055                 1.1027
 Frc consts  --      6.3204                 6.3293                 6.3633
 IR Inten    --     13.5125                 7.4649                41.4559

                     85                     86                     87
                      A                      A                      A
 Frequencies --   3130.7655              3137.1434              3167.2199
 Red. masses --      1.1061                 1.1038                 1.0909
 Frc consts  --      6.3879                 6.4003                 6.4474
 IR Inten    --      9.3910                23.0751                 1.0941

                     88                     89                     90
                      A                      A                      A
 Frequencies --   3259.3080              3288.9304              3565.4775
 Red. masses --      1.0911                 1.1042                 1.0742
 Frc consts  --      6.8293                 7.0375                 8.0462
 IR Inten    --      8.3389                 5.9728                 3.2010

 - Thermochemistry -
 -------------------
 Temperature   298.150 Kelvin.  Pressure   1.00000 Atm.
 Atom     1 has atomic number  6 and mass  12.00000

 Molecular mass:   243.08639 amu.
 Principal axes and moments of inertia in atomic units:
                           1         2         3
     Eigenvalues --  1999.685495935.623866336.62167
           X            0.99993   0.01068  -0.00414
           Y           -0.01030   0.99650   0.08290
           Z            0.00501  -0.08285   0.99655
 This molecule is an asymmetric top.
 Rotational symmetry number  1.
 Warning -- assumption of classical behavior for rotation
           may cause significant error
 Rotational temperatures (Kelvin)      0.04331     0.01459     0.01367
 Rotational constants (GHZ):           0.90251     0.30405     0.28481
 Zero-point vibrational energy     712371.7 (Joules/Mol)
                                  170.26092 (Kcal/Mol)
 Warning -- explicit consideration of  22 degrees of freedom as
           vibrations may cause significant error
 Vibrational temperatures:     44.43    54.73    96.12   115.96   169.61
          (Kelvin)            182.89   216.67   273.73   306.76   368.84
                              384.40   399.51   418.47   447.86   506.26
                              588.02   601.65   635.67   753.89   788.25
                              872.54   883.93   899.41   935.26   949.71
                              953.75   961.13  1046.44  1057.72  1156.30
                             1164.36  1184.08  1215.89  1311.11  1354.83
                             1379.20  1396.90  1451.58  1459.59  1475.69
                             1541.20  1550.84  1601.15  1610.86  1636.36
                             1698.78  1703.27  1730.86  1778.70  1792.28
                             1811.58  1829.21  1863.88  1887.87  1898.57
                             1935.77  1945.26  1960.20  2009.01  2019.64
                             2020.53  2077.54  2092.51  2133.19  2143.12
                             2167.79  2183.07  2196.27  2201.64  2215.71
                             2253.68  2272.67  2314.97  4352.65  4369.13
                             4397.18  4404.63  4408.34  4408.94  4414.06
                             4468.70  4478.06  4485.08  4502.87  4504.47
                             4513.65  4556.92  4689.42  4732.04  5129.93

 Zero-point correction=                           0.271328 (Hartree/Particle)
 Thermal correction to Energy=                    0.286581
 Thermal correction to Enthalpy=                  0.287525
 Thermal correction to Gibbs Free Energy=         0.227846
 Sum of electronic and zero-point Energies=          -1351.728898
 Sum of electronic and thermal Energies=             -1351.713645
 Sum of electronic and thermal Enthalpies=           -1351.712701
 Sum of electronic and thermal Free Energies=        -1351.772381

                     E (Thermal)             CV                S
                      KCal/Mol        Cal/Mol-Kelvin    Cal/Mol-Kelvin
 Total                  179.832             58.183            125.607
 Electronic               0.000              0.000              0.000
 Translational            0.889              2.981             42.366
 Rotational               0.889              2.981             32.686
 Vibrational            178.055             52.221             50.555
 Vibration     1          0.594              1.984              5.772
 Vibration     2          0.594              1.982              5.359
 Vibration     3          0.598              1.970              4.245
 Vibration     4          0.600              1.962              3.876
 Vibration     5          0.608              1.934              3.135
 Vibration     6          0.611              1.926              2.989
 Vibration     7          0.618              1.902              2.665
 Vibration     8          0.634              1.853              2.225
 Vibration     9          0.644              1.821              2.016
 Vibration    10          0.666              1.752              1.686
 Vibration    11          0.672              1.733              1.614
 Vibration    12          0.679              1.715              1.548
 Vibration    13          0.687              1.691              1.469
 Vibration    14          0.700              1.652              1.356
 Vibration    15          0.728              1.571              1.158
 Vibration    16          0.773              1.451              0.931
 Vibration    17          0.781              1.431              0.898
 Vibration    18          0.802              1.379              0.821
 Vibration    19          0.879              1.197              0.601
 Vibration    20          0.903              1.144              0.549
 Vibration    21          0.965              1.018              0.439
 Vibration    22          0.974              1.001              0.426

                           ! Non-Optimized Parameters !
 Normal termination of Gaussian 16 at Thu Dec 10 15:00:17 2020.

 ----------------------------------------------------------------------
 # B3LYP/6-311++G(d,p) empiricaldispersion=gd3bj scf=xqc pop=npa geom=c
 heck
 ----------------------------------------------------------------------

 ---------------------------------------
 CID_116219656_JID_5024_Energie_neutraal
 ---------------------------------------
 Structure from the checkpoint file:  "JID_5024.chk"
 Charge =  0 Multiplicity = 1

 SCF Done:  E(RB3LYP) =  -1352.20677043     A.U. after   14 cycles
 Normal termination of Gaussian 16 at Thu Dec 10 15:05:55 2020.

 ----------------------------------------------------------------------
 # B3LYP/6-311++G(d,p) empiricaldispersion=gd3bj scf=xqc pop=npa geom=c
 heck
 ----------------------------------------------------------------------

 -------------------------------------
 CID_116219656_JID_5024_Energie_kation
 -------------------------------------
 Structure from the checkpoint file:  "JID_5024.chk"
 Charge =  1 Multiplicity = 2

 SCF Done:  E(UB3LYP) =  -1351.94573664     A.U. after   22 cycles
 Normal termination of Gaussian 16 at Thu Dec 10 15:20:26 2020.
 Gaussian 16:  ES64L-G16RevA.03 25-Dec-2016

 ----------------------------------------------------------------------
 # B3LYP/6-311++G(d,p) empiricaldispersion=gd3bj scf=xqc pop=npa geom=c
 heck
 ----------------------------------------------------------------------

 ------------------------------------
 CID_116219656_JID_5024_Energie_anion
 ------------------------------------
 Structure from the checkpoint file:  "JID_5024.chk"
 Charge = -1 Multiplicity = 2

                         Standard orientation:
 ---------------------------------------------------------------------
 Center     Atomic      Atomic             Coordinates (Angstroms)
 Number     Number       Type             X           Y           Z
 ---------------------------------------------------------------------
      1          6           0       -3.329238   -1.676673    1.136907
      2          6           0       -3.646530   -0.917614   -0.154214
      3          7           0       -2.848068    0.287864   -0.302463
      4          6           0       -3.186624    1.569901    0.138821
      5          6           0       -2.091114    2.343744   -0.110855
      6          7           0       -1.073423    1.590345   -0.674986
      7          6           0       -1.559556    0.365966   -0.762499
      8          7           0       -0.919465   -0.728654   -1.331433
      9          6           0        0.522958   -0.643663   -1.509727
     10          6           0        1.347278   -1.330989   -0.403358
     11          6           0        2.856746   -1.176176   -0.629708
     12         16           0        3.470204    0.551202   -0.565820
     13          6           0        2.945243    1.005181    1.133336
     14          6           0        1.444048    0.873048    1.366806
     15         16           0        0.860313   -0.866172    1.311069
     16          1           0       -2.267546   -1.940877    1.188880
     17          1           0       -3.924256   -2.594329    1.201718
     18          1           0       -3.552613   -1.053376    2.008390
     19          1           0       -3.477973   -1.547728   -1.035170
     20          1           0       -4.699632   -0.621601   -0.179269
     21          1           0       -4.158770    1.777338    0.559505
     22          1           0       -1.962351    3.401542    0.072116
     23          1           0       -1.218184   -1.612389   -0.935614
     24          1           0        0.793672   -1.116950   -2.463527
     25          1           0        0.783965    0.412032   -1.582724
     26          1           0        1.127044   -2.407895   -0.425140
     27          1           0        3.403770   -1.784195    0.096520
     28          1           0        3.121247   -1.528151   -1.633821
     29          1           0        3.248852    2.051883    1.245506
     30          1           0        3.506447    0.407212    1.858988
     31          1           0        0.862877    1.461323    0.650802
     32          1           0        1.192600    1.212467    2.377974
 ---------------------------------------------------------------------

 SCF Done:  E(UB3LYP) =  -1352.19678567     A.U. after   30 cycles

 The electronic state is 2-A.
 Alpha  occ. eigenvalues --  -88.75127 -88.74274 -14.26086 -14.22872 -14.18321
 Alpha  occ. eigenvalues --  -10.15575 -10.11732 -10.11687 -10.11608 -10.11396
 Alpha  occ. eigenvalues --  -10.10529 -10.10511 -10.09188 -10.08310 -10.06515
 Alpha  occ. eigenvalues --   -7.83756  -7.82911  -5.80149  -5.79796  -5.79297
 Alpha  occ. eigenvalues --   -5.79112  -5.78944  -5.78271  -0.92402  -0.82877
 Alpha  occ. eigenvalues --   -0.78553  -0.75352  -0.69163  -0.66890  -0.66444
 Alpha  occ. eigenvalues --   -0.63380  -0.58781  -0.55066  -0.54107  -0.53209
 Alpha  occ. eigenvalues --   -0.50259  -0.47231  -0.45257  -0.43430  -0.39091
 Alpha  occ. eigenvalues --   -0.38324  -0.37446  -0.36969  -0.36626  -0.34874
 Alpha  occ. eigenvalues --   -0.34166  -0.33668  -0.32672  -0.31880  -0.31463
 Alpha  occ. eigenvalues --   -0.30514  -0.29059  -0.28760  -0.28136  -0.27915
 Alpha  occ. eigenvalues --   -0.25950  -0.23554  -0.22938  -0.21091  -0.19404
 Alpha  occ. eigenvalues --   -0.17551  -0.16801  -0.14471  -0.13145  -0.09906
 Alpha  occ. eigenvalues --    0.04171
 Alpha virt. eigenvalues --    0.06188   0.06543   0.07617   0.08347   0.08645
 Alpha virt. eigenvalues --    0.08839   0.09323   0.09792   0.10264   0.10879
 Alpha virt. eigenvalues --    0.11589   0.11611   0.12342   0.12561   0.12864

  Beta  occ. eigenvalues --  -88.75127 -88.74272 -14.26088 -14.22843 -14.18320
  Beta  occ. eigenvalues --  -10.15571 -10.11726 -10.11652 -10.11581 -10.11379
  Beta  occ. eigenvalues --  -10.10526 -10.10501 -10.09176 -10.08308 -10.06471
  Beta  occ. eigenvalues --   -7.83756  -7.82908  -5.80149  -5.79796  -5.79295
  Beta  occ. eigenvalues --   -5.79111  -5.78942  -5.78268  -0.92392  -0.82839
  Beta  occ. eigenvalues --   -0.78539  -0.75326  -0.69134  -0.66873  -0.66398
  Beta  occ. eigenvalues --   -0.63357  -0.58742  -0.54983  -0.54084  -0.53173
  Beta  occ. eigenvalues --   -0.50235  -0.47190  -0.45220  -0.43376  -0.39049
  Beta  occ. eigenvalues --   -0.38263  -0.37417  -0.36945  -0.36597  -0.34834
  Beta  occ. eigenvalues --   -0.34133  -0.33647  -0.32636  -0.31856  -0.31440
  Beta  occ. eigenvalues --   -0.30481  -0.29017  -0.28733  -0.28093  -0.27865
  Beta  occ. eigenvalues --   -0.25910  -0.23542  -0.22900  -0.21069  -0.19377
  Beta  occ. eigenvalues --   -0.17546  -0.16790  -0.14462  -0.13137  -0.09883
  Beta virt. eigenvalues --    0.06307   0.07104   0.07244   0.08113   0.08623
  Beta virt. eigenvalues --    0.09000   0.09321   0.09507   0.10245   0.10441
  Beta virt. eigenvalues --    0.11161   0.11798   0.12025   0.12418   0.12741

 Mulliken charges and spin densities:
               1          2
     1  C    1.253601  -1.634492
     2  C   -0.367135   0.090744
     3  N    0.094066   0.062027
     4  C   -0.237270   0.090097
     5  C    0.477596  -0.570715
     6  N   -0.123310  -0.005795
     7  C   -0.196578  -0.230292
     8  N    0.040942  -0.047078
     9  C   -0.019912  -0.756373
    10  C    0.491398   0.037992
    11  C   -0.364381  -0.652670
    12  S    0.219779   0.060052
    13  C   -0.529065  -0.290951
    14  C   -0.508228   0.149702
    15  S    0.585814  -0.291078
    16  H   -0.154719   0.274246
    17  H   -0.570901   0.719809
    18  H   -0.063561   0.206846
    19  H   -0.400073   0.571506
    20  H   -0.439085   0.612032
    21  H   -0.316392   0.466859
    22  H    0.120113   0.012543
    23  H    0.204311   0.078290
    24  H   -0.106535   0.290656
    25  H    0.171306   0.017658
    26  H   -0.849083   1.150221
    27  H    0.100472   0.111281
    28  H   -0.127414   0.332533
    29  H    0.150102   0.047876
    30  H    0.076645   0.107909
    31  H    0.243370  -0.065303
    32  H    0.144125   0.053868
 Sum of Mulliken charges =  -1.00000   1.00000

 Dipole moment (field-independent basis, Debye):
    X=              5.4945    Y=              6.5751    Z=              1.9021  Tot=              8.7772
 Quadrupole moment (field-independent basis, Debye-Ang):
   XX=           -184.7544   YY=           -158.5309   ZZ=           -138.0964
   XY=             -8.5696   XZ=              6.1162   YZ=              1.5656

 Summary of Natural Population Analysis:

                                       Natural Population
                Natural  -----------------------------------------------
    Atom  No    Charge         Core      Valence    Rydberg      Total
 -----------------------------------------------------------------------
      C    1   -0.29019      0.99966     2.28518    0.00536     3.29019
      C    2   -0.08583      0.99963     2.07509    0.01112     3.08583
      N    3   -0.22114      0.99962     2.71103    0.01050     3.72114
      C    4   -0.04637      0.99955     2.03465    0.01217     3.04637
      C    5   -0.03415      0.99958     2.02193    0.01264     3.03415
      N    6   -0.29827      0.99968     2.78993    0.00866     3.79827
      C    7    0.29765      0.99958     1.68517    0.01759     2.70235
      N    8   -0.32285      0.99967     2.81175    0.01142     3.82285
      C    9   -0.09979      0.99956     2.08540    0.01482     3.09979
      C   10   -0.18322      0.99954     2.16533    0.01835     3.18322
      C   11   -0.25419      0.99955     2.24146    0.01318     3.25419
      S   12    0.08372      4.99963     2.89818    0.01846     7.91628
      C   13   -0.25308      0.99957     2.24409    0.00942     3.25308
      C   14   -0.26740      0.99956     2.25775    0.01009     3.26740
      S   15    0.09304      4.99961     2.88907    0.01828     7.90696
      H   16    0.10337      0.00000     0.39498    0.00165     0.39663
      H   17    0.10440      0.00000     0.39341    0.00220     0.39560
      H   18    0.09913      0.00000     0.39962    0.00125     0.40087
      H   19    0.10202      0.00000     0.39605    0.00193     0.39798
      H   20    0.10151      0.00000     0.39645    0.00204     0.39849
      H   21    0.10265      0.00000     0.39638    0.00097     0.39735
      H   22    0.09332      0.00000     0.40589    0.00079     0.40668
      H   23    0.19226      0.00000     0.30301    0.00472     0.30774
      H   24    0.09766      0.00000     0.40105    0.00129     0.40234
      H   25    0.11775      0.00000     0.37978    0.00247     0.38225
      H   26    0.11468      0.00000     0.38072    0.00460     0.38532
      H   27    0.10709      0.00000     0.39131    0.00160     0.39291
      H   28    0.11067      0.00000     0.38791    0.00142     0.38933
      H   29    0.10536      0.00000     0.39342    0.00122     0.39464
      H   30    0.10085      0.00000     0.39755    0.00160     0.39915
      H   31    0.12436      0.00000     0.37369    0.00195     0.37564
      H   32    0.10501      0.00000     0.39376    0.00124     0.39499
 =======================================================================
   * Total *   -0.00000     22.99399    41.78101    0.22500    65.00000

 Normal termination of Gaussian 16 at Thu Dec 10 15:36:49 2020.
