 Gaussian 16, Revision A.03,

 -----------------------------------------------------------
 # opt freq B3LYP/6-31G(d) empiricaldispersion=gd3bj scf=xqc
 -----------------------------------------------------------

 -------------------------------
 CID_127247572_JID_9320_neutraal
 -------------------------------
 Symbolic Z-matrix:
 Charge =  0 Multiplicity = 1

 SCF Done:  E(RB3LYP) =  -1524.30075189     A.U. after   16 cycles
 SCF Done:  E(RB3LYP) =  -1524.30897461     A.U. after   13 cycles
 SCF Done:  E(RB3LYP) =  -1524.31009153     A.U. after   13 cycles
 SCF Done:  E(RB3LYP) =  -1524.31096740     A.U. after   12 cycles
 SCF Done:  E(RB3LYP) =  -1524.31107529     A.U. after   12 cycles
 SCF Done:  E(RB3LYP) =  -1524.31147614     A.U. after   12 cycles
 SCF Done:  E(RB3LYP) =  -1524.31190238     A.U. after   13 cycles
 SCF Done:  E(RB3LYP) =  -1524.31235937     A.U. after   13 cycles
 SCF Done:  E(RB3LYP) =  -1524.31264162     A.U. after   12 cycles
 SCF Done:  E(RB3LYP) =  -1524.31279270     A.U. after   12 cycles
 SCF Done:  E(RB3LYP) =  -1524.31547138     A.U. after    8 cycles
 SCF Done:  E(RB3LYP) =  -1524.31547144     A.U. after    6 cycles
 SCF Done:  E(RB3LYP) =  -1524.31547153     A.U. after    7 cycles
 SCF Done:  E(RB3LYP) =  -1524.31547159     A.U. after    6 cycles
 SCF Done:  E(RB3LYP) =  -1524.31547161     A.U. after    6 cycles
 Optimization completed.
    -- Stationary point found.
 Normal termination of Gaussian 16 at Sat Dec 12 10:14:36 2020.

 --------------------------------------------------------------------
 #N Geom=AllCheck Guess=TCheck SCRF=Check GenChk RB3LYP/6-31G(d) Freq
 --------------------------------------------------------------------

 Structure from the checkpoint file:  "JID_9320.chk"
 -------------------------------
 CID_127247572_JID_9320_neutraal
 -------------------------------
 Charge =  0 Multiplicity = 1

 SCF Done:  E(RB3LYP) =  -1524.31547161     A.U. after    1 cycles

  Exact polarizability: 220.993 -25.059 153.305   6.267  21.926 159.611
 Approx polarizability: 329.274 -48.139 244.971  23.172  61.186 324.496

                      1                      2                      3
                      A                      A                      A
 Frequencies --     32.6842                42.1156                53.2888
 Red. masses --      6.4475                 5.1238                 9.7922
 Frc consts  --      0.0041                 0.0054                 0.0164
 IR Inten    --      0.1835                 0.7161                 1.6317

                      4                      5                      6
                      A                      A                      A
 Frequencies --     71.0270                91.0317               115.6570
 Red. masses --      6.0090                 4.8585                 1.4431
 Frc consts  --      0.0179                 0.0237                 0.0114
 IR Inten    --      0.4355                 1.3231                 0.9118

                      7                      8                      9
                      A                      A                      A
 Frequencies --    126.6956               141.8019               173.9328
 Red. masses --      2.3945                 5.0054                 4.9610
 Frc consts  --      0.0226                 0.0593                 0.0884
 IR Inten    --      0.3507                 0.9768                 0.9309

                     10                     11                     12
                      A                      A                      A
 Frequencies --    183.2805               234.4505               249.7719
 Red. masses --      4.2448                 4.3225                 3.1294
 Frc consts  --      0.0840                 0.1400                 0.1150
 IR Inten    --      0.7333                 4.1153                 4.1509

                     13                     14                     15
                      A                      A                      A
 Frequencies --    257.7650               294.3880               336.7693
 Red. masses --      3.5723                 4.4978                 2.9229
 Frc consts  --      0.1398                 0.2297                 0.1953
 IR Inten    --      0.1509                 3.1591                 0.1694

                     16                     17                     18
                      A                      A                      A
 Frequencies --    363.7892               377.7318               430.3776
 Red. masses --      3.1641                 3.9694                 3.2058
 Frc consts  --      0.2467                 0.3337                 0.3499
 IR Inten    --      0.7474                 1.2557                11.7041

                     19                     20                     21
                      A                      A                      A
 Frequencies --    449.3308               463.4767               491.1533
 Red. masses --      3.5733                 3.9268                 3.9297
 Frc consts  --      0.4251                 0.4970                 0.5585
 IR Inten    --      0.4850                 9.5753                 0.9015

                     22                     23                     24
                      A                      A                      A
 Frequencies --    524.9050               541.5204               552.3339
 Red. masses --      4.3025                 4.1055                 6.3715
 Frc consts  --      0.6984                 0.7093                 1.1452
 IR Inten    --      9.1066                 1.8778                 4.9425

                     25                     26                     27
                      A                      A                      A
 Frequencies --    558.9172               603.3396               619.0431
 Red. masses --      2.7488                 2.9628                 4.6271
 Frc consts  --      0.5059                 0.6355                 1.0447
 IR Inten    --      1.0651                 9.5627                 8.5894

                     28                     29                     30
                      A                      A                      A
 Frequencies --    653.3329               662.2406               687.3254
 Red. masses --      5.8826                 5.2536                 5.7183
 Frc consts  --      1.4794                 1.3575                 1.5916
 IR Inten    --      2.5449                 5.4885                 4.6657

                     31                     32                     33
                      A                      A                      A
 Frequencies --    722.7805               741.5631               757.0290
 Red. masses --      1.3424                 1.9555                 2.9151
 Frc consts  --      0.4132                 0.6336                 0.9843
 IR Inten    --     39.0224                 3.4925                 1.2785

                     34                     35                     36
                      A                      A                      A
 Frequencies --    768.7363               777.0094               835.6588
 Red. masses --      2.8891                 3.2265                 3.1711
 Frc consts  --      1.0059                 1.1477                 1.3047
 IR Inten    --     28.7701                16.9964                 0.5383

                     37                     38                     39
                      A                      A                      A
 Frequencies --    862.8116               873.9025               876.8272
 Red. masses --      4.0219                 2.0421                 1.6617
 Frc consts  --      1.7641                 0.9189                 0.7527
 IR Inten    --      7.9386                 2.7316                16.8038

                     40                     41                     42
                      A                      A                      A
 Frequencies --    885.6158               888.6349               895.2925
 Red. masses --      2.5498                 1.3266                 3.0976
 Frc consts  --      1.1783                 0.6172                 1.4629
 IR Inten    --      5.8793                 2.1235                 4.4960

                     43                     44                     45
                      A                      A                      A
 Frequencies --    907.5146               941.6002               979.0244
 Red. masses --      2.8191                 2.1451                 3.6648
 Frc consts  --      1.3679                 1.1205                 2.0696
 IR Inten    --      0.9053                 2.7544                12.5802

                     46                     47                     48
                      A                      A                      A
 Frequencies --   1021.6377              1030.8049              1033.7761
 Red. masses --      1.4318                 2.2333                 2.2247
 Frc consts  --      0.8805                 1.3981                 1.4008
 IR Inten    --      3.4188                36.9643                11.7691

                     49                     50                     51
                      A                      A                      A
 Frequencies --   1072.4053              1076.6834              1091.1883
 Red. masses --      2.1753                 1.4921                 1.5561
 Frc consts  --      1.4739                 1.0191                 1.0917
 IR Inten    --     17.4645                 3.0020                12.3226

                     52                     53                     54
                      A                      A                      A
 Frequencies --   1106.3150              1117.0835              1142.6446
 Red. masses --      2.0350                 1.7297                 2.1053
 Frc consts  --      1.4675                 1.2717                 1.6195
 IR Inten    --     25.0303                10.5749                 6.8326

                     55                     56                     57
                      A                      A                      A
 Frequencies --   1184.3926              1195.5323              1226.7082
 Red. masses --      1.6661                 1.8572                 2.1753
 Frc consts  --      1.3770                 1.5639                 1.9287
 IR Inten    --     12.2730                 6.0368                23.9088

                     58                     59                     60
                      A                      A                      A
 Frequencies --   1234.1782              1237.9440              1259.4106
 Red. masses --      1.7372                 1.3845                 1.6929
 Frc consts  --      1.5590                 1.2501                 1.5821
 IR Inten    --     19.7363                21.0016                81.9777

                     61                     62                     63
                      A                      A                      A
 Frequencies --   1288.5072              1304.4306              1328.5473
 Red. masses --      1.4907                 1.9077                 1.4081
 Frc consts  --      1.4582                 1.9125                 1.4643
 IR Inten    --     24.7081                77.2661                16.8958

                     64                     65                     66
                      A                      A                      A
 Frequencies --   1359.3329              1367.3313              1375.8333
 Red. masses --      1.8372                 1.5673                 1.3566
 Frc consts  --      2.0001                 1.7264                 1.5130
 IR Inten    --      0.2432                13.1912                 5.3440

                     67                     68                     69
                      A                      A                      A
 Frequencies --   1397.7702              1405.5760              1411.2019
 Red. masses --      1.5362                 1.4361                 2.2000
 Frc consts  --      1.7683                 1.6716                 2.5813
 IR Inten    --      7.6063                 4.3858                 4.3382

                     70                     71                     72
                      A                      A                      A
 Frequencies --   1419.5568              1443.5117              1448.8659
 Red. masses --      1.5336                 1.3536                 2.2261
 Frc consts  --      1.8208                 1.6618                 2.7533
 IR Inten    --      5.9636                12.1471               135.0051

                     73                     74                     75
                      A                      A                      A
 Frequencies --   1485.8294              1493.7819              1504.1071
 Red. masses --      5.2987                 3.3930                 1.1183
 Frc consts  --      6.8921                 4.4608                 1.4906
 IR Inten    --      7.0917                55.8168                18.1115

                     76                     77                     78
                      A                      A                      A
 Frequencies --   1512.4117              1516.2973              1523.8900
 Red. masses --      1.0442                 1.1000                 1.1149
 Frc consts  --      1.4073                 1.4900                 1.5254
 IR Inten    --      4.4970                 1.7672                20.4027

                     79                     80                     81
                      A                      A                      A
 Frequencies --   1529.3491              1532.8808              1558.0581
 Red. masses --      1.1796                 1.2259                 5.4693
 Frc consts  --      1.6255                 1.6972                 7.8225
 IR Inten    --      3.6462                49.5969                23.4155

                     82                     83                     84
                      A                      A                      A
 Frequencies --   1620.1130              1720.2426              3038.5986
 Red. masses --      5.3755                11.0911                 1.0673
 Frc consts  --      8.3130                19.3377                 5.8059
 IR Inten    --      7.4369               191.0049                15.4107

                     85                     86                     87
                      A                      A                      A
 Frequencies --   3043.6881              3050.4273              3053.5690
 Red. masses --      1.0376                 1.0727                 1.0782
 Frc consts  --      5.6633                 5.8809                 5.9232
 IR Inten    --     35.5424                15.2332                20.8028

                     88                     89                     90
                      A                      A                      A
 Frequencies --   3063.2880              3066.4884              3083.4932
 Red. masses --      1.0665                 1.0747                 1.0995
 Frc consts  --      5.8961                 5.9540                 6.1593
 IR Inten    --     34.0216                85.9755                24.0698

                     91                     92                     93
                      A                      A                      A
 Frequencies --   3095.5927              3116.3771              3129.7589
 Red. masses --      1.1007                 1.0991                 1.1009
 Frc consts  --      6.2143                 6.2888                 6.3534
 IR Inten    --     21.1631                44.4678                17.0444

                     94                     95                     96
                      A                      A                      A
 Frequencies --   3171.0648              3200.5035              3234.1660
 Red. masses --      1.0940                 1.0916                 1.0913
 Frc consts  --      6.4818                 6.5879                 6.7257
 IR Inten    --      4.5192                 2.2066                 6.8688

                     97                     98                     99
                      A                      A                      A
 Frequencies --   3242.0701              3257.6468              3280.3553
 Red. masses --      1.0928                 1.0937                 1.0980
 Frc consts  --      6.7679                 6.8387                 6.9611
 IR Inten    --      0.5681                 0.9816                 1.4833

 - Thermochemistry -
 -------------------
 Temperature   298.150 Kelvin.  Pressure   1.00000 Atm.
 Atom     1 has atomic number  6 and mass  12.00000

 Molecular mass:   292.07041 amu.
 Principal axes and moments of inertia in atomic units:
                           1         2         3
     Eigenvalues --  3613.130985805.379387255.01156
           X            0.99881  -0.04722  -0.01195
           Y            0.04735   0.99882   0.01111
           Z            0.01141  -0.01166   0.99987
 This molecule is an asymmetric top.
 Rotational symmetry number  1.
 Warning -- assumption of classical behavior for rotation
           may cause significant error
 Rotational temperatures (Kelvin)      0.02397     0.01492     0.01194
 Rotational constants (GHZ):           0.49950     0.31087     0.24876
 Zero-point vibrational energy     740504.6 (Joules/Mol)
                                  176.98484 (Kcal/Mol)
 Warning -- explicit consideration of  27 degrees of freedom as
           vibrations may cause significant error
 Vibrational temperatures:     47.03    60.59    76.67   102.19   130.97
          (Kelvin)            166.40   182.29   204.02   250.25   263.70
                              337.32   359.37   370.87   423.56   484.54
                              523.41   543.47   619.22   646.49   666.84
                              706.66   755.22   779.13   794.69   804.16
                              868.07   890.66   940.00   952.82   988.91
                             1039.92  1066.94  1089.20  1106.04  1117.94
                             1202.33  1241.39  1257.35  1261.56  1274.20
                             1278.55  1288.13  1305.71  1354.75  1408.60
                             1469.91  1483.10  1487.37  1542.95  1549.11
                             1569.98  1591.74  1607.23  1644.01  1704.08
                             1720.10  1764.96  1775.71  1781.13  1812.01
                             1853.87  1876.78  1911.48  1955.78  1967.28
                             1979.52  2011.08  2022.31  2030.40  2042.43
                             2076.89  2084.59  2137.78  2149.22  2164.07
                             2176.02  2181.61  2192.54  2200.39  2205.47
                             2241.70  2330.98  2475.05  4371.87  4379.19
                             4388.88  4393.40  4407.39  4411.99  4436.46
                             4453.87  4483.77  4503.02  4562.46  4604.81
                             4653.24  4664.62  4687.03  4719.70

 Zero-point correction=                           0.282043 (Hartree/Particle)
 Thermal correction to Energy=                    0.299159
 Thermal correction to Enthalpy=                  0.300103
 Thermal correction to Gibbs Free Energy=         0.236245
 Sum of electronic and zero-point Energies=          -1524.033428
 Sum of electronic and thermal Energies=             -1524.016313
 Sum of electronic and thermal Enthalpies=           -1524.015369
 Sum of electronic and thermal Free Energies=        -1524.079227

                     E (Thermal)             CV                S
                      KCal/Mol        Cal/Mol-Kelvin    Cal/Mol-Kelvin
 Total                  187.725             66.372            134.400
 Electronic               0.000              0.000              0.000
 Translational            0.889              2.981             42.913
 Rotational               0.889              2.981             33.386
 Vibrational            185.947             60.411             58.101
 Vibration     1          0.594              1.983              5.659
 Vibration     2          0.595              1.980              5.157
 Vibration     3          0.596              1.976              4.691
 Vibration     4          0.598              1.968              4.125
 Vibration     5          0.602              1.956              3.638
 Vibration     6          0.608              1.936              3.172
 Vibration     7          0.611              1.926              2.996
 Vibration     8          0.615              1.911              2.779
 Vibration     9          0.627              1.875              2.393
 Vibration    10          0.631              1.863              2.295
 Vibration    11          0.654              1.788              1.845
 Vibration    12          0.663              1.763              1.732
 Vibration    13          0.667              1.750              1.677
 Vibration    14          0.689              1.684              1.449
 Vibration    15          0.717              1.602              1.227
 Vibration    16          0.737              1.547              1.106
 Vibration    17          0.748              1.518              1.048
 Vibration    18          0.792              1.404              0.857
 Vibration    19          0.808              1.362              0.798
 Vibration    20          0.821              1.331              0.756
 Vibration    21          0.847              1.270              0.681
 Vibration    22          0.880              1.195              0.599
 Vibration    23          0.897              1.158              0.562
 Vibration    24          0.908              1.135              0.539
 Vibration    25          0.914              1.120              0.526
 Vibration    26          0.962              1.025              0.444
 Vibration    27          0.979              0.992              0.418

 Optimization completed.
    -- Stationary point found.
 Normal termination of Gaussian 16 at Sat Dec 12 10:34:42 2020.

 ----------------------------------------------------------------------
 # B3LYP/6-311++G(d,p) empiricaldispersion=gd3bj scf=xqc pop=npa geom=c
 heck
 ----------------------------------------------------------------------

 ---------------------------------------
 CID_127247572_JID_9320_Energie_neutraal
 ---------------------------------------
 Structure from the checkpoint file:  "JID_9320.chk"
 Charge =  0 Multiplicity = 1

 SCF Done:  E(RB3LYP) =  -1524.56075534     A.U. after   17 cycles
 Normal termination of Gaussian 16 at Sat Dec 12 10:44:24 2020.

 ----------------------------------------------------------------------
 # B3LYP/6-311++G(d,p) empiricaldispersion=gd3bj scf=xqc pop=npa geom=c
 heck
 ----------------------------------------------------------------------

 -------------------------------------
 CID_127247572_JID_9320_Energie_kation
 -------------------------------------
 Structure from the checkpoint file:  "JID_9320.chk"
 Charge =  1 Multiplicity = 2

 SCF Done:  E(UB3LYP) =  -1524.26964874     A.U. after   30 cycles
 Normal termination of Gaussian 16 at Sat Dec 12 11:09:16 2020.
 Gaussian 16:  ES64L-G16RevA.03 25-Dec-2016

 ----------------------------------------------------------------------
 # B3LYP/6-311++G(d,p) empiricaldispersion=gd3bj scf=xqc pop=npa geom=c
 heck
 ----------------------------------------------------------------------

 ------------------------------------
 CID_127247572_JID_9320_Energie_anion
 ------------------------------------
 Structure from the checkpoint file:  "JID_9320.chk"
 Charge = -1 Multiplicity = 2

                         Standard orientation:
 ---------------------------------------------------------------------
 Center     Atomic      Atomic             Coordinates (Angstroms)
 Number     Number       Type             X           Y           Z
 ---------------------------------------------------------------------
      1          6           0       -4.272039    0.690286    0.850813
      2          6           0       -3.164377   -0.201738    0.365356
      3          6           0       -3.232781   -1.002098   -0.745631
      4         16           0       -1.761531   -1.872156   -1.032737
      5          6           0       -1.012904   -1.145954    0.370299
      6          6           0       -1.892821   -0.308806    1.007408
      7          6           0        0.354300   -1.405913    0.893626
      8          8           0        0.534000   -1.409513    2.110353
      9          7           0        1.394342   -1.637702    0.009604
     10          6           0        2.725073   -1.758709    0.618422
     11          6           0        3.351049   -0.371442    0.797717
     12          6           0        3.378753    0.401001   -0.533620
     13          6           0        2.039190    0.377615   -1.297961
     14          6           0        1.463946   -1.060499   -1.332252
     15          6           0        0.970058    1.322195   -0.804602
     16          7           0       -0.112154    1.555162   -1.497319
     17          6           0       -0.962597    2.409153   -0.839711
     18          6           0       -0.534420    2.851700    0.379468
     19         16           0        1.013232    2.162702    0.740274
     20          1           0       -4.571436    0.434310    1.874206
     21          1           0       -3.951281    1.739515    0.860071
     22          1           0       -5.156601    0.613732    0.211704
     23          1           0       -4.074781   -1.135665   -1.412288
     24          1           0       -1.616924    0.221527    1.910521
     25          1           0        3.336569   -2.378203   -0.049796
     26          1           0        2.619377   -2.268115    1.575044
     27          1           0        4.371790   -0.467594    1.186825
     28          1           0        2.769869    0.162262    1.556011
     29          1           0        3.704842    1.435461   -0.373887
     30          1           0        4.129099   -0.062574   -1.187686
     31          1           0        2.224320    0.669873   -2.339206
     32          1           0        0.486381   -1.044850   -1.805314
     33          1           0        2.121473   -1.699211   -1.933965
     34          1           0       -1.903726    2.678411   -1.304494
     35          1           0       -1.026064    3.525508    1.066852
 ---------------------------------------------------------------------

 SCF Done:  E(UB3LYP) =  -1524.55767060     A.U. after   33 cycles
 SCF Done:  E(UB3LYP) =  -1524.55767071     a.u. after    2 cycles

 The electronic state is 2-A.
 Alpha  occ. eigenvalues --  -88.74763 -88.73973 -18.94719 -14.20838 -14.17568
 Alpha  occ. eigenvalues --  -10.13165 -10.09766 -10.08448 -10.08440 -10.07464
 Alpha  occ. eigenvalues --  -10.07352 -10.06665 -10.06653 -10.06423 -10.06029
 Alpha  occ. eigenvalues --  -10.05954 -10.05943 -10.05492 -10.03378  -7.83421
 Alpha  occ. eigenvalues --   -7.82617  -5.79689  -5.79343  -5.79048  -5.78915
 Alpha  occ. eigenvalues --   -5.78552  -5.78209  -0.90320  -0.83281  -0.81179
 Alpha  occ. eigenvalues --   -0.74907  -0.69555  -0.66948  -0.65900  -0.64645
 Alpha  occ. eigenvalues --   -0.60457  -0.60297  -0.57175  -0.55054  -0.52624
 Alpha  occ. eigenvalues --   -0.49735  -0.46218  -0.45617  -0.42703  -0.41215
 Alpha  occ. eigenvalues --   -0.39838  -0.37850  -0.37621  -0.35266  -0.34954
 Alpha  occ. eigenvalues --   -0.34070  -0.32637  -0.31376  -0.31137  -0.30740
 Alpha  occ. eigenvalues --   -0.30305  -0.29097  -0.28707  -0.27510  -0.27147
 Alpha  occ. eigenvalues --   -0.26450  -0.25181  -0.25038  -0.24697  -0.23971
 Alpha  occ. eigenvalues --   -0.23399  -0.22859  -0.21940  -0.21646  -0.20811
 Alpha  occ. eigenvalues --   -0.15624  -0.14708  -0.13610  -0.12415  -0.12123
 Alpha  occ. eigenvalues --   -0.10941  -0.10313   0.04932
 Alpha virt. eigenvalues --    0.06743   0.07419   0.08725   0.08921   0.09361
 Alpha virt. eigenvalues --    0.09446   0.09881   0.10419   0.11234   0.11606
 Alpha virt. eigenvalues --    0.11957   0.12006   0.12752   0.13254   0.13531

  Beta  occ. eigenvalues --  -88.74733 -88.73944 -18.94585 -14.20792 -14.17474
  Beta  occ. eigenvalues --  -10.13014 -10.09574 -10.08447 -10.08404 -10.07507
  Beta  occ. eigenvalues --  -10.07364 -10.06656 -10.06456 -10.06416 -10.05945
  Beta  occ. eigenvalues --  -10.05940 -10.05725 -10.05536 -10.03246  -7.83394
  Beta  occ. eigenvalues --   -7.82591  -5.79679  -5.79333  -5.78941  -5.78903
  Beta  occ. eigenvalues --   -5.78539  -5.78113  -0.90058  -0.83068  -0.81034
  Beta  occ. eigenvalues --   -0.74708  -0.69466  -0.66735  -0.65781  -0.64591
  Beta  occ. eigenvalues --   -0.60188  -0.60031  -0.57007  -0.54926  -0.52539
  Beta  occ. eigenvalues --   -0.49540  -0.45893  -0.45444  -0.42539  -0.41047
  Beta  occ. eigenvalues --   -0.39708  -0.37734  -0.37519  -0.35055  -0.34915
  Beta  occ. eigenvalues --   -0.33969  -0.32529  -0.31328  -0.31036  -0.30624
  Beta  occ. eigenvalues --   -0.30137  -0.28927  -0.28502  -0.27235  -0.26911
  Beta  occ. eigenvalues --   -0.26133  -0.25055  -0.24935  -0.24565  -0.23636
  Beta  occ. eigenvalues --   -0.23258  -0.22613  -0.21668  -0.21571  -0.20558
  Beta  occ. eigenvalues --   -0.14944  -0.14540  -0.13283  -0.11781  -0.11593
  Beta  occ. eigenvalues --   -0.10309  -0.09433
  Beta virt. eigenvalues --    0.07108   0.07334   0.08835   0.08964   0.09365
  Beta virt. eigenvalues --    0.09432   0.09810   0.10362   0.10619   0.11297
  Beta virt. eigenvalues --    0.11624   0.11951   0.12029   0.12733   0.13239

 Mulliken charges and spin densities:
               1          2
     1  C   -0.333057  -0.147168
     2  C   -0.180570   0.040841
     3  C   -0.576327   0.108350
     4  S   -0.231639   0.086044
     5  C    0.107416  -0.016795
     6  C    0.776277   0.098144
     7  C   -0.859430   0.163569
     8  O   -0.278714   0.049835
     9  N    0.168048   0.000747
    10  C   -0.134892  -0.125468
    11  C   -0.271817   0.139843
    12  C   -0.236706  -0.614764
    13  C    0.380041   0.165198
    14  C   -0.131582  -0.243859
    15  C   -0.177809   0.088821
    16  N   -0.067986   0.043729
    17  C    0.115382  -0.090838
    18  C   -0.696627   0.122692
    19  S    0.107366   0.092760
    20  H    0.118443   0.026523
    21  H    0.136214   0.008519
    22  H    0.091824   0.030291
    23  H    0.175892   0.001814
    24  H    0.192559  -0.016936
    25  H    0.066668   0.070471
    26  H    0.184817   0.008746
    27  H    0.137125   0.007269
    28  H    0.188549   0.004496
    29  H    0.062463   0.080486
    30  H   -0.048907   0.197887
    31  H   -0.014644   0.274077
    32  H    0.139214  -0.071938
    33  H   -0.196422   0.360530
    34  H    0.101354   0.052363
    35  H    0.187478   0.003719
 Sum of Mulliken charges =  -1.00000   1.00000

 Dipole moment (field-independent basis, Debye):
    X=             -0.2142    Y=              1.4433    Z=              0.1905  Tot=              1.4714
 Quadrupole moment (field-independent basis, Debye-Ang):
   XX=           -154.3516   YY=           -154.9208   ZZ=           -156.0493
   XY=             -4.8674   XZ=              4.0170   YZ=              7.7565

 Summary of Natural Population Analysis:

                                       Natural Population
                Natural  -----------------------------------------------
    Atom  No    Charge         Core      Valence    Rydberg      Total
 -----------------------------------------------------------------------
      C    1   -0.28586      0.99963     2.28136    0.00486     3.28586
      C    2   -0.06271      0.99948     2.05413    0.00910     3.06271
      C    3   -0.15231      0.99946     2.14204    0.01081     3.15231
      S    4    0.20441      4.99942     2.77509    0.02108     7.79559
      C    5   -0.12892      0.99941     2.11552    0.01398     3.12892
      C    6   -0.07548      0.99944     2.06644    0.00960     3.07548
      C    7    0.34927      0.99955     1.62686    0.02433     2.65073
      O    8   -0.31558      0.99988     3.31084    0.00486     4.31558
      N    9   -0.25520      0.99966     2.74472    0.01083     3.75520
      C   10   -0.08720      0.99962     2.07610    0.01148     3.08720
      C   11   -0.20163      0.99962     2.19469    0.00732     3.20163
      C   12   -0.18961      0.99962     2.18046    0.00952     3.18961
      C   13   -0.14007      0.99952     2.12733    0.01322     3.14007
      C   14   -0.07952      0.99958     2.06736    0.01258     3.07952
      C   15    0.06365      0.99957     1.91603    0.02076     2.93635
      N   16   -0.23719      0.99964     2.72566    0.01188     3.73719
      C   17   -0.02883      0.99954     2.01479    0.01450     3.02883
      C   18   -0.18329      0.99954     2.17454    0.00921     3.18329
      S   19    0.19211      4.99940     2.78898    0.01951     7.80789
      H   20    0.09790      0.00000     0.40083    0.00127     0.40210
      H   21    0.09940      0.00000     0.39868    0.00191     0.40060
      H   22    0.09681      0.00000     0.40208    0.00112     0.40319
      H   23    0.09841      0.00000     0.40081    0.00077     0.40159
      H   24    0.10903      0.00000     0.38977    0.00120     0.39097
      H   25    0.08655      0.00000     0.41243    0.00102     0.41345
      H   26    0.11188      0.00000     0.38710    0.00101     0.38812
      H   27    0.09281      0.00000     0.40636    0.00083     0.40719
      H   28    0.10844      0.00000     0.39022    0.00133     0.39156
      H   29    0.10183      0.00000     0.39719    0.00098     0.39817
      H   30    0.09529      0.00000     0.40349    0.00122     0.40471
      H   31    0.11139      0.00000     0.38645    0.00216     0.38861
      H   32    0.11509      0.00000     0.38258    0.00232     0.38491
      H   33    0.09086      0.00000     0.40794    0.00120     0.40914
      H   34    0.09537      0.00000     0.40330    0.00133     0.40463
      H   35    0.10288      0.00000     0.39620    0.00091     0.39712
 =======================================================================
   * Total *   -0.00000     26.99159    49.74839    0.26001    77.00000

 Normal termination of Gaussian 16 at Sat Dec 12 12:01:14 2020.
