 Gaussian 16, Revision A.03,

 -----------------------------------------------------------
 # opt freq B3LYP/6-31G(d) empiricaldispersion=gd3bj scf=xqc
 -----------------------------------------------------------

 -------------------------------
 CID_137219244_JID_4449_neutraal
 -------------------------------
 Symbolic Z-matrix:
 Charge =  0 Multiplicity = 1

 SCF Done:  E(RB3LYP) =  -664.266968563     A.U. after   15 cycles
 SCF Done:  E(RB3LYP) =  -664.273391193     A.U. after   13 cycles
 SCF Done:  E(RB3LYP) =  -664.271054414     A.U. after   15 cycles
 SCF Done:  E(RB3LYP) =  -664.275028678     A.U. after   12 cycles
 SCF Done:  E(RB3LYP) =  -664.275791875     A.U. after   13 cycles
 SCF Done:  E(RB3LYP) =  -664.276115261     A.U. after   12 cycles
 SCF Done:  E(RB3LYP) =  -664.276281522     A.U. after   12 cycles
 SCF Done:  E(RB3LYP) =  -664.276320444     A.U. after   11 cycles
 SCF Done:  E(RB3LYP) =  -664.276340031     A.U. after   10 cycles
 SCF Done:  E(RB3LYP) =  -664.276358454     A.U. after   10 cycles
 SCF Done:  E(RB3LYP) =  -664.276537486     A.U. after   11 cycles
 SCF Done:  E(RB3LYP) =  -664.276633044     A.U. after   12 cycles
 SCF Done:  E(RB3LYP) =  -664.276631756     A.U. after   10 cycles
 SCF Done:  E(RB3LYP) =  -664.276636243     A.U. after   10 cycles
 SCF Done:  E(RB3LYP) =  -664.276636520     A.U. after    9 cycles
 SCF Done:  E(RB3LYP) =  -664.276636561     A.U. after    7 cycles
 Optimization completed.
    -- Stationary point found.
 Normal termination of Gaussian 16 at Thu Dec 10 10:06:10 2020.

 --------------------------------------------------------------------
 #N Geom=AllCheck Guess=TCheck SCRF=Check GenChk RB3LYP/6-31G(d) Freq
 --------------------------------------------------------------------

 Structure from the checkpoint file:  "JID_4449.chk"
 -------------------------------
 CID_137219244_JID_4449_neutraal
 -------------------------------
 Charge =  0 Multiplicity = 1

 SCF Done:  E(RB3LYP) =  -664.276636561     A.U. after    1 cycles

  Exact polarizability: 157.001   1.834 139.674  -9.885   3.688  71.385
 Approx polarizability: 232.447  -4.299 233.220 -23.778   5.944 110.401

                      1                      2                      3
                      A                      A                      A
 Frequencies --     22.9997                41.0326                54.0021
 Red. masses --      5.4452                 1.0584                 2.9537
 Frc consts  --      0.0017                 0.0010                 0.0051
 IR Inten    --      0.1542                 0.2215                 0.8471

                      4                      5                      6
                      A                      A                      A
 Frequencies --     61.8108                77.9343               128.6023
 Red. masses --      6.4258                 3.4016                 3.3671
 Frc consts  --      0.0145                 0.0122                 0.0328
 IR Inten    --      1.7989                 1.3406                 0.9074

                      7                      8                      9
                      A                      A                      A
 Frequencies --    146.3132               184.0690               196.1808
 Red. masses --      1.5197                 3.1527                 4.2408
 Frc consts  --      0.0192                 0.0629                 0.0962
 IR Inten    --      0.1025                 0.4547                 4.7714

                     10                     11                     12
                      A                      A                      A
 Frequencies --    266.4764               318.3208               350.4051
 Red. masses --      6.5461                 3.4145                 4.0247
 Frc consts  --      0.2739                 0.2038                 0.2912
 IR Inten    --      0.7177                 2.4444                 0.7325

                     13                     14                     15
                      A                      A                      A
 Frequencies --    368.2211               395.6134               444.8849
 Red. masses --      5.3253                 2.4797                 3.7370
 Frc consts  --      0.4254                 0.2287                 0.4358
 IR Inten    --      2.5840                18.4307                 6.4664

                     16                     17                     18
                      A                      A                      A
 Frequencies --    467.9570               498.3725               512.6492
 Red. masses --      2.2912                 1.5201                 2.4237
 Frc consts  --      0.2956                 0.2224                 0.3753
 IR Inten    --     57.4003                81.2393                 0.1352

                     19                     20                     21
                      A                      A                      A
 Frequencies --    550.6453               556.5206               609.8425
 Red. masses --      3.4600                 4.3938                 4.0730
 Frc consts  --      0.6181                 0.8018                 0.8925
 IR Inten    --     28.7294                 7.2242                 4.3095

                     22                     23                     24
                      A                      A                      A
 Frequencies --    637.4298               647.6316               706.8440
 Red. masses --      2.2489                 3.4610                 6.8176
 Frc consts  --      0.5384                 0.8553                 2.0069
 IR Inten    --     59.2701                18.7630                 5.0868

                     25                     26                     27
                      A                      A                      A
 Frequencies --    743.8494               801.3451               838.3456
 Red. masses --      5.0410                 2.7564                 5.1652
 Frc consts  --      1.6434                 1.0429                 2.1389
 IR Inten    --      4.1664                 5.9158                13.7415

                     28                     29                     30
                      A                      A                      A
 Frequencies --    853.4637               911.3956               915.9833
 Red. masses --      1.6144                 1.3673                 3.9486
 Frc consts  --      0.6928                 0.6691                 1.9520
 IR Inten    --      9.1541                15.3582                10.2390

                     31                     32                     33
                      A                      A                      A
 Frequencies --    952.2088               977.2856               993.7995
 Red. masses --      6.1721                 1.3334                 2.6522
 Frc consts  --      3.2972                 0.7504                 1.5433
 IR Inten    --     87.9245                 0.4315                70.3632

                     34                     35                     36
                      A                      A                      A
 Frequencies --   1039.4470              1059.8201              1071.0338
 Red. masses --      1.5951                 2.0248                 1.7158
 Frc consts  --      1.0154                 1.3400                 1.1597
 IR Inten    --     22.1731                13.6977                 6.8405

                     37                     38                     39
                      A                      A                      A
 Frequencies --   1073.8421              1140.1968              1196.4149
 Red. masses --      1.5720                 2.0916                 1.6054
 Frc consts  --      1.0680                 1.6021                 1.3540
 IR Inten    --      5.2331                13.2927                 2.0150

                     40                     41                     42
                      A                      A                      A
 Frequencies --   1270.2155              1294.9975              1306.5960
 Red. masses --      2.2762                 3.6474                 5.1335
 Frc consts  --      2.1638                 3.6039                 5.1635
 IR Inten    --     24.5977                44.9228                 9.0221

                     43                     44                     45
                      A                      A                      A
 Frequencies --   1336.5748              1375.1654              1420.1318
 Red. masses --      2.6937                 1.3425                 2.0566
 Frc consts  --      2.8352                 1.4958                 2.4438
 IR Inten    --    265.6422                59.6993                70.3500

                     46                     47                     48
                      A                      A                      A
 Frequencies --   1425.8995              1429.4408              1441.4517
 Red. masses --      1.5219                 1.3812                 1.4209
 Frc consts  --      1.8231                 1.6628                 1.7394
 IR Inten    --     30.9703                46.7568                 3.5454

                     49                     50                     51
                      A                      A                      A
 Frequencies --   1471.1685              1501.6179              1504.5063
 Red. masses --      1.9785                 1.2261                 1.6180
 Frc consts  --      2.5230                 1.6290                 2.1578
 IR Inten    --     14.6498                 9.0467                77.4890

                     52                     53                     54
                      A                      A                      A
 Frequencies --   1506.0048              1512.8526              1521.6895
 Red. masses --      1.3016                 1.0587                 1.1834
 Frc consts  --      1.7393                 1.4277                 1.6145
 IR Inten    --     48.0170                 6.2617                16.2591

                     55                     56                     57
                      A                      A                      A
 Frequencies --   1619.3067              1643.6988              1723.8727
 Red. masses --      5.0881                 6.9411                 5.9025
 Frc consts  --      7.8607                11.0490                10.3347
 IR Inten    --     24.0748                 4.1487                 1.9331

                     58                     59                     60
                      A                      A                      A
 Frequencies --   1805.3713              3059.7712              3076.1394
 Red. masses --      8.4184                 1.0358                 1.0364
 Frc consts  --     16.1664                 5.7136                 5.7783
 IR Inten    --    428.4038                16.5896                 2.2767

                     61                     62                     63
                      A                      A                      A
 Frequencies --   3121.3185              3140.8082              3141.6360
 Red. masses --      1.1008                 1.1036                 1.1006
 Frc consts  --      6.3186                 6.4141                 6.4001
 IR Inten    --     10.4579                15.4185                 5.5159

                     64                     65                     66
                      A                      A                      A
 Frequencies --   3178.3013              3189.6607              3193.8057
 Red. masses --      1.1031                 1.0878                 1.0886
 Frc consts  --      6.5651                 6.5207                 6.5423
 IR Inten    --      8.5007                 3.8648                 9.4675

                     67                     68                     69
                      A                      A                      A
 Frequencies --   3211.4921              3571.2799              3741.7327
 Red. masses --      1.0955                 1.0753                 1.0677
 Frc consts  --      6.6570                 8.0803                 8.8076
 IR Inten    --     13.3676                27.2522                79.6664

 - Thermochemistry -
 -------------------
 Temperature   298.150 Kelvin.  Pressure   1.00000 Atm.
 Atom     1 has atomic number  6 and mass  12.00000

 Molecular mass:   193.08513 amu.
 Principal axes and moments of inertia in atomic units:
                           1         2         3
     Eigenvalues --  1900.756543334.501234761.89020
           X            0.99956   0.02956   0.00095
           Y           -0.02956   0.99954   0.00620
           Z           -0.00077  -0.00622   0.99998
 This molecule is an asymmetric top.
 Rotational symmetry number  1.
 Warning -- assumption of classical behavior for rotation
           may cause significant error
 Rotational temperatures (Kelvin)      0.04557     0.02598     0.01819
 Rotational constants (GHZ):           0.94949     0.54123     0.37900
 Zero-point vibrational energy     517682.2 (Joules/Mol)
                                  123.72900 (Kcal/Mol)
 Warning -- explicit consideration of  21 degrees of freedom as
           vibrations may cause significant error
 Vibrational temperatures:     33.09    59.04    77.70    88.93   112.13
          (Kelvin)            185.03   210.51   264.83   282.26   383.40
                              457.99   504.15   529.79   569.20   640.09
                              673.29   717.05   737.59   792.26   800.71
                              877.43   917.12   931.80  1016.99  1070.23
                             1152.96  1206.19  1227.94  1311.29  1317.90
                             1370.02  1406.10  1429.86  1495.53  1524.84
                             1540.98  1545.02  1640.49  1721.37  1827.56
                             1863.21  1879.90  1923.03  1978.56  2043.25
                             2051.55  2056.65  2073.93  2116.68  2160.49
                             2164.65  2166.80  2176.66  2189.37  2329.82
                             2364.92  2480.27  2597.53  4402.33  4425.88
                             4490.88  4518.92  4520.11  4572.87  4589.21
                             4595.17  4620.62  5138.28  5383.52

 Zero-point correction=                           0.197175 (Hartree/Particle)
 Thermal correction to Energy=                    0.211206
 Thermal correction to Enthalpy=                  0.212150
 Thermal correction to Gibbs Free Energy=         0.154274
 Sum of electronic and zero-point Energies=           -664.079462
 Sum of electronic and thermal Energies=              -664.065431
 Sum of electronic and thermal Enthalpies=            -664.064486
 Sum of electronic and thermal Free Energies=         -664.122362

                     E (Thermal)             CV                S
                      KCal/Mol        Cal/Mol-Kelvin    Cal/Mol-Kelvin
 Total                  132.534             50.626            121.810
 Electronic               0.000              0.000              0.000
 Translational            0.889              2.981             41.679
 Rotational               0.889              2.981             31.779
 Vibrational            130.756             44.665             48.352
 Vibration     1          0.593              1.985              6.357
 Vibration     2          0.594              1.981              5.209
 Vibration     3          0.596              1.976              4.665
 Vibration     4          0.597              1.973              4.399
 Vibration     5          0.599              1.964              3.942
 Vibration     6          0.611              1.925              2.967
 Vibration     7          0.617              1.907              2.720
 Vibration     8          0.631              1.862              2.287
 Vibration     9          0.636              1.845              2.169
 Vibration    10          0.672              1.735              1.619
 Vibration    11          0.705              1.639              1.319
 Vibration    12          0.727              1.574              1.164
 Vibration    13          0.741              1.538              1.087
 Vibration    14          0.762              1.480              0.979
 Vibration    15          0.804              1.372              0.811
 Vibration    16          0.825              1.321              0.743
 Vibration    17          0.854              1.254              0.662
 Vibration    18          0.868              1.222              0.627
 Vibration    19          0.906              1.138              0.543
 Vibration    20          0.912              1.125              0.531
 Vibration    21          0.969              1.011              0.433

 Optimization completed.
    -- Stationary point found.
 Normal termination of Gaussian 16 at Thu Dec 10 10:12:50 2020.

 ----------------------------------------------------------------------
 # B3LYP/6-311++G(d,p) empiricaldispersion=gd3bj scf=xqc pop=npa geom=c
 heck
 ----------------------------------------------------------------------

 ---------------------------------------
 CID_137219244_JID_4449_Energie_neutraal
 ---------------------------------------
 Structure from the checkpoint file:  "JID_4449.chk"
 Charge =  0 Multiplicity = 1

 SCF Done:  E(RB3LYP) =  -664.472554177     A.U. after   16 cycles
 Normal termination of Gaussian 16 at Thu Dec 10 10:15:29 2020.

 ----------------------------------------------------------------------
 # B3LYP/6-311++G(d,p) empiricaldispersion=gd3bj scf=xqc pop=npa geom=c
 heck
 ----------------------------------------------------------------------

 -------------------------------------
 CID_137219244_JID_4449_Energie_kation
 -------------------------------------
 Structure from the checkpoint file:  "JID_4449.chk"
 Charge =  1 Multiplicity = 2

 SCF Done:  E(UB3LYP) =  -664.161863684     A.U. after   28 cycles
 Normal termination of Gaussian 16 at Thu Dec 10 10:21:16 2020.
 Gaussian 16:  ES64L-G16RevA.03 25-Dec-2016

 ----------------------------------------------------------------------
 # B3LYP/6-311++G(d,p) empiricaldispersion=gd3bj scf=xqc pop=npa geom=c
 heck
 ----------------------------------------------------------------------

 ------------------------------------
 CID_137219244_JID_4449_Energie_anion
 ------------------------------------
 Structure from the checkpoint file:  "JID_4449.chk"
 Charge = -1 Multiplicity = 2

                         Standard orientation:
 ---------------------------------------------------------------------
 Center     Atomic      Atomic             Coordinates (Angstroms)
 Number     Number       Type             X           Y           Z
 ---------------------------------------------------------------------
      1          6           0       -3.882642   -0.551332    0.354782
      2          6           0       -2.410276   -0.736561    0.094702
      3          7           0       -1.714497    0.370179   -0.187932
      4          6           0       -0.399606    0.279556   -0.433498
      5          6           0        0.293408   -0.949566   -0.373614
      6          6           0       -0.440573   -2.102966   -0.091749
      7          6           0       -1.806304   -2.001320    0.138237
      8          7           0        1.688152   -1.027681   -0.612627
      9          6           0        2.721960   -0.554726    0.189900
     10          8           0        3.877085   -0.828216   -0.090712
     11          6           0        2.337872    0.291485    1.386280
     12          6           0        0.332936    1.490244   -0.855568
     13          7           0        0.175213    2.722863   -0.533169
     14          8           0       -0.823770    2.941342    0.410547
     15          1           0       -4.034300    0.087717    1.231655
     16          1           0       -4.356569   -0.047536   -0.494134
     17          1           0       -4.387795   -1.506194    0.526180
     18          1           0        0.068075   -3.061884   -0.042020
     19          1           0       -2.397498   -2.884157    0.360896
     20          1           0        2.011662   -1.707329   -1.292316
     21          1           0        2.120981    1.317995    1.074311
     22          1           0        1.449326   -0.091994    1.895991
     23          1           0        3.187456    0.303987    2.070049
     24          1           0        1.158678    1.335874   -1.546391
     25          1           0       -0.769260    3.902104    0.536365
 ---------------------------------------------------------------------

 SCF Done:  E(UB3LYP) =  -664.483321438     A.U. after   32 cycles

 The electronic state is 2-A.
 Alpha  occ. eigenvalues --  -19.00821 -18.97399 -14.21634 -14.18624 -14.12768
 Alpha  occ. eigenvalues --  -10.15890 -10.06874 -10.06157 -10.05219 -10.04263
 Alpha  occ. eigenvalues --  -10.03934 -10.03296 -10.02889 -10.01416  -0.93105
 Alpha  occ. eigenvalues --   -0.92566  -0.80966  -0.77794  -0.70087  -0.64680
 Alpha  occ. eigenvalues --   -0.63395  -0.61944  -0.56656  -0.50930  -0.47319
 Alpha  occ. eigenvalues --   -0.45189  -0.43303  -0.39634  -0.36670  -0.35998
 Alpha  occ. eigenvalues --   -0.34884  -0.32340  -0.31940  -0.30463  -0.29629
 Alpha  occ. eigenvalues --   -0.28817  -0.28271  -0.27692  -0.26973  -0.26389
 Alpha  occ. eigenvalues --   -0.24807  -0.24264  -0.23306  -0.22840  -0.16404
 Alpha  occ. eigenvalues --   -0.14723  -0.14523  -0.12926  -0.12256  -0.09115
 Alpha  occ. eigenvalues --   -0.08430   0.05053
 Alpha virt. eigenvalues --    0.08577   0.09416   0.09789   0.10650   0.10764
 Alpha virt. eigenvalues --    0.11609   0.12099   0.13026   0.13294   0.14014
 Alpha virt. eigenvalues --    0.14439   0.14638   0.15199   0.15697   0.16926

  Beta  occ. eigenvalues --  -19.00731 -18.97407 -14.21614 -14.18066 -14.12299
  Beta  occ. eigenvalues --  -10.15893 -10.06937 -10.06268 -10.05219 -10.03985
  Beta  occ. eigenvalues --  -10.03931 -10.03264 -10.02701 -10.01103  -0.92705
  Beta  occ. eigenvalues --   -0.92573  -0.80838  -0.77220  -0.69521  -0.64200
  Beta  occ. eigenvalues --   -0.63061  -0.61899  -0.56393  -0.50203  -0.47143
  Beta  occ. eigenvalues --   -0.45079  -0.42998  -0.39485  -0.36414  -0.35900
  Beta  occ. eigenvalues --   -0.34714  -0.32270  -0.31694  -0.30238  -0.29477
  Beta  occ. eigenvalues --   -0.28727  -0.28222  -0.27569  -0.26590  -0.25728
  Beta  occ. eigenvalues --   -0.24423  -0.23905  -0.22767  -0.22110  -0.15938
  Beta  occ. eigenvalues --   -0.14676  -0.12806  -0.12331  -0.10986  -0.08013
  Beta  occ. eigenvalues --   -0.07528
  Beta virt. eigenvalues --    0.08538   0.09377   0.09788   0.10734   0.10749
  Beta virt. eigenvalues --    0.11524   0.11704   0.12123   0.13080   0.13302
  Beta virt. eigenvalues --    0.14129   0.14448   0.14686   0.15254   0.15818

 Mulliken charges and spin densities:
               1          2
     1  C   -0.398247   0.016025
     2  C    0.225375  -0.070105
     3  N    0.090231   0.223034
     4  C   -0.646922   0.167317
     5  C    0.217237   0.011103
     6  C   -0.558886   0.094669
     7  C   -0.102656   0.299078
     8  N   -0.189725   0.009640
     9  C    0.097500  -0.012209
    10  O   -0.368566  -0.001788
    11  C   -0.455287   0.017496
    12  C   -0.394732   0.018069
    13  N   -0.295424   0.241938
    14  O   -0.093043   0.015191
    15  H    0.137713   0.001642
    16  H    0.140143  -0.004455
    17  H    0.117906   0.001740
    18  H    0.125778  -0.014361
    19  H    0.094759  -0.016972
    20  H    0.275985   0.004332
    21  H    0.207275  -0.009298
    22  H    0.158913   0.000690
    23  H    0.162546   0.010744
    24  H    0.210539  -0.002293
    25  H    0.241588  -0.001227
 Sum of Mulliken charges =  -1.00000   1.00000

 Dipole moment (field-independent basis, Debye):
    X=             -1.0165    Y=             -1.6610    Z=              1.5404  Tot=              2.4830
 Quadrupole moment (field-independent basis, Debye-Ang):
   XX=           -123.8255   YY=            -98.9980   ZZ=            -88.9411
   XY=              1.8767   XZ=              0.2956   YZ=              5.2077

 Summary of Natural Population Analysis:

                                       Natural Population
                Natural  -----------------------------------------------
    Atom  No    Charge         Core      Valence    Rydberg      Total
 -----------------------------------------------------------------------
      C    1   -0.29289      0.99964     2.28816    0.00510     3.29289
      C    2    0.08274      0.99956     1.90557    0.01213     2.91726
      N    3   -0.16766      0.99964     2.65476    0.01326     3.66766
      C    4    0.11036      0.99947     1.87317    0.01701     2.88964
      C    5    0.03841      0.99943     1.95171    0.01045     2.96159
      C    6   -0.06747      0.99952     2.05892    0.00902     3.06747
      C    7   -0.07381      0.99951     2.06551    0.00879     3.07381
      N    8   -0.31730      0.99965     2.80614    0.01151     3.81730
      C    9    0.34779      0.99971     1.63122    0.02129     2.65221
      O   10   -0.33536      0.99987     3.32846    0.00703     4.33536
      C   11   -0.33915      0.99962     2.33542    0.00410     3.33915
      C   12   -0.00531      0.99963     1.98701    0.01867     3.00531
      N   13   -0.01589      0.99963     2.49807    0.01819     3.51589
      O   14   -0.27445      0.99989     3.26586    0.00870     4.27445
      H   15    0.10070      0.00000     0.39821    0.00109     0.39930
      H   16    0.10078      0.00000     0.39804    0.00118     0.39922
      H   17    0.09028      0.00000     0.40888    0.00084     0.40972
      H   18    0.08869      0.00000     0.40970    0.00161     0.41131
      H   19    0.08734      0.00000     0.41143    0.00123     0.41266
      H   20    0.19086      0.00000     0.30744    0.00171     0.30914
      H   21    0.12416      0.00000     0.37466    0.00118     0.37584
      H   22    0.11331      0.00000     0.38596    0.00073     0.38669
      H   23    0.10337      0.00000     0.39564    0.00100     0.39663
      H   24    0.09038      0.00000     0.40841    0.00121     0.40962
      H   25    0.22015      0.00000     0.27705    0.00281     0.27985
 =======================================================================
   * Total *   -0.00000     13.99477    36.82539    0.17983    51.00000

 Normal termination of Gaussian 16 at Thu Dec 10 10:28:09 2020.
