 Gaussian 16, Revision A.03,

 -----------------------------------------------------------
 # opt freq B3LYP/6-31G(d) empiricaldispersion=gd3bj scf=xqc
 -----------------------------------------------------------

 -------------------------------
 CID_116361054_JID_8002_neutraal
 -------------------------------
 Symbolic Z-matrix:
 Charge =  0 Multiplicity = 1

 SCF Done:  E(RB3LYP) =  -802.960905930     A.U. after   15 cycles
 SCF Done:  E(RB3LYP) =  -802.959061875     A.U. after   14 cycles
 SCF Done:  E(RB3LYP) =  -802.967592808     A.U. after   12 cycles
 SCF Done:  E(RB3LYP) =  -802.971184877     A.U. after   13 cycles
 SCF Done:  E(RB3LYP) =  -802.972730301     A.U. after   13 cycles
 SCF Done:  E(RB3LYP) =  -802.974969168     A.U. after   12 cycles
 SCF Done:  E(RB3LYP) =  -802.975674527     A.U. after   13 cycles
 SCF Done:  E(RB3LYP) =  -802.975662284     A.U. after   13 cycles
 SCF Done:  E(RB3LYP) =  -802.976108851     A.U. after   12 cycles
 SCF Done:  E(RB3LYP) =  -802.976264533     A.U. after   12 cycles
 SCF Done:  E(RB3LYP) =  -802.977128444     A.U. after   10 cycles
 SCF Done:  E(RB3LYP) =  -802.977129837     A.U. after    9 cycles
 SCF Done:  E(RB3LYP) =  -802.977130003     A.U. after    8 cycles
 SCF Done:  E(RB3LYP) =  -802.977130113     A.U. after    7 cycles
 SCF Done:  E(RB3LYP) =  -802.977130166     A.U. after    7 cycles
 Optimization completed.
    -- Stationary point found.
 Normal termination of Gaussian 16 at Fri Dec 11 18:55:54 2020.

 --------------------------------------------------------------------
 #N Geom=AllCheck Guess=TCheck SCRF=Check GenChk RB3LYP/6-31G(d) Freq
 --------------------------------------------------------------------

 Structure from the checkpoint file:  "JID_8002.chk"
 -------------------------------
 CID_116361054_JID_8002_neutraal
 -------------------------------
 Charge =  0 Multiplicity = 1

 SCF Done:  E(RB3LYP) =  -802.977130166     A.U. after    1 cycles

  Exact polarizability: 208.503   2.457 191.927   5.469  -0.066 112.850
 Approx polarizability: 293.749   9.950 302.336  11.797   3.446 164.612

                      1                      2                      3
                      A                      A                      A
 Frequencies --     31.2947                47.6948                65.3634
 Red. masses --      4.0012                 3.6995                 4.7490
 Frc consts  --      0.0023                 0.0050                 0.0120
 IR Inten    --      0.1890                 1.9562                 2.3501

                      4                      5                      6
                      A                      A                      A
 Frequencies --     72.5108                90.4277               109.4176
 Red. masses --      3.6214                 1.0779                 3.8748
 Frc consts  --      0.0112                 0.0052                 0.0273
 IR Inten    --      0.9717                 0.7654                 0.6009

                      7                      8                      9
                      A                      A                      A
 Frequencies --    132.0737               179.1926               197.9128
 Red. masses --      3.0750                 3.0745                 4.6191
 Frc consts  --      0.0316                 0.0582                 0.1066
 IR Inten    --      0.1019                 1.4860                 9.2220

                     10                     11                     12
                      A                      A                      A
 Frequencies --    216.6961               228.5341               234.3010
 Red. masses --      4.7410                 1.0854                 1.5270
 Frc consts  --      0.1312                 0.0334                 0.0494
 IR Inten    --      2.8819                 0.2613                 0.7325

                     13                     14                     15
                      A                      A                      A
 Frequencies --    251.5359               259.4829               266.6209
 Red. masses --      1.3462                 1.3310                 3.7701
 Frc consts  --      0.0502                 0.0528                 0.1579
 IR Inten    --      0.7870                 1.3287                 8.3445

                     16                     17                     18
                      A                      A                      A
 Frequencies --    281.3487               297.6851               312.5647
 Red. masses --      1.4612                 1.4113                 2.9368
 Frc consts  --      0.0681                 0.0737                 0.1690
 IR Inten    --      3.6965                 1.0387                 5.5471

                     19                     20                     21
                      A                      A                      A
 Frequencies --    325.1178               344.0805               361.6000
 Red. masses --      2.9003                 2.6197                 1.9491
 Frc consts  --      0.1806                 0.1827                 0.1502
 IR Inten    --      4.7240                20.4558                26.4453

                     22                     23                     24
                      A                      A                      A
 Frequencies --    366.2950               374.6577               402.9519
 Red. masses --      2.3299                 2.6714                 2.9066
 Frc consts  --      0.1842                 0.2209                 0.2781
 IR Inten    --     10.3381                19.5805                17.9185

                     25                     26                     27
                      A                      A                      A
 Frequencies --    425.5006               430.5041               473.1382
 Red. masses --      1.5412                 1.8904                 2.5966
 Frc consts  --      0.1644                 0.2064                 0.3425
 IR Inten    --    111.0825               103.9139                 9.4850

                     28                     29                     30
                      A                      A                      A
 Frequencies --    488.8808               530.0966               543.9421
 Red. masses --      3.4852                 2.1047                 4.2286
 Frc consts  --      0.4908                 0.3485                 0.7371
 IR Inten    --      4.9737                22.0597                 3.1215

                     31                     32                     33
                      A                      A                      A
 Frequencies --    571.8793               577.5711               592.5616
 Red. masses --      2.2936                 2.1164                 3.6190
 Frc consts  --      0.4419                 0.4160                 0.7487
 IR Inten    --      2.0320                12.3392                 1.7536

                     34                     35                     36
                      A                      A                      A
 Frequencies --    612.2547               638.5959               663.4036
 Red. masses --      4.1867                 3.6063                 1.2159
 Frc consts  --      0.9247                 0.8665                 0.3153
 IR Inten    --     17.9181                14.0603                47.4498

                     37                     38                     39
                      A                      A                      A
 Frequencies --    696.6667               731.3207               743.3109
 Red. masses --      3.0007                 3.3564                 4.9036
 Frc consts  --      0.8581                 1.0576                 1.5963
 IR Inten    --     17.1594                 2.3147                 1.6595

                     40                     41                     42
                      A                      A                      A
 Frequencies --    786.2344               800.6772               828.0505
 Red. masses --      4.0278                 6.5321                 1.2816
 Frc consts  --      1.4670                 2.4673                 0.5177
 IR Inten    --     24.5791                31.6742                 4.5988

                     43                     44                     45
                      A                      A                      A
 Frequencies --    884.7702               931.3209               949.0069
 Red. masses --      2.7549                 2.3769                 2.0582
 Frc consts  --      1.2706                 1.2146                 1.0921
 IR Inten    --      4.8442                22.2681                 7.1872

                     46                     47                     48
                      A                      A                      A
 Frequencies --    953.3092               970.0510              1009.6016
 Red. masses --      1.4767                 1.1934                 4.1872
 Frc consts  --      0.7907                 0.6616                 2.5146
 IR Inten    --      9.1438                82.8489                 0.3048

                     49                     50                     51
                      A                      A                      A
 Frequencies --   1017.1195              1031.9294              1043.9970
 Red. masses --      1.5677                 1.5030                 1.3243
 Frc consts  --      0.9555                 0.9430                 0.8504
 IR Inten    --      6.4796                 4.9433                 2.5935

                     52                     53                     54
                      A                      A                      A
 Frequencies --   1058.4670              1065.1324              1073.7458
 Red. masses --      1.5280                 1.5675                 1.5657
 Frc consts  --      1.0086                 1.0477                 1.0636
 IR Inten    --      1.6754                 7.2129                 2.3685

                     55                     56                     57
                      A                      A                      A
 Frequencies --   1107.7734              1110.0885              1115.4618
 Red. masses --      2.6387                 3.1926                 2.7542
 Frc consts  --      1.9078                 2.3179                 2.0191
 IR Inten    --     23.5635                19.1387                 5.3923

                     58                     59                     60
                      A                      A                      A
 Frequencies --   1143.6125              1169.5135              1195.5495
 Red. masses --      2.6333                 1.5755                 2.3135
 Frc consts  --      2.0291                 1.2697                 1.9483
 IR Inten    --      0.8903                32.8144                13.9777

                     61                     62                     63
                      A                      A                      A
 Frequencies --   1229.5636              1240.5761              1270.5574
 Red. masses --      2.1331                 2.0459                 2.4902
 Frc consts  --      1.9000                 1.8551                 2.3685
 IR Inten    --     31.4500                 8.5083                67.2212

                     64                     65                     66
                      A                      A                      A
 Frequencies --   1294.1949              1313.6481              1358.0776
 Red. masses --      1.7682                 4.2879                 4.1115
 Frc consts  --      1.7449                 4.3597                 4.4678
 IR Inten    --     12.3190                38.7073               113.4885

                     67                     68                     69
                      A                      A                      A
 Frequencies --   1371.2792              1403.5813              1418.4732
 Red. masses --      1.3444                 3.1045                 3.1054
 Frc consts  --      1.4895                 3.6034                 3.6814
 IR Inten    --     14.5333                 6.2812               237.5421

                     70                     71                     72
                      A                      A                      A
 Frequencies --   1424.3573              1432.5127              1436.5126
 Red. masses --      1.2933                 1.2378                 1.3315
 Frc consts  --      1.5459                 1.4966                 1.6188
 IR Inten    --     23.2774                13.7627                 4.8126

                     73                     74                     75
                      A                      A                      A
 Frequencies --   1442.4954              1443.7602              1455.9044
 Red. masses --      1.2540                 1.2427                 1.2899
 Frc consts  --      1.5373                 1.5262                 1.6109
 IR Inten    --      9.9831                 4.0145                 7.1627

                     76                     77                     78
                      A                      A                      A
 Frequencies --   1499.2037              1506.4535              1508.6453
 Red. masses --      1.9200                 1.0462                 1.1218
 Frc consts  --      2.5425                 1.3989                 1.5043
 IR Inten    --      4.5615                 5.7765                 3.4129

                     79                     80                     81
                      A                      A                      A
 Frequencies --   1517.7739              1520.1818              1521.5009
 Red. masses --      1.0600                 1.1481                 1.1589
 Frc consts  --      1.4387                 1.5632                 1.5807
 IR Inten    --      3.7272                50.3249                10.6694

                     82                     83                     84
                      A                      A                      A
 Frequencies --   1524.1158              1525.0548              1528.7571
 Red. masses --      1.0588                 1.0796                 1.2358
 Frc consts  --      1.4491                 1.4794                 1.7016
 IR Inten    --      5.9682                10.4803                 1.9583

                     85                     86                     87
                      A                      A                      A
 Frequencies --   1535.8435              1542.7475              1594.6206
 Red. masses --      1.0823                 1.0781                 3.0909
 Frc consts  --      1.5042                 1.5119                 4.6307
 IR Inten    --      7.2667                11.5605                91.1189

                     88                     89                     90
                      A                      A                      A
 Frequencies --   1624.5606              1642.1216              1662.1163
 Red. masses --      6.4186                 1.2890                 2.2765
 Frc consts  --      9.9808                 2.0480                 3.7054
 IR Inten    --    251.3922               164.9523               481.9521

                     91                     92                     93
                      A                      A                      A
 Frequencies --   1684.7979              1742.5153              3021.8900
 Red. masses --      1.0881                 4.9170                 1.0835
 Frc consts  --      1.8198                 8.7964                 5.8294
 IR Inten    --     25.4779               295.8642                43.0499

                     94                     95                     96
                      A                      A                      A
 Frequencies --   3036.2563              3044.4050              3053.7258
 Red. masses --      1.0526                 1.0375                 1.0376
 Frc consts  --      5.7175                 5.6658                 5.7009
 IR Inten    --     25.9973                28.0464                17.6960

                     97                     98                     99
                      A                      A                      A
 Frequencies --   3053.7681              3061.2348              3103.1247
 Red. masses --      1.0373                 1.0415                 1.1011
 Frc consts  --      5.6995                 5.7503                 6.2473
 IR Inten    --     17.2531                32.1562                41.7025

                    100                    101                    102
                      A                      A                      A
 Frequencies --   3111.0469              3112.4652              3119.4333
 Red. masses --      1.0847                 1.0991                 1.1016
 Frc consts  --      6.1857                 6.2731                 6.3159
 IR Inten    --     18.3349                12.5099                16.7318

                    103                    104                    105
                      A                      A                      A
 Frequencies --   3129.2905              3133.4651              3140.1532
 Red. masses --      1.1003                 1.1004                 1.1016
 Frc consts  --      6.3481                 6.3660                 6.3999
 IR Inten    --     20.1510                45.1171                38.3709

                    106                    107                    108
                      A                      A                      A
 Frequencies --   3142.5710              3163.5048              3180.9816
 Red. masses --      1.1028                 1.1007                 1.0975
 Frc consts  --      6.4167                 6.4900                 6.5428
 IR Inten    --     19.4068                 5.7661                11.9665

                    109                    110                    111
                      A                      A                      A
 Frequencies --   3202.4377              3443.2261              3497.8187
 Red. masses --      1.0911                 1.0491                 1.0777
 Frc consts  --      6.5926                 7.3284                 7.7688
 IR Inten    --     13.5923                74.9998               157.9377

                    112                    113                    114
                      A                      A                      A
 Frequencies --   3536.3965              3583.0184              3708.3196
 Red. masses --      1.0923                 1.0465                 1.1023
 Frc consts  --      8.0487                 7.9158                 8.9308
 IR Inten    --     29.6038                40.5505                25.5258

 - Thermochemistry -
 -------------------
 Temperature   298.150 Kelvin.  Pressure   1.00000 Atm.
 Atom     1 has atomic number  6 and mass  12.00000

 Molecular mass:   250.17936 amu.
 Principal axes and moments of inertia in atomic units:
                           1         2         3
     Eigenvalues --  3214.201865194.748067261.44855
           X            0.99967   0.02562   0.00183
           Y           -0.02561   0.99967  -0.00255
           Z           -0.00190   0.00250   1.00000
 This molecule is an asymmetric top.
 Rotational symmetry number  1.
 Warning -- assumption of classical behavior for rotation
           may cause significant error
 Rotational temperatures (Kelvin)      0.02695     0.01667     0.01193
 Rotational constants (GHZ):           0.56149     0.34742     0.24854
 Zero-point vibrational energy     916395.9 (Joules/Mol)
                                  219.02389 (Kcal/Mol)
 Warning -- explicit consideration of  34 degrees of freedom as
           vibrations may cause significant error
 Vibrational temperatures:     45.03    68.62    94.04   104.33   130.11
          (Kelvin)            157.43   190.02   257.82   284.75   311.78
                              328.81   337.11   361.90   373.34   383.61
                              404.80   428.30   449.71   467.77   495.06
                              520.26   527.02   539.05   579.76   612.20
                              619.40   680.74   703.39   762.69   782.61
                              822.81   831.00   852.56   880.90   918.80
                              954.49  1002.35  1052.21  1069.46  1131.22
                             1152.00  1191.38  1272.99  1339.96  1365.41
                             1371.60  1395.69  1452.59  1463.41  1484.72
                             1502.08  1522.90  1532.49  1544.88  1593.84
                             1597.17  1604.90  1645.40  1682.67  1720.13
                             1769.07  1784.91  1828.05  1862.06  1890.05
                             1953.97  1972.96  2019.44  2040.87  2049.33
                             2061.07  2066.82  2075.43  2077.25  2094.72
                             2157.02  2167.45  2170.60  2183.74  2187.20
                             2189.10  2192.86  2194.21  2199.54  2209.74
                             2219.67  2294.30  2337.38  2362.65  2391.41
                             2424.05  2507.09  4347.83  4368.50  4380.22
                             4393.63  4393.69  4404.43  4464.70  4476.10
                             4478.14  4488.17  4502.35  4508.36  4517.98
                             4521.46  4551.58  4576.72  4607.59  4954.03
                             5032.58  5088.09  5155.16  5335.44

 Zero-point correction=                           0.349037 (Hartree/Particle)
 Thermal correction to Energy=                    0.368522
 Thermal correction to Enthalpy=                  0.369466
 Thermal correction to Gibbs Free Energy=         0.302460
 Sum of electronic and zero-point Energies=           -802.628093
 Sum of electronic and thermal Energies=              -802.608608
 Sum of electronic and thermal Enthalpies=            -802.607664
 Sum of electronic and thermal Free Energies=         -802.674670

                     E (Thermal)             CV                S
                      KCal/Mol        Cal/Mol-Kelvin    Cal/Mol-Kelvin
 Total                  231.251             75.392            141.026
 Electronic               0.000              0.000              0.000
 Translational            0.889              2.981             42.451
 Rotational               0.889              2.981             33.161
 Vibrational            229.474             69.430             65.414
 Vibration     1          0.594              1.983              5.746
 Vibration     2          0.595              1.978              4.911
 Vibration     3          0.597              1.971              4.288
 Vibration     4          0.599              1.967              4.084
 Vibration     5          0.602              1.956              3.651
 Vibration     6          0.606              1.942              3.279
 Vibration     7          0.612              1.921              2.916
 Vibration     8          0.629              1.868              2.337
 Vibration     9          0.637              1.843              2.152
 Vibration    10          0.646              1.816              1.987
 Vibration    11          0.651              1.797              1.890
 Vibration    12          0.654              1.788              1.846
 Vibration    13          0.664              1.760              1.720
 Vibration    14          0.668              1.747              1.665
 Vibration    15          0.672              1.734              1.618
 Vibration    16          0.681              1.708              1.525
 Vibration    17          0.691              1.678              1.430
 Vibration    18          0.701              1.650              1.349
 Vibration    19          0.709              1.625              1.284
 Vibration    20          0.723              1.587              1.193
 Vibration    21          0.736              1.551              1.115
 Vibration    22          0.739              1.542              1.095
 Vibration    23          0.746              1.524              1.061
 Vibration    24          0.768              1.464              0.952
 Vibration    25          0.787              1.415              0.873
 Vibration    26          0.792              1.404              0.857
 Vibration    27          0.830              1.310              0.729
 Vibration    28          0.845              1.275              0.687
 Vibration    29          0.885              1.183              0.587
 Vibration    30          0.899              1.153              0.557
 Vibration    31          0.928              1.092              0.501
 Vibration    32          0.934              1.080              0.490
 Vibration    33          0.950              1.048              0.463
 Vibration    34          0.971              1.006              0.429

                           ! Non-Optimized Parameters !
 Normal termination of Gaussian 16 at Fri Dec 11 19:15:46 2020.

 ----------------------------------------------------------------------
 # B3LYP/6-311++G(d,p) empiricaldispersion=gd3bj scf=xqc pop=npa geom=c
 heck
 ----------------------------------------------------------------------

 ---------------------------------------
 CID_116361054_JID_8002_Energie_neutraal
 ---------------------------------------
 Structure from the checkpoint file:  "JID_8002.chk"
 Charge =  0 Multiplicity = 1

 SCF Done:  E(RB3LYP) =  -803.212761614     A.U. after   16 cycles
 Normal termination of Gaussian 16 at Fri Dec 11 19:24:16 2020.

 ----------------------------------------------------------------------
 # B3LYP/6-311++G(d,p) empiricaldispersion=gd3bj scf=xqc pop=npa geom=c
 heck
 ----------------------------------------------------------------------

 -------------------------------------
 CID_116361054_JID_8002_Energie_kation
 -------------------------------------
 Structure from the checkpoint file:  "JID_8002.chk"
 Charge =  1 Multiplicity = 2

 SCF Done:  E(UB3LYP) =  -802.941292568     A.U. after   28 cycles
 Normal termination of Gaussian 16 at Fri Dec 11 19:44:20 2020.
 Gaussian 16:  ES64L-G16RevA.03 25-Dec-2016

 ----------------------------------------------------------------------
 # B3LYP/6-311++G(d,p) empiricaldispersion=gd3bj scf=xqc pop=npa geom=c
 heck
 ----------------------------------------------------------------------

 ------------------------------------
 CID_116361054_JID_8002_Energie_anion
 ------------------------------------
 Structure from the checkpoint file:  "JID_8002.chk"
 Charge = -1 Multiplicity = 2

                         Standard orientation:
 ---------------------------------------------------------------------
 Center     Atomic      Atomic             Coordinates (Angstroms)
 Number     Number       Type             X           Y           Z
 ---------------------------------------------------------------------
      1          6           0        4.072527    0.375732   -0.146917
      2          6           0        2.578790    0.619312   -0.102327
      3          6           0        2.157409    1.953567   -0.142185
      4          6           0        0.798612    2.250545   -0.111665
      5          7           0       -0.141854    1.301818   -0.120952
      6          6           0        0.220343    0.004592   -0.150885
      7          6           0        1.607956   -0.397662   -0.061348
      8          6           0        1.924163   -1.847847    0.067749
      9          8           0        1.195664   -2.746637   -0.370388
     10          7           0        3.081694   -2.193423    0.721758
     11          7           0       -0.757324   -0.925650   -0.231213
     12          6           0       -2.203243   -0.735876   -0.476062
     13          6           0       -2.435091   -0.049002   -1.831380
     14          6           0       -2.765293   -2.168257   -0.545958
     15          6           0       -2.938678    0.014677    0.688439
     16          6           0       -2.328439   -0.305588    2.062126
     17          7           0       -3.065917    1.452430    0.422022
     18          6           0        0.299500    3.671026   -0.077611
     19          1           0        4.563881    1.219814   -0.639033
     20          1           0        4.504993    0.308529    0.861142
     21          1           0        4.333283   -0.540984   -0.678027
     22          1           0        2.890222    2.752457   -0.188410
     23          1           0        3.512390   -1.554253    1.372153
     24          1           0        3.168364   -3.180313    0.926813
     25          1           0       -0.398529   -1.866181   -0.370102
     26          1           0       -2.021889   -0.672689   -2.632470
     27          1           0       -3.505789    0.092755   -2.005053
     28          1           0       -1.960726    0.931204   -1.862600
     29          1           0       -2.663894   -2.687333    0.413119
     30          1           0       -3.825182   -2.142382   -0.813788
     31          1           0       -2.238323   -2.753595   -1.308049
     32          1           0       -3.963823   -0.380928    0.678440
     33          1           0       -1.339061    0.151349    2.158891
     34          1           0       -2.969274    0.099586    2.854928
     35          1           0       -2.223241   -1.382630    2.236653
     36          1           0       -3.525455    1.891014    1.219388
     37          1           0       -2.121605    1.834158    0.359849
     38          1           0       -0.250192    3.855989    0.853184
     39          1           0        1.119324    4.391425   -0.144159
     40          1           0       -0.398316    3.848571   -0.902936
 ---------------------------------------------------------------------

 SCF Done:  E(UB3LYP) =  -803.210116277     A.U. after   33 cycles
 SCF Done:  E(UB3LYP) =  -803.210956011     a.u. after    9 cycles

 The electronic state is 2-A.
 Alpha  occ. eigenvalues --  -18.94780 -14.19385 -14.18533 -14.16878 -14.14855
 Alpha  occ. eigenvalues --  -10.12821 -10.10983 -10.10821 -10.09075 -10.06255
 Alpha  occ. eigenvalues --  -10.05817 -10.05116 -10.04569 -10.04076 -10.04006
 Alpha  occ. eigenvalues --  -10.03909 -10.03042 -10.02136  -0.90133  -0.83473
 Alpha  occ. eigenvalues --   -0.78149  -0.76951  -0.76164  -0.67927  -0.67574
 Alpha  occ. eigenvalues --   -0.62772  -0.61577  -0.58544  -0.58015  -0.56256
 Alpha  occ. eigenvalues --   -0.51745  -0.50232  -0.47300  -0.46091  -0.42479
 Alpha  occ. eigenvalues --   -0.40674  -0.39264  -0.37561  -0.36599  -0.35379
 Alpha  occ. eigenvalues --   -0.34891  -0.33309  -0.31926  -0.31185  -0.30662
 Alpha  occ. eigenvalues --   -0.30545  -0.29584  -0.29236  -0.28618  -0.28273
 Alpha  occ. eigenvalues --   -0.27766  -0.27428  -0.27297  -0.26936  -0.26300
 Alpha  occ. eigenvalues --   -0.25120  -0.24517  -0.23569  -0.22691  -0.22484
 Alpha  occ. eigenvalues --   -0.21743  -0.16792  -0.14676  -0.13745  -0.13442
 Alpha  occ. eigenvalues --   -0.12585  -0.11739  -0.07548   0.05025
 Alpha virt. eigenvalues --    0.07221   0.07700   0.08368   0.08816   0.09716
 Alpha virt. eigenvalues --    0.09901   0.10624   0.10833   0.11249   0.11764
 Alpha virt. eigenvalues --    0.12367   0.12515   0.12849   0.13389   0.13668

  Beta  occ. eigenvalues --  -18.94587 -14.19316 -14.18537 -14.16877 -14.14748
  Beta  occ. eigenvalues --  -10.12643 -10.10984 -10.10821 -10.09075 -10.06255
  Beta  occ. eigenvalues --  -10.05468 -10.05116 -10.04598 -10.04073 -10.04017
  Beta  occ. eigenvalues --  -10.03508 -10.02956 -10.02260  -0.89780  -0.83358
  Beta  occ. eigenvalues --   -0.77985  -0.76770  -0.76040  -0.67828  -0.67080
  Beta  occ. eigenvalues --   -0.62554  -0.61565  -0.58347  -0.57944  -0.56198
  Beta  occ. eigenvalues --   -0.51729  -0.50076  -0.46988  -0.45899  -0.42228
  Beta  occ. eigenvalues --   -0.40568  -0.39204  -0.37350  -0.36546  -0.35279
  Beta  occ. eigenvalues --   -0.34841  -0.33170  -0.31773  -0.31077  -0.30498
  Beta  occ. eigenvalues --   -0.30219  -0.29272  -0.29084  -0.28529  -0.28003
  Beta  occ. eigenvalues --   -0.27630  -0.27353  -0.27197  -0.26595  -0.26119
  Beta  occ. eigenvalues --   -0.25005  -0.24293  -0.23295  -0.22539  -0.22409
  Beta  occ. eigenvalues --   -0.21682  -0.16228  -0.14123  -0.13432  -0.12759
  Beta  occ. eigenvalues --   -0.12002  -0.11393  -0.07067
  Beta virt. eigenvalues --    0.07238   0.08025   0.08404   0.08776   0.09770
  Beta virt. eigenvalues --    0.09877   0.10539   0.10744   0.11059   0.11253
  Beta virt. eigenvalues --    0.11790   0.12313   0.12532   0.13079   0.13425

 Mulliken charges and spin densities:
               1          2
     1  C    0.507775  -0.972404
     2  C   -0.184716   0.463031
     3  C   -0.245988  -0.207101
     4  C   -0.312144   0.441617
     5  N    0.027957   0.065687
     6  C   -0.541224  -0.100372
     7  C    0.595257  -0.058152
     8  C   -0.618630   0.358876
     9  O   -0.384867   0.062227
    10  N   -0.389803   0.039183
    11  N    0.017720   0.006668
    12  C    0.339132  -0.011866
    13  C   -0.407878  -0.028389
    14  C   -0.496459  -0.004993
    15  C   -0.123320   0.009362
    16  C   -0.614542  -0.013744
    17  N   -0.407567   0.007874
    18  C   -0.444704  -0.202039
    19  H    0.117091  -0.008332
    20  H   -0.436618   0.618585
    21  H    0.092695   0.092173
    22  H    0.061519   0.062941
    23  H    0.103296   0.117875
    24  H    0.090810   0.196945
    25  H    0.438803  -0.046493
    26  H    0.119988   0.004209
    27  H    0.138269   0.003129
    28  H    0.167785  -0.000655
    29  H    0.128214  -0.000478
    30  H    0.129179   0.001549
    31  H    0.146968   0.005400
    32  H    0.156926   0.000182
    33  H    0.154542   0.011509
    34  H    0.125759   0.000192
    35  H    0.112730   0.005745
    36  H    0.200635   0.000104
    37  H    0.297401  -0.001495
    38  H    0.138408   0.003274
    39  H    0.094381   0.034448
    40  H    0.105221   0.043731
 Sum of Mulliken charges =  -1.00000   1.00000

 Dipole moment (field-independent basis, Debye):
    X=             -5.9144    Y=              0.7682    Z=              0.5272  Tot=              5.9873
 Quadrupole moment (field-independent basis, Debye-Ang):
   XX=           -163.1076   YY=           -142.6656   ZZ=           -126.2780
   XY=              9.1626   XZ=             -8.7451   YZ=             -0.4571

 Summary of Natural Population Analysis:

                                       Natural Population
                Natural  -----------------------------------------------
    Atom  No    Charge         Core      Valence    Rydberg      Total
 -----------------------------------------------------------------------
      C    1   -0.30167      0.99964     2.29597    0.00606     3.30167
      C    2    0.08944      0.99951     1.90274    0.00831     2.91056
      C    3   -0.18203      0.99947     2.17377    0.00879     3.18203
      C    4    0.18182      0.99955     1.80704    0.01159     2.81818
      N    5   -0.29709      0.99963     2.78616    0.01131     3.79709
      C    6    0.23716      0.99954     1.74822    0.01508     2.76284
      C    7   -0.10636      0.99940     2.09816    0.00880     3.10636
      C    8    0.35925      0.99966     1.61887    0.02221     2.64075
      O    9   -0.33652      0.99987     3.33068    0.00598     4.33652
      N   10   -0.40246      0.99971     2.89428    0.00847     3.90246
      N   11   -0.33075      0.99962     2.82007    0.01106     3.83075
      C   12    0.06828      0.99957     1.91838    0.01376     2.93172
      C   13   -0.29075      0.99962     2.28534    0.00580     3.29075
      C   14   -0.28571      0.99963     2.28058    0.00551     3.28571
      C   15   -0.01012      0.99956     1.99954    0.01103     3.01012
      C   16   -0.29436      0.99965     2.28966    0.00505     3.29436
      N   17   -0.43498      0.99977     2.92524    0.00998     3.93498
      C   18   -0.29920      0.99964     2.29412    0.00544     3.29920
      H   19    0.09743      0.00000     0.40179    0.00078     0.40257
      H   20    0.10438      0.00000     0.39193    0.00369     0.39562
      H   21    0.10846      0.00000     0.39051    0.00103     0.39154
      H   22    0.09267      0.00000     0.40635    0.00098     0.40733
      H   23    0.19134      0.00000     0.30655    0.00211     0.30866
      H   24    0.18771      0.00000     0.31030    0.00199     0.31229
      H   25    0.21358      0.00000     0.28404    0.00238     0.28642
      H   26    0.09425      0.00000     0.40487    0.00088     0.40575
      H   27    0.09597      0.00000     0.40320    0.00083     0.40403
      H   28    0.11715      0.00000     0.38191    0.00094     0.38285
      H   29    0.10045      0.00000     0.39873    0.00083     0.39955
      H   30    0.09652      0.00000     0.40276    0.00073     0.40348
      H   31    0.10207      0.00000     0.39706    0.00087     0.39793
      H   32    0.08026      0.00000     0.41808    0.00166     0.41974
      H   33    0.10876      0.00000     0.38936    0.00187     0.39124
      H   34    0.08909      0.00000     0.40998    0.00093     0.41091
      H   35    0.09731      0.00000     0.40181    0.00089     0.40269
      H   36    0.16395      0.00000     0.33442    0.00164     0.33605
      H   37    0.19588      0.00000     0.30219    0.00193     0.30412
      H   38    0.10128      0.00000     0.39762    0.00111     0.39872
      H   39    0.09460      0.00000     0.40462    0.00078     0.40540
      H   40    0.10298      0.00000     0.39542    0.00160     0.39702
 =======================================================================
   * Total *   -0.00000     17.99303    49.80230    0.20467    68.00000

 Normal termination of Gaussian 16 at Fri Dec 11 22:36:43 2020.
