 Gaussian 16, Revision A.03,

 -----------------------------------------------------------
 # opt freq B3LYP/6-31G(d) empiricaldispersion=gd3bj scf=xqc
 -----------------------------------------------------------

 ------------------------------
 CID_54950310_JID_7784_neutraal
 ------------------------------
 Symbolic Z-matrix:
 Charge =  0 Multiplicity = 1

 SCF Done:  E(RB3LYP) =  -803.332264830     A.U. after   15 cycles
 SCF Done:  E(RB3LYP) =  -803.334426305     A.U. after   14 cycles
 SCF Done:  E(RB3LYP) =  -803.331983153     A.U. after   14 cycles
 SCF Done:  E(RB3LYP) =  -803.337291508     A.U. after   13 cycles
 SCF Done:  E(RB3LYP) =  -803.336509384     A.U. after   13 cycles
 SCF Done:  E(RB3LYP) =  -803.338205560     A.U. after   13 cycles
 SCF Done:  E(RB3LYP) =  -803.339399730     A.U. after   12 cycles
 SCF Done:  E(RB3LYP) =  -803.339502513     A.U. after   13 cycles
 SCF Done:  E(RB3LYP) =  -803.339985096     A.U. after   11 cycles
 SCF Done:  E(RB3LYP) =  -803.340072116     A.U. after   11 cycles
 SCF Done:  E(RB3LYP) =  -803.340173700     A.U. after    7 cycles
 SCF Done:  E(RB3LYP) =  -803.340174006     A.U. after    7 cycles
 SCF Done:  E(RB3LYP) =  -803.340174431     A.U. after    7 cycles
 SCF Done:  E(RB3LYP) =  -803.340174941     A.U. after    8 cycles
 SCF Done:  E(RB3LYP) =  -803.340175379     A.U. after    7 cycles
 SCF Done:  E(RB3LYP) =  -803.340175432     A.U. after    7 cycles
 Optimization completed.
    -- Stationary point found.
 Normal termination of Gaussian 16 at Fri Dec 11 13:23:28 2020.

 --------------------------------------------------------------------
 #N Geom=AllCheck Guess=TCheck SCRF=Check GenChk RB3LYP/6-31G(d) Freq
 --------------------------------------------------------------------

 Structure from the checkpoint file:  "JID_7784.chk"
 ------------------------------
 CID_54950310_JID_7784_neutraal
 ------------------------------
 Charge =  0 Multiplicity = 1

 SCF Done:  E(RB3LYP) =  -803.340175431     A.U. after    1 cycles

  Exact polarizability: 163.160   7.923 147.581  23.455  -5.070 112.742
 Approx polarizability: 221.906  24.653 258.694  43.610 -20.358 173.471

                      1                      2                      3
                      A                      A                      A
 Frequencies --     28.8162                39.0414                57.6201
 Red. masses --      4.6327                 3.1522                 3.1999
 Frc consts  --      0.0023                 0.0028                 0.0063
 IR Inten    --      0.5457                 0.7250                 2.6850

                      4                      5                      6
                      A                      A                      A
 Frequencies --     66.2606                81.7398               110.3454
 Red. masses --      3.4515                 2.9015                 2.2421
 Frc consts  --      0.0089                 0.0114                 0.0161
 IR Inten    --      1.8073                 2.0362                 3.0988

                      7                      8                      9
                      A                      A                      A
 Frequencies --    134.7174               150.7720               168.8271
 Red. masses --      4.2245                 2.7880                 3.6307
 Frc consts  --      0.0452                 0.0373                 0.0610
 IR Inten    --      0.1113                 4.2142                 1.6102

                     10                     11                     12
                      A                      A                      A
 Frequencies --    185.8575               219.8760               223.3683
 Red. masses --      2.4561                 1.6054                 2.1907
 Frc consts  --      0.0500                 0.0457                 0.0644
 IR Inten    --      1.3092                 0.9234                 0.6297

                     13                     14                     15
                      A                      A                      A
 Frequencies --    237.9655               251.9494               267.8480
 Red. masses --      1.4871                 2.7547                 2.6040
 Frc consts  --      0.0496                 0.1030                 0.1101
 IR Inten    --      0.2034                 0.7720                 1.1634

                     16                     17                     18
                      A                      A                      A
 Frequencies --    283.5015               313.1026               334.9133
 Red. masses --      2.4555                 2.7446                 3.4232
 Frc consts  --      0.1163                 0.1585                 0.2262
 IR Inten    --      3.0841                 3.5481                 3.8309

                     19                     20                     21
                      A                      A                      A
 Frequencies --    363.1260               381.9626               453.0679
 Red. masses --      3.7939                 3.0697                 3.9636
 Frc consts  --      0.2948                 0.2639                 0.4794
 IR Inten    --      3.5833                 0.7563                15.0685

                     22                     23                     24
                      A                      A                      A
 Frequencies --    478.4334               493.3062               510.7088
 Red. masses --      1.1639                 4.0195                 4.6004
 Frc consts  --      0.1570                 0.5763                 0.7070
 IR Inten    --     84.3336                 3.0588                10.0771

                     25                     26                     27
                      A                      A                      A
 Frequencies --    535.6560               540.4045               557.4668
 Red. masses --      3.6912                 1.5227                 3.5928
 Frc consts  --      0.6240                 0.2620                 0.6578
 IR Inten    --     16.1057                90.2129                 5.1685

                     28                     29                     30
                      A                      A                      A
 Frequencies --    566.3497               626.2731               643.6912
 Red. masses --      4.2535                 4.2817                 4.7470
 Frc consts  --      0.8038                 0.9895                 1.1588
 IR Inten    --      7.1651                 0.1079                13.4768

                     31                     32                     33
                      A                      A                      A
 Frequencies --    694.9042               710.6310               727.7858
 Red. masses --      2.2326                 3.8142                 2.6892
 Frc consts  --      0.6352                 1.1348                 0.8392
 IR Inten    --     63.3889                14.4039                36.0267

                     34                     35                     36
                      A                      A                      A
 Frequencies --    749.6328               771.7493               788.5873
 Red. masses --      2.3140                 1.8378                 3.4423
 Frc consts  --      0.7661                 0.6449                 1.2613
 IR Inten    --     40.3467                48.5214                44.9257

                     37                     38                     39
                      A                      A                      A
 Frequencies --    846.0807               872.5108               908.1476
 Red. masses --      4.6475                 1.4690                 1.8461
 Frc consts  --      1.9602                 0.6589                 0.8970
 IR Inten    --      9.8168                 0.3362                 4.6735

                     40                     41                     42
                      A                      A                      A
 Frequencies --    937.0699               941.7176               989.4899
 Red. masses --      3.1186                 1.3308                 1.5971
 Frc consts  --      1.6134                 0.6954                 0.9213
 IR Inten    --     32.6972                 7.0185                12.1408

                     43                     44                     45
                      A                      A                      A
 Frequencies --   1020.2669              1083.8211              1110.7720
 Red. masses --      1.7043                 3.1166                 2.0646
 Frc consts  --      1.0452                 2.1570                 1.5009
 IR Inten    --     65.4633                 5.6157                28.5358

                     46                     47                     48
                      A                      A                      A
 Frequencies --   1118.3983              1129.4195              1155.4071
 Red. masses --      2.2264                 3.2553                 1.9097
 Frc consts  --      1.6407                 2.4465                 1.5020
 IR Inten    --     45.7854                43.7032                21.1241

                     49                     50                     51
                      A                      A                      A
 Frequencies --   1159.9788              1179.4361              1187.9128
 Red. masses --      1.6884                 1.9159                 1.2657
 Frc consts  --      1.3385                 1.5703                 1.0523
 IR Inten    --     12.2792                23.1051                 0.6176

                     52                     53                     54
                      A                      A                      A
 Frequencies --   1201.2317              1205.2228              1222.7267
 Red. masses --      1.2500                 2.1369                 1.4440
 Frc consts  --      1.0627                 1.8288                 1.2720
 IR Inten    --      3.5769                 7.2660                 5.7537

                     55                     56                     57
                      A                      A                      A
 Frequencies --   1255.7561              1263.0550              1286.0479
 Red. masses --      1.9453                 4.2127                 1.6614
 Frc consts  --      1.8074                 3.9596                 1.6190
 IR Inten    --      7.4287               149.3335                11.5960

                     58                     59                     60
                      A                      A                      A
 Frequencies --   1316.0717              1342.4193              1346.5033
 Red. masses --      2.6949                 1.6132                 1.5412
 Frc consts  --      2.7502                 1.7128                 1.6463
 IR Inten    --    166.0087                20.9863                24.6596

                     61                     62                     63
                      A                      A                      A
 Frequencies --   1380.5310              1386.8341              1411.6038
 Red. masses --      1.3660                 1.5719                 1.3707
 Frc consts  --      1.5339                 1.7813                 1.6092
 IR Inten    --     29.7657                17.8059                27.1561

                     64                     65                     66
                      A                      A                      A
 Frequencies --   1414.7075              1434.9838              1486.9382
 Red. masses --      2.4123                 1.2624                 1.4389
 Frc consts  --      2.8445                 1.5315                 1.8744
 IR Inten    --     71.1083                 9.0815                 8.6794

                     67                     68                     69
                      A                      A                      A
 Frequencies --   1495.0131              1499.8519              1501.0082
 Red. masses --      1.1721                 1.2519                 1.2812
 Frc consts  --      1.5435                 1.6593                 1.7007
 IR Inten    --      1.7210                35.5837                 9.4104

                     70                     71                     72
                      A                      A                      A
 Frequencies --   1510.4591              1517.5683              1517.9153
 Red. masses --      1.1649                 1.1006                 1.0499
 Frc consts  --      1.5659                 1.4934                 1.4252
 IR Inten    --     14.9229                 9.7624                 7.3780

                     73                     74                     75
                      A                      A                      A
 Frequencies --   1528.6485              1531.2306              1532.4506
 Red. masses --      1.1667                 2.2674                 1.4687
 Frc consts  --      1.6063                 3.1323                 2.0322
 IR Inten    --     22.0163                71.7312                33.6234

                     76                     77                     78
                      A                      A                      A
 Frequencies --   1537.1297              1543.8542              1549.9630
 Red. masses --      1.0797                 1.5161                 1.1507
 Frc consts  --      1.5031                 2.1291                 1.6287
 IR Inten    --     24.6126                16.4412                43.7501

                     79                     80                     81
                      A                      A                      A
 Frequencies --   1652.8407              1681.5010              1765.1116
 Red. masses --      6.4357                 6.2637                 7.0241
 Frc consts  --     10.3587                10.4346                12.8940
 IR Inten    --     11.9616                15.0393               229.2446

                     82                     83                     84
                      A                      A                      A
 Frequencies --   3032.1542              3034.3567              3054.2296
 Red. masses --      1.0341                 1.0516                 1.0609
 Frc consts  --      5.6019                 5.7047                 5.8309
 IR Inten    --     52.9705                61.2768                39.8159

                     85                     86                     87
                      A                      A                      A
 Frequencies --   3061.7209              3068.9433              3092.8483
 Red. masses --      1.0363                 1.0838                 1.1068
 Frc consts  --      5.7238                 6.0140                 6.2378
 IR Inten    --     22.4410                13.6887                38.9245

                     88                     89                     90
                      A                      A                      A
 Frequencies --   3103.7308              3113.0639              3130.4086
 Red. masses --      1.1041                 1.0902                 1.1012
 Frc consts  --      6.2665                 6.2251                 6.3582
 IR Inten    --     14.7430                27.3545                30.6017

                     91                     92                     93
                      A                      A                      A
 Frequencies --   3138.3414              3161.7597              3176.8723
 Red. masses --      1.1035                 1.1009                 1.0965
 Frc consts  --      6.4033                 6.4843                 6.5199
 IR Inten    --     17.8331                23.0008                 7.8315

                     94                     95                     96
                      A                      A                      A
 Frequencies --   3198.6138              3215.9523              3224.7104
 Red. masses --      1.0866                 1.0915                 1.0944
 Frc consts  --      6.5498                 6.6511                 6.7054
 IR Inten    --      5.7038                10.4450                11.3312

                     97                     98                     99
                      A                      A                      A
 Frequencies --   3545.4901              3600.9106              3696.5064
 Red. masses --      1.0738                 1.0757                 1.0647
 Frc consts  --      7.9530                 8.2183                 8.5714
 IR Inten    --      0.8720                12.6972                90.3821

 - Thermochemistry -
 -------------------
 Temperature   298.150 Kelvin.  Pressure   1.00000 Atm.
 Atom     1 has atomic number  6 and mass  12.00000

 Molecular mass:   238.13174 amu.
 Principal axes and moments of inertia in atomic units:
                           1         2         3
     Eigenvalues --  2336.327535242.836575490.63106
           X            0.99971  -0.01810   0.01590
           Y            0.01575   0.99036   0.13762
           Z           -0.01824  -0.13733   0.99036
 This molecule is an asymmetric top.
 Rotational symmetry number  1.
 Warning -- assumption of classical behavior for rotation
           may cause significant error
 Rotational temperatures (Kelvin)      0.03707     0.01652     0.01577
 Rotational constants (GHZ):           0.77247     0.34423     0.32869
 Zero-point vibrational energy     779728.8 (Joules/Mol)
                                  186.35966 (Kcal/Mol)
 Warning -- explicit consideration of  28 degrees of freedom as
           vibrations may cause significant error
 Vibrational temperatures:     41.46    56.17    82.90    95.33   117.61
          (Kelvin)            158.76   193.83   216.93   242.90   267.41
                              316.35   321.38   342.38   362.50   385.37
                              407.90   450.48   481.87   522.46   549.56
                              651.86   688.36   709.76   734.80   770.69
                              777.52   802.07   814.85   901.07   926.13
                              999.81  1022.44  1047.12  1078.55  1110.38
                             1134.60  1217.32  1255.35  1306.62  1348.23
                             1354.92  1423.66  1467.94  1559.38  1598.15
                             1609.13  1624.98  1662.37  1668.95  1696.95
                             1709.14  1728.30  1734.05  1759.23  1806.75
                             1817.25  1850.34  1893.53  1931.44  1937.32
                             1986.28  1995.34  2030.98  2035.45  2064.62
                             2139.37  2150.99  2157.95  2159.62  2173.21
                             2183.44  2183.94  2199.38  2203.10  2204.85
                             2211.59  2221.26  2230.05  2378.07  2419.30
                             2539.60  4362.59  4365.76  4394.36  4405.13
                             4415.52  4449.92  4465.58  4479.00  4503.96
                             4515.37  4549.07  4570.81  4602.09  4627.04
                             4639.64  5101.17  5180.91  5318.45

 Zero-point correction=                           0.296983 (Hartree/Particle)
 Thermal correction to Energy=                    0.314879
 Thermal correction to Enthalpy=                  0.315823
 Thermal correction to Gibbs Free Energy=         0.250858
 Sum of electronic and zero-point Energies=           -803.043192
 Sum of electronic and thermal Energies=              -803.025296
 Sum of electronic and thermal Enthalpies=            -803.024352
 Sum of electronic and thermal Free Energies=         -803.089317

                     E (Thermal)             CV                S
                      KCal/Mol        Cal/Mol-Kelvin    Cal/Mol-Kelvin
 Total                  197.590             66.653            136.731
 Electronic               0.000              0.000              0.000
 Translational            0.889              2.981             42.304
 Rotational               0.889              2.981             32.575
 Vibrational            195.812             60.692             61.852
 Vibration     1          0.593              1.984              5.909
 Vibration     2          0.594              1.981              5.307
 Vibration     3          0.596              1.974              4.537
 Vibration     4          0.598              1.970              4.261
 Vibration     5          0.600              1.962              3.849
 Vibration     6          0.606              1.941              3.263
 Vibration     7          0.613              1.919              2.878
 Vibration     8          0.618              1.902              2.662
 Vibration     9          0.625              1.881              2.448
 Vibration    10          0.632              1.859              2.269
 Vibration    11          0.647              1.811              1.960
 Vibration    12          0.649              1.805              1.932
 Vibration    13          0.656              1.783              1.818
 Vibration    14          0.664              1.759              1.717
 Vibration    15          0.673              1.732              1.610
 Vibration    16          0.682              1.704              1.512
 Vibration    17          0.701              1.649              1.346
 Vibration    18          0.716              1.606              1.236
 Vibration    19          0.737              1.548              1.109
 Vibration    20          0.751              1.509              1.031
 Vibration    21          0.812              1.354              0.787
 Vibration    22          0.835              1.298              0.714
 Vibration    23          0.849              1.265              0.675
 Vibration    24          0.866              1.226              0.632
 Vibration    25          0.891              1.171              0.575
 Vibration    26          0.895              1.161              0.564
 Vibration    27          0.913              1.123              0.529
 Vibration    28          0.922              1.104              0.511

                           ! Non-Optimized Parameters !
 Normal termination of Gaussian 16 at Fri Dec 11 13:38:38 2020.

 ----------------------------------------------------------------------
 # B3LYP/6-311++G(d,p) empiricaldispersion=gd3bj scf=xqc pop=npa geom=c
 heck
 ----------------------------------------------------------------------

 --------------------------------------
 CID_54950310_JID_7784_Energie_neutraal
 --------------------------------------
 Structure from the checkpoint file:  "JID_7784.chk"
 Charge =  0 Multiplicity = 1

 SCF Done:  E(RB3LYP) =  -803.582864435     A.U. after   15 cycles
 Normal termination of Gaussian 16 at Fri Dec 11 13:45:41 2020.

 ----------------------------------------------------------------------
 # B3LYP/6-311++G(d,p) empiricaldispersion=gd3bj scf=xqc pop=npa geom=c
 heck
 ----------------------------------------------------------------------

 ------------------------------------
 CID_54950310_JID_7784_Energie_kation
 ------------------------------------
 Structure from the checkpoint file:  "JID_7784.chk"
 Charge =  1 Multiplicity = 2

 SCF Done:  E(UB3LYP) =  -803.305104154     A.U. after   25 cycles
 Normal termination of Gaussian 16 at Fri Dec 11 14:02:39 2020.
 Gaussian 16:  ES64L-G16RevA.03 25-Dec-2016

 ----------------------------------------------------------------------
 # B3LYP/6-311++G(d,p) empiricaldispersion=gd3bj scf=xqc pop=npa geom=c
 heck
 ----------------------------------------------------------------------

 -----------------------------------
 CID_54950310_JID_7784_Energie_anion
 -----------------------------------
 Structure from the checkpoint file:  "JID_7784.chk"
 Charge = -1 Multiplicity = 2

                         Standard orientation:
 ---------------------------------------------------------------------
 Center     Atomic      Atomic             Coordinates (Angstroms)
 Number     Number       Type             X           Y           Z
 ---------------------------------------------------------------------
      1          6           0        3.649241   -1.330335   -0.299711
      2          6           0        2.780358   -0.178668    0.214407
      3          6           0        2.052047    0.561522   -0.935944
      4          8           0        2.308895    1.744631   -1.148031
      5          7           0        1.139949   -0.088419   -1.720271
      6          6           0        0.643397   -1.449672   -1.658573
      7          7           0        1.986909   -0.631744    1.352845
      8          6           0        1.100307    0.354686    1.975025
      9          6           0       -0.141056    0.719723    1.181241
     10          6           0       -1.094993   -0.263980    0.923832
     11          6           0       -2.217413    0.006933    0.126530
     12          6           0       -2.408972    1.279435   -0.404259
     13          6           0       -1.462662    2.275322   -0.137128
     14          6           0       -0.345807    1.996149    0.644216
     15          8           0       -3.040091   -1.083622   -0.057163
     16          6           0       -4.244262   -0.886118   -0.779818
     17          8           0       -0.908852   -1.531966    1.419274
     18          1           0        3.047120   -2.167008   -0.669278
     19          1           0        4.276440   -1.702526    0.515777
     20          1           0        4.294012   -0.992432   -1.117315
     21          1           0        3.444704    0.606657    0.591535
     22          1           0        0.716786    0.532100   -2.398249
     23          1           0        0.585214   -1.805520   -0.630505
     24          1           0       -0.375166   -1.467279   -2.056418
     25          1           0        1.254989   -2.149271   -2.244220
     26          1           0        1.473209   -1.485302    1.157532
     27          1           0        0.803043   -0.051369    2.948997
     28          1           0        1.687071    1.259964    2.163994
     29          1           0       -3.274115    1.499481   -1.019417
     30          1           0       -1.601662    3.268099   -0.553491
     31          1           0        0.405784    2.760515    0.811450
     32          1           0       -4.877119   -0.131513   -0.296094
     33          1           0       -4.041121   -0.577438   -1.813315
     34          1           0       -4.759200   -1.848145   -0.782985
     35          1           0       -1.688723   -2.050197    1.152422
 ---------------------------------------------------------------------

 SCF Done:  E(UB3LYP) =  -803.574724716     A.U. after   32 cycles

 The electronic state is 2-A.
 Alpha  occ. eigenvalues --  -19.06654 -19.06348 -18.99042 -14.24008 -14.21355
 Alpha  occ. eigenvalues --  -10.17318 -10.14070 -10.13822 -10.12110 -10.12038
 Alpha  occ. eigenvalues --  -10.11129 -10.10759 -10.08405 -10.08292 -10.08218
 Alpha  occ. eigenvalues --  -10.07866 -10.07603  -0.98954  -0.96098  -0.94127
 Alpha  occ. eigenvalues --   -0.82949  -0.81778  -0.76169  -0.69074  -0.66153
 Alpha  occ. eigenvalues --   -0.65381  -0.61470  -0.60399  -0.57948  -0.55400
 Alpha  occ. eigenvalues --   -0.52093  -0.49957  -0.48934  -0.46155  -0.42593
 Alpha  occ. eigenvalues --   -0.41436  -0.40054  -0.39160  -0.38654  -0.37769
 Alpha  occ. eigenvalues --   -0.36770  -0.36375  -0.35912  -0.34283  -0.33664
 Alpha  occ. eigenvalues --   -0.33352  -0.32035  -0.31545  -0.30727  -0.30420
 Alpha  occ. eigenvalues --   -0.29129  -0.28869  -0.28203  -0.27256  -0.26538
 Alpha  occ. eigenvalues --   -0.25939  -0.25429  -0.24837  -0.22622  -0.17657
 Alpha  occ. eigenvalues --   -0.16033  -0.14981  -0.13318  -0.12323   0.04061
 Alpha virt. eigenvalues --    0.06280   0.07137   0.07395   0.07701   0.08330
 Alpha virt. eigenvalues --    0.08807   0.09429   0.09456   0.09808   0.09902
 Alpha virt. eigenvalues --    0.10805   0.11065   0.11371   0.11843   0.12026

  Beta  occ. eigenvalues --  -19.06637 -19.06334 -18.99042 -14.24000 -14.21348
  Beta  occ. eigenvalues --  -10.17319 -10.14070 -10.13818 -10.12035 -10.12034
  Beta  occ. eigenvalues --  -10.11128 -10.10717 -10.08395 -10.08280 -10.08196
  Beta  occ. eigenvalues --  -10.07861 -10.07603  -0.98929  -0.96073  -0.94122
  Beta  occ. eigenvalues --   -0.82937  -0.81762  -0.76151  -0.69057  -0.66122
  Beta  occ. eigenvalues --   -0.65353  -0.61409  -0.60319  -0.57924  -0.55375
  Beta  occ. eigenvalues --   -0.52059  -0.49909  -0.48912  -0.46125  -0.42545
  Beta  occ. eigenvalues --   -0.41414  -0.40004  -0.39131  -0.38633  -0.37728
  Beta  occ. eigenvalues --   -0.36741  -0.36345  -0.35886  -0.34240  -0.33638
  Beta  occ. eigenvalues --   -0.33317  -0.32006  -0.31525  -0.30696  -0.30399
  Beta  occ. eigenvalues --   -0.29114  -0.28850  -0.28182  -0.27240  -0.26523
  Beta  occ. eigenvalues --   -0.25920  -0.25398  -0.24782  -0.22588  -0.17650
  Beta  occ. eigenvalues --   -0.16017  -0.14943  -0.13308  -0.12298
  Beta virt. eigenvalues --    0.06357   0.07140   0.07428   0.07667   0.08132
  Beta virt. eigenvalues --    0.08685   0.09082   0.09579   0.09918   0.10126
  Beta virt. eigenvalues --    0.10163   0.10986   0.11351   0.11783   0.12165

 Mulliken charges and spin densities:
               1          2
     1  C   -0.190137  -0.375517
     2  C   -0.565199   0.312208
     3  C   -0.023490  -0.172940
     4  O   -0.282186   0.008332
     5  N   -0.249108   0.131734
     6  C    0.681513  -1.028469
     7  N   -0.005963  -0.007820
     8  C   -0.061921  -0.561969
     9  C    1.501319  -0.571753
    10  C   -0.049892  -0.671641
    11  C   -1.891106   1.469236
    12  C    0.521351  -0.093232
    13  C    0.144327  -0.476013
    14  C   -0.263813   0.083344
    15  O   -0.288381   0.091187
    16  C    1.822653  -2.139311
    17  O   -0.261135   0.025801
    18  H    0.050661   0.093846
    19  H    0.092244   0.063875
    20  H    0.073564   0.078462
    21  H    0.193769   0.019585
    22  H    0.181798   0.131705
    23  H   -0.074104   0.212385
    24  H   -0.217680   0.392675
    25  H   -0.344745   0.525903
    26  H    0.244473   0.016862
    27  H    0.157944   0.053168
    28  H    0.143733   0.003410
    29  H   -0.218163   0.410703
    30  H   -0.006052   0.170534
    31  H    0.168787  -0.003744
    32  H   -0.364948   0.525750
    33  H   -0.605215   0.775751
    34  H   -1.045003   1.221045
    35  H    0.030105   0.284907
 Sum of Mulliken charges =  -1.00000   1.00000

 Dipole moment (field-independent basis, Debye):
    X=              7.6241    Y=              3.0809    Z=              4.5622  Tot=              9.4038
 Quadrupole moment (field-independent basis, Debye-Ang):
   XX=           -188.5698   YY=           -146.1800   ZZ=           -142.4950
   XY=            -16.6696   XZ=             -9.6166   YZ=             -2.4626

 Summary of Natural Population Analysis:

                                       Natural Population
                Natural  -----------------------------------------------
    Atom  No    Charge         Core      Valence    Rydberg      Total
 -----------------------------------------------------------------------
      C    1   -0.28736      0.99964     2.28118    0.00653     3.28736
      C    2   -0.04616      0.99956     2.03430    0.01229     3.04616
      C    3    0.33506      0.99964     1.63988    0.02542     2.66494
      O    4   -0.33018      0.99988     3.32464    0.00566     4.33018
      N    5   -0.31601      0.99966     2.80509    0.01125     3.81601
      C    6   -0.18378      0.99963     2.17465    0.00950     3.18378
      N    7   -0.33901      0.99974     2.82806    0.01121     3.83901
      C    8   -0.09344      0.99959     2.08223    0.01161     3.09344
      C    9   -0.04975      0.99946     2.04015    0.01014     3.04975
      C   10    0.13913      0.99929     1.84721    0.01437     2.86087
      C   11    0.13296      0.99933     1.85399    0.01372     2.86704
      C   12   -0.13379      0.99952     2.12494    0.00932     3.13379
      C   13   -0.10487      0.99957     2.09514    0.01016     3.10487
      C   14   -0.10046      0.99953     2.09109    0.00984     3.10046
      O   15   -0.28583      0.99986     3.27412    0.01186     4.28583
      C   16   -0.09703      0.99960     2.08807    0.00936     3.09703
      O   17   -0.35205      0.99988     3.34568    0.00649     4.35205
      H   18    0.09998      0.00000     0.39892    0.00110     0.40002
      H   19    0.10296      0.00000     0.39605    0.00099     0.39704
      H   20    0.10239      0.00000     0.39691    0.00070     0.39761
      H   21    0.10064      0.00000     0.39772    0.00164     0.39936
      H   22    0.19540      0.00000     0.30238    0.00222     0.30460
      H   23    0.09771      0.00000     0.39984    0.00244     0.40229
      H   24    0.10787      0.00000     0.39026    0.00187     0.39213
      H   25    0.09090      0.00000     0.40778    0.00131     0.40910
      H   26    0.18106      0.00000     0.31575    0.00319     0.31894
      H   27    0.10233      0.00000     0.39665    0.00101     0.39767
      H   28    0.09622      0.00000     0.40276    0.00102     0.40378
      H   29    0.10949      0.00000     0.38917    0.00134     0.39051
      H   30    0.10022      0.00000     0.39895    0.00083     0.39978
      H   31    0.10350      0.00000     0.39525    0.00125     0.39650
      H   32    0.08492      0.00000     0.41264    0.00244     0.41508
      H   33    0.08950      0.00000     0.40593    0.00458     0.41050
      H   34    0.09944      0.00000     0.39625    0.00431     0.40056
      H   35    0.24804      0.00000     0.24845    0.00351     0.25196
 =======================================================================
   * Total *    0.00000     16.99338    46.78212    0.22450    64.00000

 Normal termination of Gaussian 16 at Fri Dec 11 14:24:08 2020.
