 Gaussian 16, Revision A.03,

 -----------------------------------------------------------
 # opt freq B3LYP/6-31G(d) empiricaldispersion=gd3bj scf=xqc
 -----------------------------------------------------------

 ------------------------------
 CID_82609129_JID_5485_neutraal
 ------------------------------
 Symbolic Z-matrix:
 Charge =  0 Multiplicity = 1

 SCF Done:  E(RB3LYP) =  -651.714367474     A.U. after   15 cycles
 SCF Done:  E(RB3LYP) =  -651.718102181     A.U. after   12 cycles
 SCF Done:  E(RB3LYP) =  -651.718238927     A.U. after   11 cycles
 SCF Done:  E(RB3LYP) =  -651.718432254     A.U. after   11 cycles
 SCF Done:  E(RB3LYP) =  -651.718504602     A.U. after   10 cycles
 SCF Done:  E(RB3LYP) =  -651.718533421     A.U. after   10 cycles
 SCF Done:  E(RB3LYP) =  -651.718542519     A.U. after   10 cycles
 SCF Done:  E(RB3LYP) =  -651.718545339     A.U. after    9 cycles
 SCF Done:  E(RB3LYP) =  -651.718545673     A.U. after    8 cycles
 SCF Done:  E(RB3LYP) =  -651.718545720     A.U. after    6 cycles
 Optimization completed.
    -- Stationary point found.
 Normal termination of Gaussian 16 at Thu Dec 10 16:16:49 2020.

 --------------------------------------------------------------------
 #N Geom=AllCheck Guess=TCheck SCRF=Check GenChk RB3LYP/6-31G(d) Freq
 --------------------------------------------------------------------

 Structure from the checkpoint file:  "JID_5485.chk"
 ------------------------------
 CID_82609129_JID_5485_neutraal
 ------------------------------
 Charge =  0 Multiplicity = 1

 SCF Done:  E(RB3LYP) =  -651.718545720     A.U. after    1 cycles

  Exact polarizability: 196.702   4.492 146.797   3.505  -6.765  82.431
 Approx polarizability: 270.072  15.569 232.206   6.789 -17.801 126.583

                      1                      2                      3
                      A                      A                      A
 Frequencies --     35.5371                62.9992                88.2845
 Red. masses --      3.2757                 3.6353                 3.3200
 Frc consts  --      0.0024                 0.0085                 0.0152
 IR Inten    --      0.7112                 0.1699                 4.0183

                      4                      5                      6
                      A                      A                      A
 Frequencies --     95.4442               126.7356               140.9069
 Red. masses --      2.0807                 2.9817                 4.4240
 Frc consts  --      0.0112                 0.0282                 0.0518
 IR Inten    --      1.8379                 1.8487                 0.1576

                      7                      8                      9
                      A                      A                      A
 Frequencies --    164.7187               204.6773               215.0890
 Red. masses --      1.0452                 2.8840                 2.9768
 Frc consts  --      0.0167                 0.0712                 0.0811
 IR Inten    --      0.0435                 0.1373                 1.1813

                     10                     11                     12
                      A                      A                      A
 Frequencies --    234.3634               243.4575               257.4289
 Red. masses --      1.1573                 2.8781                 1.2045
 Frc consts  --      0.0375                 0.1005                 0.0470
 IR Inten    --      0.4354                 0.7540                 0.8795

                     13                     14                     15
                      A                      A                      A
 Frequencies --    300.3953               324.1685               353.0633
 Red. masses --      3.3513                 4.0343                 4.2657
 Frc consts  --      0.1782                 0.2498                 0.3133
 IR Inten    --      4.7000                 6.1418                 3.0368

                     16                     17                     18
                      A                      A                      A
 Frequencies --    379.8921               413.4925               461.7483
 Red. masses --      3.7735                 4.6845                 3.3252
 Frc consts  --      0.3209                 0.4719                 0.4177
 IR Inten    --      0.9038                 2.6708                 5.4083

                     19                     20                     21
                      A                      A                      A
 Frequencies --    508.0278               563.6147               580.8392
 Red. masses --      5.6338                 4.7337                 4.0243
 Frc consts  --      0.8567                 0.8860                 0.7999
 IR Inten    --      9.0122                11.6192                 3.1080

                     22                     23                     24
                      A                      A                      A
 Frequencies --    611.3995               649.2750               712.3984
 Red. masses --      4.2334                 4.2524                 4.5563
 Frc consts  --      0.9324                 1.0562                 1.3624
 IR Inten    --     11.5639                 1.4975                 2.8510

                     25                     26                     27
                      A                      A                      A
 Frequencies --    742.3137               754.8849               786.6613
 Red. masses --      4.5530                 3.7796                 3.3443
 Frc consts  --      1.4782                 1.2690                 1.2193
 IR Inten    --      5.1781                 5.4021                 1.7522

                     28                     29                     30
                      A                      A                      A
 Frequencies --    813.3917               827.8535               909.9453
 Red. masses --      1.3354                 1.3963                 2.5658
 Frc consts  --      0.5206                 0.5638                 1.2517
 IR Inten    --     85.1919                27.7720                 6.3745

                     31                     32                     33
                      A                      A                      A
 Frequencies --    920.7745               935.3747               936.7163
 Red. masses --      1.6382                 1.3835                 1.9723
 Frc consts  --      0.8183                 0.7132                 1.0196
 IR Inten    --      7.4683                 3.5082                 5.6101

                     34                     35                     36
                      A                      A                      A
 Frequencies --    987.5770              1005.7142              1010.0969
 Red. masses --      2.2380                 2.1961                 1.5462
 Frc consts  --      1.2860                 1.3087                 0.9295
 IR Inten    --      2.6191                 8.7424                13.8012

                     37                     38                     39
                      A                      A                      A
 Frequencies --   1067.8148              1092.6300              1125.1969
 Red. masses --      1.8751                 2.3188                 2.8420
 Frc consts  --      1.2597                 1.6310                 2.1200
 IR Inten    --     23.6578                 3.1089                26.8741

                     40                     41                     42
                      A                      A                      A
 Frequencies --   1139.3502              1143.3028              1161.6800
 Red. masses --      2.0803                 2.3991                 1.4511
 Frc consts  --      1.5911                 1.8476                 1.1538
 IR Inten    --     15.1788                34.3044                17.3192

                     43                     44                     45
                      A                      A                      A
 Frequencies --   1166.9213              1173.1108              1184.9514
 Red. masses --      1.3116                 1.5653                 1.6029
 Frc consts  --      1.0523                 1.2692                 1.3261
 IR Inten    --      2.5487                 9.0024                23.8056

                     46                     47                     48
                      A                      A                      A
 Frequencies --   1196.6667              1252.8942              1259.6776
 Red. masses --      1.7463                 1.8952                 1.7194
 Frc consts  --      1.4734                 1.7528                 1.6075
 IR Inten    --      9.4333                 4.4426                 4.4059

                     49                     50                     51
                      A                      A                      A
 Frequencies --   1284.9311              1298.5492              1332.5362
 Red. masses --      1.4211                 2.3215                 1.6618
 Frc consts  --      1.3824                 2.3064                 1.7385
 IR Inten    --     15.5680                36.0385                 9.5059

                     52                     53                     54
                      A                      A                      A
 Frequencies --   1335.1439              1385.5659              1400.1450
 Red. masses --      1.9260                 4.2413                 1.8794
 Frc consts  --      2.0228                 4.7973                 2.1708
 IR Inten    --     70.7527                87.5057                 5.0241

                     55                     56                     57
                      A                      A                      A
 Frequencies --   1429.2489              1431.2854              1466.8372
 Red. masses --      2.2201                 1.3389                 1.2690
 Frc consts  --      2.6720                 1.6160                 1.6087
 IR Inten    --     51.7042                17.6024                11.0010

                     58                     59                     60
                      A                      A                      A
 Frequencies --   1481.6571              1492.9058              1503.5583
 Red. masses --      1.2668                 2.8209                 1.2418
 Frc consts  --      1.6386                 3.7043                 1.6540
 IR Inten    --      1.7024                 2.9566                46.1389

                     61                     62                     63
                      A                      A                      A
 Frequencies --   1518.8369              1521.5797              1525.2975
 Red. masses --      1.0653                 1.0436                 1.0498
 Frc consts  --      1.4480                 1.4236                 1.4390
 IR Inten    --      8.5485                 8.7301                 8.0811

                     64                     65                     66
                      A                      A                      A
 Frequencies --   1529.3082              1535.2615              1539.7808
 Red. masses --      1.0801                 1.4575                 1.0722
 Frc consts  --      1.4883                 2.0240                 1.4977
 IR Inten    --      4.1303               126.8557                 3.1969

                     67                     68                     69
                      A                      A                      A
 Frequencies --   1546.1947              1548.1780              1656.0080
 Red. masses --      1.6691                 1.1574                 6.8559
 Frc consts  --      2.3510                 1.6345                11.0775
 IR Inten    --     16.1954                18.8873                38.0480

                     70                     71                     72
                      A                      A                      A
 Frequencies --   1682.1949              1822.5973              2933.5220
 Red. masses --      6.9057                11.8038                 1.0734
 Frc consts  --     11.5136                23.1023                 5.4422
 IR Inten    --     48.9944               424.3143                59.9513

                     73                     74                     75
                      A                      A                      A
 Frequencies --   2953.5043              3021.3898              3044.4394
 Red. masses --      1.0612                 1.0857                 1.0822
 Frc consts  --      5.4543                 5.8396                 5.9097
 IR Inten    --    138.3284                36.9374                 9.3038

                     76                     77                     78
                      A                      A                      A
 Frequencies --   3045.2508              3061.1304              3073.1706
 Red. masses --      1.0361                 1.0340                 1.0734
 Frc consts  --      5.6612                 5.7089                 5.9730
 IR Inten    --     49.6589                22.3722                42.8469

                     79                     80                     81
                      A                      A                      A
 Frequencies --   3098.9350              3122.2298              3131.8895
 Red. masses --      1.1056                 1.1020                 1.1035
 Frc consts  --      6.2558                 6.3295                 6.3773
 IR Inten    --     26.9971                33.1546                21.2237

                     82                     83                     84
                      A                      A                      A
 Frequencies --   3143.9969              3170.7642              3182.1417
 Red. masses --      1.1037                 1.0994                 1.0884
 Frc consts  --      6.4278                 6.5122                 6.4932
 IR Inten    --     15.1424                 0.9646                16.5516

                     85                     86                     87
                      A                      A                      A
 Frequencies --   3206.0849              3210.4073              3489.4085
 Red. masses --      1.0905                 1.0930                 1.0742
 Frc consts  --      6.6044                 6.6372                 7.7061
 IR Inten    --      6.0936                11.8245                 0.4094

 - Thermochemistry -
 -------------------
 Temperature   298.150 Kelvin.  Pressure   1.00000 Atm.
 Atom     1 has atomic number  6 and mass  12.00000

 Molecular mass:   204.12626 amu.
 Principal axes and moments of inertia in atomic units:
                           1         2         3
     Eigenvalues --  1401.293795567.890196760.23624
           X            0.99994  -0.01086   0.00209
           Y            0.01085   0.99994   0.00103
           Z           -0.00210  -0.00101   1.00000
 This molecule is an asymmetric top.
 Rotational symmetry number  1.
 Warning -- assumption of classical behavior for rotation
           may cause significant error
 Rotational temperatures (Kelvin)      0.06181     0.01556     0.01281
 Rotational constants (GHZ):           1.28791     0.32413     0.26696
 Zero-point vibrational energy     696701.1 (Joules/Mol)
                                  166.51555 (Kcal/Mol)
 Warning -- explicit consideration of  22 degrees of freedom as
           vibrations may cause significant error
 Vibrational temperatures:     51.13    90.64   127.02   137.32   182.34
          (Kelvin)            202.73   236.99   294.49   309.47   337.20
                              350.28   370.38   432.20   466.41   507.98
                              546.58   594.92   664.35   730.94   810.92
                              835.70   879.67   934.16  1024.98  1068.02
                             1086.11  1131.83  1170.29  1191.10  1309.21
                             1324.79  1345.80  1347.73  1420.90  1447.00
                             1453.30  1536.35  1572.05  1618.91  1639.27
                             1644.96  1671.40  1678.94  1687.84  1704.88
                             1721.74  1802.64  1812.40  1848.73  1868.32
                             1917.22  1920.97  1993.52  2014.50  2056.37
                             2059.30  2110.45  2131.77  2147.96  2163.29
                             2185.27  2189.21  2194.56  2200.33  2208.90
                             2215.40  2224.63  2227.48  2382.63  2420.30
                             2622.31  4220.68  4249.43  4347.11  4380.27
                             4381.44  4404.28  4421.61  4458.68  4492.19
                             4506.09  4523.51  4562.02  4578.39  4612.84
                             4619.06  5020.48

 Zero-point correction=                           0.265359 (Hartree/Particle)
 Thermal correction to Energy=                    0.280008
 Thermal correction to Enthalpy=                  0.280952
 Thermal correction to Gibbs Free Energy=         0.223434
 Sum of electronic and zero-point Energies=           -651.453186
 Sum of electronic and thermal Energies=              -651.438538
 Sum of electronic and thermal Enthalpies=            -651.437594
 Sum of electronic and thermal Free Energies=         -651.495111

                     E (Thermal)             CV                S
                      KCal/Mol        Cal/Mol-Kelvin    Cal/Mol-Kelvin
 Total                  175.708             54.934            121.056
 Electronic               0.000              0.000              0.000
 Translational            0.889              2.981             41.845
 Rotational               0.889              2.981             32.334
 Vibrational            173.930             48.972             46.877
 Vibration     1          0.594              1.982              5.494
 Vibration     2          0.597              1.972              4.361
 Vibration     3          0.601              1.957              3.698
 Vibration     4          0.603              1.952              3.545
 Vibration     5          0.611              1.926              2.995
 Vibration     6          0.615              1.912              2.792
 Vibration     7          0.623              1.886              2.495
 Vibration     8          0.640              1.833              2.091
 Vibration     9          0.645              1.818              2.000
 Vibration    10          0.654              1.788              1.845
 Vibration    11          0.659              1.774              1.777
 Vibration    12          0.667              1.750              1.679
 Vibration    13          0.693              1.673              1.415
 Vibration    14          0.709              1.627              1.289
 Vibration    15          0.729              1.569              1.152
 Vibration    16          0.750              1.513              1.040
 Vibration    17          0.777              1.441              0.914
 Vibration    18          0.819              1.335              0.761
 Vibration    19          0.863              1.232              0.638
 Vibration    20          0.919              1.110              0.517
 Vibration    21          0.938              1.073              0.484
 Vibration    22          0.971              1.008              0.430

 Optimization completed.
    -- Stationary point found.
 Normal termination of Gaussian 16 at Thu Dec 10 16:27:05 2020.

 ----------------------------------------------------------------------
 # B3LYP/6-311++G(d,p) empiricaldispersion=gd3bj scf=xqc pop=npa geom=c
 heck
 ----------------------------------------------------------------------

 --------------------------------------
 CID_82609129_JID_5485_Energie_neutraal
 --------------------------------------
 Structure from the checkpoint file:  "JID_5485.chk"
 Charge =  0 Multiplicity = 1

 SCF Done:  E(RB3LYP) =  -651.896747133     A.U. after   16 cycles
 Normal termination of Gaussian 16 at Thu Dec 10 16:32:22 2020.

 ----------------------------------------------------------------------
 # B3LYP/6-311++G(d,p) empiricaldispersion=gd3bj scf=xqc pop=npa geom=c
 heck
 ----------------------------------------------------------------------

 ------------------------------------
 CID_82609129_JID_5485_Energie_kation
 ------------------------------------
 Structure from the checkpoint file:  "JID_5485.chk"
 Charge =  1 Multiplicity = 2

 SCF Done:  E(UB3LYP) =  -651.617660625     A.U. after   25 cycles
 Normal termination of Gaussian 16 at Thu Dec 10 16:44:39 2020.
 Gaussian 16:  ES64L-G16RevA.03 25-Dec-2016

 ----------------------------------------------------------------------
 # B3LYP/6-311++G(d,p) empiricaldispersion=gd3bj scf=xqc pop=npa geom=c
 heck
 ----------------------------------------------------------------------

 -----------------------------------
 CID_82609129_JID_5485_Energie_anion
 -----------------------------------
 Structure from the checkpoint file:  "JID_5485.chk"
 Charge = -1 Multiplicity = 2

                         Standard orientation:
 ---------------------------------------------------------------------
 Center     Atomic      Atomic             Coordinates (Angstroms)
 Number     Number       Type             X           Y           Z
 ---------------------------------------------------------------------
      1          6           0        1.412364    2.616858    0.532488
      2          6           0        1.522539    1.429687   -0.433458
      3          6           0        0.432369    0.392947   -0.313219
      4          6           0        1.026631   -0.849199   -0.026828
      5          6           0        0.266758   -1.996550    0.151985
      6          6           0       -1.125676   -1.876075    0.039588
      7          6           0       -1.740163   -0.656004   -0.249498
      8          6           0       -0.941583    0.491914   -0.423203
      9          6           0       -3.242018   -0.555640   -0.388073
     10          7           0       -3.767490    0.602362    0.331586
     11          6           0       -5.217403    0.712280    0.243538
     12          7           0        2.418715   -0.702089    0.047372
     13          6           0        2.801500    0.615142   -0.166288
     14          8           0        3.945923    1.030394   -0.129385
     15          6           0        3.353686   -1.761735    0.348877
     16          1           0        0.533415    3.225122    0.297582
     17          1           0        2.307832    3.240414    0.457091
     18          1           0        1.318621    2.265877    1.565322
     19          1           0        1.592870    1.813431   -1.460528
     20          1           0        0.725868   -2.952901    0.380903
     21          1           0       -1.744071   -2.758741    0.182984
     22          1           0       -1.424948    1.442942   -0.626095
     23          1           0       -3.515698   -0.425604   -1.445956
     24          1           0       -3.704467   -1.510333   -0.070606
     25          1           0       -3.485605    0.532743    1.307912
     26          1           0       -5.763276   -0.189900    0.578296
     27          1           0       -5.557396    1.562624    0.843091
     28          1           0       -5.502038    0.901318   -0.798404
     29          1           0        3.146446   -2.196169    1.334118
     30          1           0        3.299976   -2.555223   -0.405637
     31          1           0        4.352485   -1.322409    0.346845
 ---------------------------------------------------------------------

 SCF Done:  E(UB3LYP) =  -651.885433096     A.U. after   33 cycles
 SCF Done:  E(UB3LYP) =  -651.885433096     a.u. after    1 cycles

 The electronic state is 2-A.
 Alpha  occ. eigenvalues --  -19.00317 -14.26228 -14.20302 -10.17858 -10.11624
 Alpha  occ. eigenvalues --  -10.11351 -10.09785 -10.09705 -10.09128 -10.07759
 Alpha  occ. eigenvalues --  -10.07736 -10.07661 -10.07483 -10.07427 -10.07150
 Alpha  occ. eigenvalues --   -0.95422  -0.87279  -0.81143  -0.75696  -0.71537
 Alpha  occ. eigenvalues --   -0.66584  -0.63915  -0.62893  -0.59169  -0.55849
 Alpha  occ. eigenvalues --   -0.54147  -0.50194  -0.48966  -0.46490  -0.42335
 Alpha  occ. eigenvalues --   -0.40424  -0.38953  -0.38365  -0.35950  -0.35743
 Alpha  occ. eigenvalues --   -0.35010  -0.34558  -0.34212  -0.32999  -0.31818
 Alpha  occ. eigenvalues --   -0.31487  -0.29849  -0.29534  -0.28853  -0.28048
 Alpha  occ. eigenvalues --   -0.27790  -0.26873  -0.26364  -0.25152  -0.23752
 Alpha  occ. eigenvalues --   -0.20285  -0.16985  -0.15655  -0.13446  -0.11627
 Alpha  occ. eigenvalues --    0.04140
 Alpha virt. eigenvalues --    0.05905   0.06399   0.07576   0.07829   0.08339
 Alpha virt. eigenvalues --    0.08608   0.09053   0.09258   0.09666   0.10334
 Alpha virt. eigenvalues --    0.10603   0.10929   0.11853   0.11997   0.12385

  Beta  occ. eigenvalues --  -19.00302 -14.26220 -14.20292 -10.17839 -10.11632
  Beta  occ. eigenvalues --  -10.11319 -10.09767 -10.09707 -10.09092 -10.07745
  Beta  occ. eigenvalues --  -10.07704 -10.07632 -10.07446 -10.07388 -10.07107
  Beta  occ. eigenvalues --   -0.95391  -0.87249  -0.81123  -0.75632  -0.71474
  Beta  occ. eigenvalues --   -0.66540  -0.63845  -0.62827  -0.59112  -0.55779
  Beta  occ. eigenvalues --   -0.54078  -0.50119  -0.48911  -0.46436  -0.42279
  Beta  occ. eigenvalues --   -0.40381  -0.38886  -0.38312  -0.35897  -0.35692
  Beta  occ. eigenvalues --   -0.34972  -0.34514  -0.34156  -0.32957  -0.31774
  Beta  occ. eigenvalues --   -0.31433  -0.29812  -0.29478  -0.28805  -0.28007
  Beta  occ. eigenvalues --   -0.27739  -0.26787  -0.26291  -0.25113  -0.23708
  Beta  occ. eigenvalues --   -0.20192  -0.16965  -0.15405  -0.13403  -0.11513
  Beta virt. eigenvalues --    0.06213   0.06761   0.06977   0.07963   0.08297
  Beta virt. eigenvalues --    0.08550   0.08882   0.09487   0.09654   0.09909
  Beta virt. eigenvalues --    0.10636   0.10753   0.11305   0.12015   0.12130

 Mulliken charges and spin densities:
               1          2
     1  C    0.264462  -0.968208
     2  C   -0.218282   0.586472
     3  C   -0.406170   0.669324
     4  C    1.195111  -1.030812
     5  C    0.173085  -0.466872
     6  C   -1.022395   0.366567
     7  C    0.744495  -0.058590
     8  C   -1.275793   0.719489
     9  C    1.156506  -1.934949
    10  N   -0.242029   0.177277
    11  C    0.781056  -1.137312
    12  N   -0.062693   0.148465
    13  C   -0.377396   0.279975
    14  O   -0.370017   0.005135
    15  C    0.631230  -0.929065
    16  H   -0.042294   0.194350
    17  H    0.052752   0.108244
    18  H   -0.015961   0.171339
    19  H   -0.148098   0.372351
    20  H   -0.372274   0.521869
    21  H   -0.516911   0.670116
    22  H    0.055212   0.149382
    23  H    0.037184   0.103786
    24  H    0.024292   0.132857
    25  H    0.097324   0.096475
    26  H   -0.344769   0.465855
    27  H   -0.219642   0.351532
    28  H   -0.219882   0.356726
    29  H   -0.181180   0.352219
    30  H   -0.252314   0.416142
    31  H    0.075389   0.109863
 Sum of Mulliken charges =  -1.00000   1.00000

 Dipole moment (field-independent basis, Debye):
    X=              2.3350    Y=              0.8761    Z=             -0.6447  Tot=              2.5759
 Quadrupole moment (field-independent basis, Debye-Ang):
   XX=           -187.7090   YY=           -137.6116   ZZ=           -116.3030
   XY=             -1.0371   XZ=              3.4079   YZ=              3.2305

 Summary of Natural Population Analysis:

                                       Natural Population
                Natural  -----------------------------------------------
    Atom  No    Charge         Core      Valence    Rydberg      Total
 -----------------------------------------------------------------------
      C    1   -0.27556      0.99965     2.27072    0.00519     3.27556
      C    2   -0.15338      0.99954     2.14351    0.01033     3.15338
      C    3   -0.01222      0.99948     2.00323    0.00951     3.01222
      C    4    0.08798      0.99944     1.90153    0.01105     2.91202
      C    5   -0.12078      0.99952     2.11186    0.00940     3.12078
      C    6   -0.08737      0.99953     2.07754    0.01030     3.08737
      C    7   -0.03401      0.99952     2.02345    0.01104     3.03401
      C    8   -0.08280      0.99947     2.07482    0.00852     3.08280
      C    9   -0.08761      0.99959     2.07802    0.00999     3.08761
      N   10   -0.33443      0.99975     2.82367    0.01101     3.83443
      C   11   -0.17541      0.99967     2.16880    0.00695     3.17541
      N   12   -0.23842      0.99959     2.72939    0.00944     3.73842
      C   13    0.36102      0.99964     1.61623    0.02310     2.63898
      O   14   -0.31923      0.99987     3.31339    0.00596     4.31923
      C   15   -0.18230      0.99965     2.17401    0.00865     3.18230
      H   16    0.10104      0.00000     0.39760    0.00136     0.39896
      H   17    0.10494      0.00000     0.39387    0.00120     0.39506
      H   18    0.10001      0.00000     0.39880    0.00120     0.39999
      H   19    0.11766      0.00000     0.38076    0.00158     0.38234
      H   20    0.10542      0.00000     0.39311    0.00147     0.39458
      H   21    0.10039      0.00000     0.39831    0.00130     0.39961
      H   22    0.10894      0.00000     0.38947    0.00159     0.39106
      H   23    0.09288      0.00000     0.40552    0.00160     0.40712
      H   24    0.08287      0.00000     0.41489    0.00224     0.41713
      H   25    0.16993      0.00000     0.32599    0.00408     0.33007
      H   26    0.07825      0.00000     0.41873    0.00302     0.42175
      H   27    0.09384      0.00000     0.40486    0.00130     0.40616
      H   28    0.08951      0.00000     0.40872    0.00177     0.41049
      H   29    0.09808      0.00000     0.40049    0.00144     0.40192
      H   30    0.09777      0.00000     0.40098    0.00125     0.40223
      H   31    0.11296      0.00000     0.38600    0.00104     0.38704
 =======================================================================
   * Total *    0.00000     14.99390    39.82824    0.17785    55.00000

 Normal termination of Gaussian 16 at Thu Dec 10 17:00:56 2020.
