 Gaussian 16, Revision A.03,

 -----------------------------------------------------------
 # opt freq B3LYP/6-31G(d) empiricaldispersion=gd3bj scf=xqc
 -----------------------------------------------------------

 ------------------------------
 CID_22541819_JID_9262_neutraal
 ------------------------------
 Symbolic Z-matrix:
 Charge =  0 Multiplicity = 1

 SCF Done:  E(RB3LYP) =  -854.665263696     A.U. after   15 cycles
 SCF Done:  E(RB3LYP) =  -854.671181971     A.U. after   13 cycles
 SCF Done:  E(RB3LYP) =  -854.671643503     A.U. after   13 cycles
 SCF Done:  E(RB3LYP) =  -854.674736489     A.U. after   12 cycles
 SCF Done:  E(RB3LYP) =  -854.676142729     A.U. after   12 cycles
 SCF Done:  E(RB3LYP) =  -854.676941025     A.U. after   12 cycles
 SCF Done:  E(RB3LYP) =  -854.677293576     A.U. after   12 cycles
 SCF Done:  E(RB3LYP) =  -854.677540187     A.U. after   12 cycles
 SCF Done:  E(RB3LYP) =  -854.677725460     A.U. after   12 cycles
 SCF Done:  E(RB3LYP) =  -854.677844384     A.U. after   12 cycles
 SCF Done:  E(RB3LYP) =  -854.678019298     A.U. after    9 cycles
 SCF Done:  E(RB3LYP) =  -854.678020096     A.U. after    8 cycles
 SCF Done:  E(RB3LYP) =  -854.678020301     A.U. after    8 cycles
 SCF Done:  E(RB3LYP) =  -854.678020380     A.U. after    7 cycles
 SCF Done:  E(RB3LYP) =  -854.678020408     A.U. after    7 cycles
 Optimization completed.
    -- Stationary point found.
 Normal termination of Gaussian 16 at Sat Dec 12 09:44:37 2020.

 --------------------------------------------------------------------
 #N Geom=AllCheck Guess=TCheck SCRF=Check GenChk RB3LYP/6-31G(d) Freq
 --------------------------------------------------------------------

 Structure from the checkpoint file:  "JID_9262.chk"
 ------------------------------
 CID_22541819_JID_9262_neutraal
 ------------------------------
 Charge =  0 Multiplicity = 1

 SCF Done:  E(RB3LYP) =  -854.678020408     A.U. after    1 cycles

  Exact polarizability: 252.394   3.356 183.132  -9.402   9.884 110.691
 Approx polarizability: 345.171   8.946 298.431 -18.671  25.090 176.770

                      1                      2                      3
                      A                      A                      A
 Frequencies --     32.5809                42.9724                46.2565
 Red. masses --      3.6838                 3.9887                 1.0948
 Frc consts  --      0.0023                 0.0043                 0.0014
 IR Inten    --      1.5864                 0.1362                 0.5174

                      4                      5                      6
                      A                      A                      A
 Frequencies --     53.8152                83.2701                97.0200
 Red. masses --      4.0790                 2.9552                 1.1092
 Frc consts  --      0.0070                 0.0121                 0.0062
 IR Inten    --      1.8248                 3.9268                 0.9782

                      7                      8                      9
                      A                      A                      A
 Frequencies --    106.9395               139.0473               145.5192
 Red. masses --      3.1135                 1.7829                 2.2680
 Frc consts  --      0.0210                 0.0203                 0.0283
 IR Inten    --      0.4505                18.9626                 8.1445

                     10                     11                     12
                      A                      A                      A
 Frequencies --    161.2997               183.3680               199.6882
 Red. masses --      2.8675                 3.6918                 3.3770
 Frc consts  --      0.0440                 0.0731                 0.0793
 IR Inten    --      0.2773                 2.1539                 1.4742

                     13                     14                     15
                      A                      A                      A
 Frequencies --    222.3090               242.6766               258.4164
 Red. masses --      5.6461                 3.2135                 1.3053
 Frc consts  --      0.1644                 0.1115                 0.0514
 IR Inten    --      0.7840                 4.0288                 0.6614

                     16                     17                     18
                      A                      A                      A
 Frequencies --    269.2313               299.9280               339.5205
 Red. masses --      3.5250                 3.7196                 3.9213
 Frc consts  --      0.1505                 0.1971                 0.2663
 IR Inten    --      1.4573                 9.9090                 4.6332

                     19                     20                     21
                      A                      A                      A
 Frequencies --    354.0088               366.1311               379.4129
 Red. masses --      3.3798                 3.9515                 3.8650
 Frc consts  --      0.2496                 0.3121                 0.3278
 IR Inten    --      0.3028                10.0894                 2.8732

                     22                     23                     24
                      A                      A                      A
 Frequencies --    445.4789               473.3723               519.7699
 Red. masses --      5.3673                 3.3567                 3.6437
 Frc consts  --      0.6276                 0.4432                 0.5800
 IR Inten    --      1.5646                 9.3363                19.6103

                     25                     26                     27
                      A                      A                      A
 Frequencies --    524.0443               549.0979               553.3575
 Red. masses --      3.4786                 2.8264                 5.3767
 Frc consts  --      0.5628                 0.5021                 0.9700
 IR Inten    --     40.8317                16.3097                 5.0271

                     28                     29                     30
                      A                      A                      A
 Frequencies --    556.1230               595.2125               624.4864
 Red. masses --      2.0257                 3.5924                 3.1795
 Frc consts  --      0.3691                 0.7498                 0.7306
 IR Inten    --     36.3863                 7.0681                37.4345

                     31                     32                     33
                      A                      A                      A
 Frequencies --    648.0584               674.2430               711.9540
 Red. masses --      2.2905                 3.8485                 4.6468
 Frc consts  --      0.5668                 1.0308                 1.3877
 IR Inten    --     86.8777                10.0644                40.1104

                     34                     35                     36
                      A                      A                      A
 Frequencies --    722.5086               736.5594               782.2460
 Red. masses --      4.5336                 4.1040                 3.9415
 Frc consts  --      1.3944                 1.3118                 1.4210
 IR Inten    --      5.0816                14.5190                 2.8839

                     37                     38                     39
                      A                      A                      A
 Frequencies --    795.3160               809.9554               826.4362
 Red. masses --      6.8595                 1.3943                 5.5067
 Frc consts  --      2.5564                 0.5389                 2.2160
 IR Inten    --     26.9149                27.0230                 4.9026

                     40                     41                     42
                      A                      A                      A
 Frequencies --    886.5663               900.5721               912.0473
 Red. masses --      1.3118                 5.0830                 1.2995
 Frc consts  --      0.6075                 2.4289                 0.6369
 IR Inten    --     86.5510                 4.1651                16.2306

                     43                     44                     45
                      A                      A                      A
 Frequencies --    930.6356               982.3253               985.6207
 Red. masses --      1.4389                 1.4791                 2.2399
 Frc consts  --      0.7343                 0.8410                 1.2820
 IR Inten    --     93.1670                 5.7309                17.7236

                     46                     47                     48
                      A                      A                      A
 Frequencies --   1023.8438              1041.9673              1075.3213
 Red. masses --      3.6086                 1.7821                 1.5411
 Frc consts  --      2.2287                 1.1400                 1.0500
 IR Inten    --     24.8997                12.2060                 9.3311

                     49                     50                     51
                      A                      A                      A
 Frequencies --   1081.2254              1125.9895              1160.0628
 Red. masses --      4.6801                 1.7448                 1.4984
 Frc consts  --      3.2236                 1.3033                 1.1881
 IR Inten    --     42.1727                 4.0554                28.6080

                     52                     53                     54
                      A                      A                      A
 Frequencies --   1165.2503              1179.8577              1187.8697
 Red. masses --      2.1230                 1.7231                 1.2726
 Frc consts  --      1.6984                 1.4133                 1.0580
 IR Inten    --     33.5221                67.6884                 1.0397

                     55                     56                     57
                      A                      A                      A
 Frequencies --   1198.6755              1208.8052              1223.9916
 Red. masses --      2.1352                 2.5979                 1.4503
 Frc consts  --      1.8075                 2.2366                 1.2802
 IR Inten    --     34.9835                17.8276                 0.7782

                     58                     59                     60
                      A                      A                      A
 Frequencies --   1235.9604              1268.5560              1298.9123
 Red. masses --      1.6863                 2.2075                 3.5156
 Frc consts  --      1.5178                 2.0930                 3.4947
 IR Inten    --     54.7803               140.5089                54.0102

                     61                     62                     63
                      A                      A                      A
 Frequencies --   1304.0917              1334.7424              1354.6321
 Red. masses --      3.1917                 1.6461                 3.6300
 Frc consts  --      3.1981                 1.7278                 3.9246
 IR Inten    --    152.6326                30.4421                13.6816

                     64                     65                     66
                      A                      A                      A
 Frequencies --   1377.1481              1391.5237              1442.6045
 Red. masses --      2.5224                 4.6642                 1.9534
 Frc consts  --      2.8185                 5.3212                 2.3952
 IR Inten    --     53.0243                12.8789                43.9229

                     67                     68                     69
                      A                      A                      A
 Frequencies --   1444.0084              1465.3213              1477.3744
 Red. masses --      1.2425                 2.1015                 1.3629
 Frc consts  --      1.5265                 2.6586                 1.7526
 IR Inten    --      0.3162                51.0570                25.3530

                     70                     71                     72
                      A                      A                      A
 Frequencies --   1478.4319              1497.0400              1509.6983
 Red. masses --      2.5405                 1.4020                 1.0969
 Frc consts  --      3.2717                 1.8513                 1.4729
 IR Inten    --    132.5591                83.9314                85.2081

                     73                     74                     75
                      A                      A                      A
 Frequencies --   1516.1430              1519.0059              1520.3374
 Red. masses --      1.0480                 1.3064                 1.3663
 Frc consts  --      1.4194                 1.7761                 1.8607
 IR Inten    --      6.5523               127.3604               131.9088

                     76                     77                     78
                      A                      A                      A
 Frequencies --   1527.7285              1537.5226              1538.1892
 Red. masses --      1.1315                 1.1293                 1.1009
 Frc consts  --      1.5559                 1.5729                 1.5347
 IR Inten    --     31.0480                 3.6174                21.9072

                     79                     80                     81
                      A                      A                      A
 Frequencies --   1574.9367              1582.0174              1629.1390
 Red. masses --      2.9392                 3.5823                 4.8882
 Frc consts  --      4.2954                 5.2825                 7.6439
 IR Inten    --    244.4730               173.8206                35.3327

                     82                     83                     84
                      A                      A                      A
 Frequencies --   1634.5211              1653.2395              1669.7296
 Red. masses --      3.3139                 4.5646                 5.9217
 Frc consts  --      5.2164                 7.3506                 9.7273
 IR Inten    --    546.1496                29.1406                 5.1562

                     85                     86                     87
                      A                      A                      A
 Frequencies --   1696.2644              3027.8187              3030.0988
 Red. masses --      1.2433                 1.0345                 1.0505
 Frc consts  --      2.1076                 5.5878                 5.6829
 IR Inten    --    211.8924                74.8749                83.1382

                     88                     89                     90
                      A                      A                      A
 Frequencies --   3038.5517              3087.1078              3090.7150
 Red. masses --      1.0400                 1.1067                 1.0981
 Frc consts  --      5.6572                 6.2142                 6.1805
 IR Inten    --     35.7447                39.0722                23.3707

                     91                     92                     93
                      A                      A                      A
 Frequencies --   3116.1045              3125.8759              3161.1673
 Red. masses --      1.0854                 1.1007                 1.1001
 Frc consts  --      6.2099                 6.3367                 6.4772
 IR Inten    --     35.6602                18.9554                22.8955

                     94                     95                     96
                      A                      A                      A
 Frequencies --   3162.4194              3174.9524              3190.4650
 Red. masses --      1.1037                 1.0902                 1.0891
 Frc consts  --      6.5033                 6.4751                 6.5317
 IR Inten    --     13.4516                48.0758                16.3832

                     97                     98                     99
                      A                      A                      A
 Frequencies --   3193.6865              3226.1023              3449.3706
 Red. masses --      1.0898                 1.0914                 1.0536
 Frc consts  --      6.5488                 6.6928                 7.3862
 IR Inten    --      7.9579                15.0755                 0.5966

                    100                    101                    102
                      A                      A                      A
 Frequencies --   3540.8782              3573.8045              3582.4851
 Red. masses --      1.0868                 1.0757                 1.0748
 Frc consts  --      8.0286                 8.0949                 8.1273
 IR Inten    --      6.3855                37.8200                49.4361

 - Thermochemistry -
 -------------------
 Temperature   298.150 Kelvin.  Pressure   1.00000 Atm.
 Atom     1 has atomic number  6 and mass  12.00000

 Molecular mass:   259.14331 amu.
 Principal axes and moments of inertia in atomic units:
                           1         2         3
     Eigenvalues --  2792.602908185.149419894.04712
           X            0.99994   0.01046   0.00287
           Y           -0.01042   0.99987  -0.01256
           Z           -0.00300   0.01253   0.99992
 This molecule is an asymmetric top.
 Rotational symmetry number  1.
 Warning -- assumption of classical behavior for rotation
           may cause significant error
 Rotational temperatures (Kelvin)      0.03102     0.01058     0.00875
 Rotational constants (GHZ):           0.64626     0.22049     0.18241
 Zero-point vibrational energy     784108.4 (Joules/Mol)
                                  187.40640 (Kcal/Mol)
 Warning -- explicit consideration of  29 degrees of freedom as
           vibrations may cause significant error
 Vibrational temperatures:     46.88    61.83    66.55    77.43   119.81
          (Kelvin)            139.59   153.86   200.06   209.37   232.07
                              263.83   287.31   319.85   349.16   371.80
                              387.36   431.53   488.49   509.34   526.78
                              545.89   640.94   681.08   747.83   753.98
                              790.03   796.16   800.14   856.38   898.50
                              932.41   970.09  1024.34  1039.53  1059.74
                             1125.48  1144.28  1165.35  1189.06  1275.57
                             1295.72  1312.23  1338.98  1413.35  1418.09
                             1473.08  1499.16  1547.15  1555.64  1620.05
                             1669.07  1676.54  1697.55  1709.08  1724.63
                             1739.20  1761.05  1778.27  1825.17  1868.85
                             1876.30  1920.40  1949.01  1981.41  2002.09
                             2075.59  2077.61  2108.27  2125.61  2127.13
                             2153.91  2172.12  2181.39  2185.51  2187.43
                             2198.06  2212.15  2213.11  2265.98  2276.17
                             2343.97  2351.71  2378.64  2402.37  2440.55
                             4356.36  4359.64  4371.80  4441.66  4446.85
                             4483.38  4497.44  4548.21  4550.02  4568.05
                             4590.37  4595.00  4641.64  4962.87  5094.53
                             5141.91  5154.40

 Zero-point correction=                           0.298651 (Hartree/Particle)
 Thermal correction to Energy=                    0.317376
 Thermal correction to Enthalpy=                  0.318320
 Thermal correction to Gibbs Free Energy=         0.250733
 Sum of electronic and zero-point Energies=           -854.379369
 Sum of electronic and thermal Energies=              -854.360644
 Sum of electronic and thermal Enthalpies=            -854.359700
 Sum of electronic and thermal Free Energies=         -854.427287

                     E (Thermal)             CV                S
                      KCal/Mol        Cal/Mol-Kelvin    Cal/Mol-Kelvin
 Total                  199.157             69.574            142.250
 Electronic               0.000              0.000              0.000
 Translational            0.889              2.981             42.556
 Rotational               0.889              2.981             33.780
 Vibrational            197.379             63.612             65.913
 Vibration     1          0.594              1.983              5.666
 Vibration     2          0.595              1.980              5.117
 Vibration     3          0.595              1.979              4.971
 Vibration     4          0.596              1.976              4.672
 Vibration     5          0.600              1.961              3.812
 Vibration     6          0.603              1.951              3.513
 Vibration     7          0.606              1.944              3.324
 Vibration     8          0.615              1.914              2.817
 Vibration     9          0.617              1.908              2.730
 Vibration    10          0.622              1.890              2.534
 Vibration    11          0.631              1.862              2.294
 Vibration    12          0.638              1.840              2.136
 Vibration    13          0.648              1.807              1.940
 Vibration    14          0.659              1.775              1.783
 Vibration    15          0.667              1.749              1.672
 Vibration    16          0.674              1.730              1.601
 Vibration    17          0.692              1.674              1.417
 Vibration    18          0.719              1.597              1.214
 Vibration    19          0.730              1.567              1.148
 Vibration    20          0.739              1.542              1.096
 Vibration    21          0.749              1.514              1.042
 Vibration    22          0.805              1.371              0.810
 Vibration    23          0.830              1.309              0.728
 Vibration    24          0.875              1.206              0.610
 Vibration    25          0.879              1.197              0.601
 Vibration    26          0.904              1.142              0.546
 Vibration    27          0.909              1.132              0.537
 Vibration    28          0.912              1.126              0.532
 Vibration    29          0.953              1.042              0.458

 Optimization completed.
    -- Stationary point found.
 Normal termination of Gaussian 16 at Sat Dec 12 10:01:35 2020.

 ----------------------------------------------------------------------
 # B3LYP/6-311++G(d,p) empiricaldispersion=gd3bj scf=xqc pop=npa geom=c
 heck
 ----------------------------------------------------------------------

 --------------------------------------
 CID_22541819_JID_9262_Energie_neutraal
 --------------------------------------
 Structure from the checkpoint file:  "JID_9262.chk"
 Charge =  0 Multiplicity = 1

 SCF Done:  E(RB3LYP) =  -854.917876067     A.U. after   15 cycles
 Normal termination of Gaussian 16 at Sat Dec 12 10:08:43 2020.

 ----------------------------------------------------------------------
 # B3LYP/6-311++G(d,p) empiricaldispersion=gd3bj scf=xqc pop=npa geom=c
 heck
 ----------------------------------------------------------------------

 ------------------------------------
 CID_22541819_JID_9262_Energie_kation
 ------------------------------------
 Structure from the checkpoint file:  "JID_9262.chk"
 Charge =  1 Multiplicity = 2

 SCF Done:  E(UB3LYP) =  -854.656912812     A.U. after   23 cycles
 Normal termination of Gaussian 16 at Sat Dec 12 10:24:30 2020.
 Gaussian 16:  ES64L-G16RevA.03 25-Dec-2016

 ----------------------------------------------------------------------
 # B3LYP/6-311++G(d,p) empiricaldispersion=gd3bj scf=xqc pop=npa geom=c
 heck
 ----------------------------------------------------------------------

 -----------------------------------
 CID_22541819_JID_9262_Energie_anion
 -----------------------------------
 Structure from the checkpoint file:  "JID_9262.chk"
 Charge = -1 Multiplicity = 2

                         Standard orientation:
 ---------------------------------------------------------------------
 Center     Atomic      Atomic             Coordinates (Angstroms)
 Number     Number       Type             X           Y           Z
 ---------------------------------------------------------------------
      1          6           0       -1.851623    3.512989   -0.868328
      2          6           0       -2.164470    2.083545   -0.496856
      3          6           0       -1.151748    1.112583   -0.524962
      4          6           0       -1.398368   -0.212848   -0.165951
      5          6           0       -2.716730   -0.592305    0.181147
      6          6           0       -3.729919    0.358887    0.198147
      7          6           0       -3.448634    1.692092   -0.127284
      8          8           0       -2.874032   -1.923787    0.461607
      9          6           0       -4.182588   -2.385893    0.749582
     10          7           0       -0.417369   -1.213574   -0.153674
     11          6           0        0.949107   -1.019501   -0.326751
     12          7           0        1.549482   -1.870382   -1.190852
     13          6           0        2.858742   -1.704635   -1.346539
     14          7           0        3.651797   -0.802868   -0.763224
     15          6           0        3.053993    0.003870    0.133121
     16          6           0        1.667451   -0.080556    0.416582
     17          7           0        1.146268    0.705239    1.487739
     18          7           0        3.805179    0.926117    0.795357
     19          6           0        5.255885    0.888918    0.768817
     20          1           0       -1.218473    3.997414   -0.113282
     21          1           0       -1.314285    3.570550   -1.822361
     22          1           0       -2.765502    4.107546   -0.962002
     23          1           0       -0.159140    1.380476   -0.874609
     24          1           0       -4.741797    0.077397    0.465245
     25          1           0       -4.250662    2.424397   -0.100365
     26          1           0       -4.584965   -1.908821    1.652746
     27          1           0       -4.865930   -2.201510   -0.089586
     28          1           0       -4.092418   -3.460284    0.917463
     29          1           0       -0.734334   -2.120987   -0.474891
     30          1           0        3.347001   -2.386819   -2.040878
     31          1           0        0.758009    1.590527    1.159058
     32          1           0        0.372733    0.213170    1.930599
     33          1           0        3.344014    1.289829    1.621601
     34          1           0        5.636761    1.787805    1.260535
     35          1           0        5.665779    0.001943    1.272533
     36          1           0        5.601371    0.873074   -0.266432
 ---------------------------------------------------------------------

 SCF Done:  E(UB3LYP) =  -854.907448722     A.U. after   33 cycles
 SCF Done:  E(UB3LYP) =  -854.907448721     a.u. after    1 cycles

 The electronic state is 2-A.
 Alpha  occ. eigenvalues --  -19.06984 -14.25386 -14.24605 -14.22790 -14.21722
 Alpha  occ. eigenvalues --  -14.21606 -10.16475 -10.16377 -10.14790 -10.14470
 Alpha  occ. eigenvalues --  -10.13312 -10.13148 -10.12125 -10.11493 -10.09162
 Alpha  occ. eigenvalues --  -10.08474 -10.08385 -10.08005 -10.07984  -0.98561
 Alpha  occ. eigenvalues --   -0.91449  -0.87656  -0.84628  -0.81385  -0.78204
 Alpha  occ. eigenvalues --   -0.75986  -0.69059  -0.67514  -0.65476  -0.63274
 Alpha  occ. eigenvalues --   -0.61713  -0.58101  -0.56616  -0.55289  -0.51096
 Alpha  occ. eigenvalues --   -0.50550  -0.47790  -0.45749  -0.44174  -0.42499
 Alpha  occ. eigenvalues --   -0.40982  -0.40523  -0.39694  -0.38973  -0.38236
 Alpha  occ. eigenvalues --   -0.36525  -0.36050  -0.35551  -0.34916  -0.34549
 Alpha  occ. eigenvalues --   -0.34127  -0.33382  -0.32861  -0.31119  -0.30343
 Alpha  occ. eigenvalues --   -0.29821  -0.28493  -0.26864  -0.26274  -0.24985
 Alpha  occ. eigenvalues --   -0.23717  -0.23409  -0.22208  -0.21047  -0.18261
 Alpha  occ. eigenvalues --   -0.16602  -0.14927  -0.13801  -0.11540   0.03767
 Alpha virt. eigenvalues --    0.05112   0.05903   0.06127   0.06887   0.07250
 Alpha virt. eigenvalues --    0.07592   0.07991   0.08363   0.08794   0.09042
 Alpha virt. eigenvalues --    0.09392   0.09510   0.09849   0.10273   0.10591

  Beta  occ. eigenvalues --  -19.06975 -14.25385 -14.24592 -14.22760 -14.21721
  Beta  occ. eigenvalues --  -14.21601 -10.16473 -10.16378 -10.14790 -10.14469
  Beta  occ. eigenvalues --  -10.13261 -10.13148 -10.12123 -10.11469 -10.09161
  Beta  occ. eigenvalues --  -10.08459 -10.08375 -10.07979 -10.07971  -0.98540
  Beta  occ. eigenvalues --   -0.91442  -0.87647  -0.84615  -0.81352  -0.78194
  Beta  occ. eigenvalues --   -0.75974  -0.69037  -0.67492  -0.65453  -0.63224
  Beta  occ. eigenvalues --   -0.61679  -0.58046  -0.56598  -0.55267  -0.51064
  Beta  occ. eigenvalues --   -0.50526  -0.47771  -0.45720  -0.44148  -0.42472
  Beta  occ. eigenvalues --   -0.40947  -0.40500  -0.39658  -0.38948  -0.38202
  Beta  occ. eigenvalues --   -0.36503  -0.36017  -0.35528  -0.34892  -0.34527
  Beta  occ. eigenvalues --   -0.34092  -0.33353  -0.32847  -0.31087  -0.30318
  Beta  occ. eigenvalues --   -0.29792  -0.28462  -0.26833  -0.26260  -0.24948
  Beta  occ. eigenvalues --   -0.23704  -0.23385  -0.22194  -0.21027  -0.18249
  Beta  occ. eigenvalues --   -0.16590  -0.14912  -0.13784  -0.11527
  Beta virt. eigenvalues --    0.05720   0.05969   0.06213   0.06683   0.06957
  Beta virt. eigenvalues --    0.07588   0.07794   0.08167   0.08649   0.09069
  Beta virt. eigenvalues --    0.09397   0.09648   0.09852   0.10008   0.10602

 Mulliken charges and spin densities:
               1          2
     1  C    1.480837  -2.075076
     2  C    0.265888   0.120816
     3  C   -1.092220   1.271558
     4  C   -0.366346   0.329054
     5  C   -0.195873  -0.392297
     6  C   -0.028918   0.587353
     7  C    0.260572  -1.526748
     8  O   -0.217620   0.057206
     9  C    1.037943  -1.300062
    10  N   -0.024994   0.043672
    11  C    0.317476  -0.406746
    12  N   -0.141917   0.012225
    13  C   -0.128128   0.129173
    14  N   -0.187471   0.000725
    15  C   -0.020929  -0.146647
    16  C   -0.504578   0.295186
    17  N   -0.375810  -0.000571
    18  N   -0.214227   0.055082
    19  C    0.399242  -0.734505
    20  H   -0.164692   0.336070
    21  H   -0.007593   0.158678
    22  H   -0.041676   0.191076
    23  H    0.247049   0.001660
    24  H   -0.351152   0.551871
    25  H   -0.433794   0.559835
    26  H   -0.359512   0.520454
    27  H   -0.254249   0.415085
    28  H   -0.405219   0.579093
    29  H    0.329897  -0.007259
    30  H    0.142089   0.040609
    31  H    0.157104   0.113363
    32  H    0.081859   0.220882
    33  H    0.067440   0.246789
    34  H   -0.358344   0.499728
    35  H    0.018050   0.143949
    36  H    0.069815   0.108720
 Sum of Mulliken charges =  -1.00000   1.00000

 Dipole moment (field-independent basis, Debye):
    X=              4.0958    Y=             -0.7785    Z=             -2.2959  Tot=              4.7595
 Quadrupole moment (field-independent basis, Debye-Ang):
   XX=           -220.3995   YY=           -166.5064   ZZ=           -146.8995
   XY=            -14.1517   XZ=              2.7896   YZ=             -1.9672

 Summary of Natural Population Analysis:

                                       Natural Population
                Natural  -----------------------------------------------
    Atom  No    Charge         Core      Valence    Rydberg      Total
 -----------------------------------------------------------------------
      C    1   -0.28923      0.99964     2.28474    0.00486     3.28923
      C    2   -0.02366      0.99952     2.01403    0.01011     3.02366
      C    3   -0.12448      0.99949     2.11575    0.00925     3.12448
      C    4    0.06804      0.99944     1.92082    0.01170     2.93196
      C    5    0.14876      0.99935     1.83902    0.01286     2.85124
      C    6   -0.13304      0.99952     2.12400    0.00951     3.13304
      C    7   -0.10361      0.99952     2.09395    0.01013     3.10361
      O    8   -0.27776      0.99986     3.26784    0.01006     4.27776
      C    9   -0.09946      0.99960     2.09078    0.00908     3.09946
      N   10   -0.30282      0.99963     2.79253    0.01066     3.80282
      C   11    0.19551      0.99947     1.79003    0.01499     2.80449
      N   12   -0.27804      0.99968     2.76866    0.00970     3.77804
      C   13    0.14779      0.99967     1.83349    0.01904     2.85221
      N   14   -0.28379      0.99968     2.77498    0.00913     3.78379
      C   15    0.21279      0.99950     1.77184    0.01586     2.78721
      C   16    0.00573      0.99939     1.98405    0.01083     2.99427
      N   17   -0.42066      0.99975     2.91092    0.00999     3.92066
      N   18   -0.30375      0.99966     2.79392    0.01017     3.80375
      C   19   -0.18002      0.99965     2.17148    0.00889     3.18002
      H   20    0.10448      0.00000     0.39397    0.00154     0.39552
      H   21    0.10179      0.00000     0.39717    0.00103     0.39821
      H   22    0.10186      0.00000     0.39715    0.00100     0.39814
      H   23    0.10312      0.00000     0.39492    0.00196     0.39688
      H   24    0.10866      0.00000     0.38959    0.00175     0.39134
      H   25    0.10041      0.00000     0.39847    0.00112     0.39959
      H   26    0.08733      0.00000     0.41044    0.00223     0.41267
      H   27    0.08633      0.00000     0.41175    0.00191     0.41367
      H   28    0.09465      0.00000     0.40413    0.00122     0.40535
      H   29    0.20288      0.00000     0.29355    0.00357     0.29712
      H   30    0.08106      0.00000     0.41794    0.00100     0.41894
      H   31    0.18768      0.00000     0.31004    0.00227     0.31232
      H   32    0.18825      0.00000     0.30974    0.00201     0.31175
      H   33    0.20310      0.00000     0.29423    0.00267     0.29690
      H   34    0.09741      0.00000     0.40147    0.00112     0.40259
      H   35    0.08964      0.00000     0.40920    0.00116     0.41036
      H   36    0.10302      0.00000     0.39551    0.00147     0.39698
 =======================================================================
   * Total *    0.00000     18.99202    49.77209    0.23589    69.00000

 Normal termination of Gaussian 16 at Sat Dec 12 10:46:46 2020.
