 Gaussian 16, Revision A.03,

 -----------------------------------------------------------
 # opt freq B3LYP/6-31G(d) empiricaldispersion=gd3bj scf=xqc
 -----------------------------------------------------------

 -------------------------------
 CID_151241790_JID_4842_neutraal
 -------------------------------
 Symbolic Z-matrix:
 Charge =  0 Multiplicity = 1

 SCF Done:  E(RB3LYP) =  -671.334508773     A.U. after   18 cycles
 SCF Done:  E(RB3LYP) =  -671.342741485     A.U. after   16 cycles
 SCF Done:  E(RB3LYP) =  -671.344384344     A.U. after   14 cycles
 SCF Done:  E(RB3LYP) =  -671.345006057     A.U. after   13 cycles
 SCF Done:  E(RB3LYP) =  -671.345575875     A.U. after   14 cycles
 SCF Done:  E(RB3LYP) =  -671.346382494     A.U. after   15 cycles
 SCF Done:  E(RB3LYP) =  -671.347092017     A.U. after   14 cycles
 SCF Done:  E(RB3LYP) =  -671.349261599     A.U. after   17 cycles
 SCF Done:  E(RB3LYP) =  -671.351284575     A.U. after   17 cycles
 SCF Done:  E(RB3LYP) =  -671.353004008     A.U. after   17 cycles
 SCF Done:  E(RB3LYP) =  -671.357664810     A.U. after    9 cycles
 SCF Done:  E(RB3LYP) =  -671.357664830     A.U. after    8 cycles
 SCF Done:  E(RB3LYP) =  -671.357664849     A.U. after    7 cycles
 SCF Done:  E(RB3LYP) =  -671.357664867     A.U. after    7 cycles
 Optimization completed.
    -- Stationary point found.
 Normal termination of Gaussian 16 at Thu Dec 10 10:08:28 2020.

 --------------------------------------------------------------------
 #N Geom=AllCheck Guess=TCheck SCRF=Check GenChk RB3LYP/6-31G(d) Freq
 --------------------------------------------------------------------

 Structure from the checkpoint file:  "JID_4842.chk"
 -------------------------------
 CID_151241790_JID_4842_neutraal
 -------------------------------
 Charge =  0 Multiplicity = 1

 SCF Done:  E(RB3LYP) =  -671.357664867     A.U. after    1 cycles

  Exact polarizability: 168.533   0.639 122.084  -3.374  -0.848  58.449
 Approx polarizability: 285.941  -8.740 195.996  -9.636  -4.469  90.809

                      1                      2                      3
                      A                      A                      A
 Frequencies --     16.4712                57.9482                95.8101
 Red. masses --     11.1304                 3.9038                 2.0374
 Frc consts  --      0.0018                 0.0077                 0.0110
 IR Inten    --      0.0328                 0.3186                 2.2369

                      4                      5                      6
                      A                      A                      A
 Frequencies --    109.3847               115.8170               166.5984
 Red. masses --      1.8572                 6.1524                 6.3319
 Frc consts  --      0.0131                 0.0486                 0.1035
 IR Inten    --      0.6963                 0.1391                 3.4337

                      7                      8                      9
                      A                      A                      A
 Frequencies --    182.6981               205.5408               230.3035
 Red. masses --      3.8137                 3.5367                 1.2044
 Frc consts  --      0.0750                 0.0880                 0.0376
 IR Inten    --      4.3200                 4.7565                45.8600

                     10                     11                     12
                      A                      A                      A
 Frequencies --    270.8142               313.6095               342.5780
 Red. masses --      4.9784                 2.0335                 3.3373
 Frc consts  --      0.2151                 0.1178                 0.2308
 IR Inten    --      8.3640                44.3557                59.6574

                     13                     14                     15
                      A                      A                      A
 Frequencies --    369.2165               454.6706               459.6840
 Red. masses --      2.4577                 5.2657                 5.2254
 Frc consts  --      0.1974                 0.6414                 0.6506
 IR Inten    --     47.2675                 7.7492                 6.1055

                     16                     17                     18
                      A                      A                      A
 Frequencies --    472.0882               522.2623               581.9884
 Red. masses --      7.7902                 5.2490                 4.4436
 Frc consts  --      1.0229                 0.8435                 0.8868
 IR Inten    --     15.4411                 5.3048                 9.0356

                     19                     20                     21
                      A                      A                      A
 Frequencies --    591.5736               606.7757               637.1874
 Red. masses --      7.2385                 6.4282                 4.7613
 Frc consts  --      1.4925                 1.3944                 1.1390
 IR Inten    --      2.4318                 7.9002                 0.3693

                     22                     23                     24
                      A                      A                      A
 Frequencies --    711.3199               726.3672               777.6726
 Red. masses --      7.0079                 7.4996                 3.4832
 Frc consts  --      2.0892                 2.3313                 1.2411
 IR Inten    --     16.0233                17.0090                22.2852

                     25                     26                     27
                      A                      A                      A
 Frequencies --    845.5381               855.7642               923.9697
 Red. masses --      4.0765                 2.9122                 1.8216
 Frc consts  --      1.7172                 1.2565                 0.9162
 IR Inten    --     57.1658                60.1520                45.4915

                     28                     29                     30
                      A                      A                      A
 Frequencies --    951.0280              1005.5367              1036.4354
 Red. masses --      2.0602                 3.3705                 1.7369
 Frc consts  --      1.0979                 2.0079                 1.0993
 IR Inten    --     95.9659                44.8786                 3.6547

                     31                     32                     33
                      A                      A                      A
 Frequencies --   1073.6038              1090.8161              1114.4180
 Red. masses --      1.4888                 3.4759                 2.8456
 Frc consts  --      1.0110                 2.4368                 2.0822
 IR Inten    --      1.2880                38.7515                21.6738

                     34                     35                     36
                      A                      A                      A
 Frequencies --   1136.0773              1197.5859              1235.4891
 Red. masses --      4.2033                 6.9752                 1.3895
 Frc consts  --      3.1963                 5.8941                 1.2496
 IR Inten    --     83.6407                93.1966                16.2606

                     37                     38                     39
                      A                      A                      A
 Frequencies --   1266.1806              1322.8612              1342.8354
 Red. masses --      4.6869                 4.9725                 1.6650
 Frc consts  --      4.4271                 5.1268                 1.7689
 IR Inten    --      3.0309                 2.7314                 2.1057

                     40                     41                     42
                      A                      A                      A
 Frequencies --   1412.2425              1420.7681              1433.5276
 Red. masses --      1.6363                 1.2776                 1.9375
 Frc consts  --      1.9228                 1.5195                 2.3459
 IR Inten    --     78.1439                36.7887                15.8296

                     43                     44                     45
                      A                      A                      A
 Frequencies --   1436.4798              1443.4757              1510.2545
 Red. masses --      1.5468                 2.0558                 1.2805
 Frc consts  --      1.8806                 2.5238                 1.7209
 IR Inten    --      1.2799                86.1786                13.9429

                     46                     47                     48
                      A                      A                      A
 Frequencies --   1512.7036              1523.8521              1621.8020
 Red. masses --      2.0749                 1.4380                 5.0074
 Frc consts  --      2.7974                 1.9675                 7.7599
 IR Inten    --     17.6753                27.6688                82.8850

                     49                     50                     51
                      A                      A                      A
 Frequencies --   1647.0616              1689.7592              1734.8980
 Red. masses --      9.8370                 1.0962                 7.8578
 Frc consts  --     15.7230                 1.8441                13.9348
 IR Inten    --    182.3611                17.1629               161.0653

                     52                     53                     54
                      A                      A                      A
 Frequencies --   2259.8846              3038.8039              3046.4727
 Red. masses --     13.9945                 1.0845                 1.0397
 Frc consts  --     42.1094                 5.9005                 5.6854
 IR Inten    --    556.7618                41.0980                28.8327

                     55                     56                     57
                      A                      A                      A
 Frequencies --   3096.5800              3150.5389              3166.7119
 Red. masses --      1.1001                 1.0995                 1.0914
 Frc consts  --      6.2151                 6.4301                 6.4482
 IR Inten    --     16.9225                 7.7903                34.2169

                     58                     59                     60
                      A                      A                      A
 Frequencies --   3454.3356              3546.1176              3627.7041
 Red. masses --      1.0494                 1.0924                 1.0784
 Frc consts  --      7.3773                 8.0938                 8.3618
 IR Inten    --      1.0693                 0.4624                50.6264

 - Thermochemistry -
 -------------------
 Temperature   298.150 Kelvin.  Pressure   1.00000 Atm.
 Atom     1 has atomic number  6 and mass  12.00000

 Molecular mass:   192.08719 amu.
 Principal axes and moments of inertia in atomic units:
                           1         2         3
     Eigenvalues --  1417.620073500.838744730.56490
           X            0.99994   0.01010   0.00373
           Y           -0.01009   0.99995  -0.00126
           Z           -0.00374   0.00122   0.99999
 This molecule is an asymmetric top.
 Rotational symmetry number  1.
 Warning -- assumption of classical behavior for rotation
           may cause significant error
 Rotational temperatures (Kelvin)      0.06110     0.02474     0.01831
 Rotational constants (GHZ):           1.27308     0.51552     0.38151
 Zero-point vibrational energy     431795.0 (Joules/Mol)
                                  103.20149 (Kcal/Mol)
 Warning -- explicit consideration of  20 degrees of freedom as
           vibrations may cause significant error
 Vibrational temperatures:     23.70    83.37   137.85   157.38   166.63
          (Kelvin)            239.70   262.86   295.73   331.36   389.64
                              451.21   492.89   531.22   654.17   661.38
                              679.23   751.42   837.35   851.14   873.01
                              916.77  1023.43  1045.08  1118.90  1216.54
                             1231.25  1329.39  1368.32  1446.74  1491.20
                             1544.68  1569.44  1603.40  1634.56  1723.06
                             1777.59  1821.75  1903.30  1932.04  2031.90
                             2044.17  2062.53  2066.77  2076.84  2172.92
                             2176.44  2192.48  2333.41  2369.75  2431.19
                             2496.13  3251.47  4372.16  4383.19  4455.29
                             4532.92  4556.19  4970.02  5102.07  5219.46

 Zero-point correction=                           0.164462 (Hartree/Particle)
 Thermal correction to Energy=                    0.177434
 Thermal correction to Enthalpy=                  0.178378
 Thermal correction to Gibbs Free Energy=         0.123537
 Sum of electronic and zero-point Energies=           -671.193203
 Sum of electronic and thermal Energies=              -671.180231
 Sum of electronic and thermal Enthalpies=            -671.179287
 Sum of electronic and thermal Free Energies=         -671.234128

                     E (Thermal)             CV                S
                      KCal/Mol        Cal/Mol-Kelvin    Cal/Mol-Kelvin
 Total                  111.341             46.740            115.423
 Electronic               0.000              0.000              0.000
 Translational            0.889              2.981             41.664
 Rotational               0.889              2.981             31.529
 Vibrational            109.564             40.779             42.230
 Vibration     1          0.593              1.986              7.020
 Vibration     2          0.596              1.974              4.526
 Vibration     3          0.603              1.952              3.538
 Vibration     4          0.606              1.942              3.280
 Vibration     5          0.608              1.936              3.169
 Vibration     6          0.624              1.884              2.474
 Vibration     7          0.630              1.863              2.301
 Vibration     8          0.640              1.832              2.083
 Vibration     9          0.652              1.795              1.877
 Vibration    10          0.675              1.727              1.591
 Vibration    11          0.701              1.648              1.343
 Vibration    12          0.722              1.590              1.200
 Vibration    13          0.742              1.535              1.083
 Vibration    14          0.813              1.351              0.782
 Vibration    15          0.818              1.339              0.767
 Vibration    16          0.829              1.312              0.732
 Vibration    17          0.877              1.201              0.605
 Vibration    18          0.939              1.070              0.482
 Vibration    19          0.949              1.050              0.464
 Vibration    20          0.965              1.017              0.438

                           ! Non-Optimized Parameters !
 Normal termination of Gaussian 16 at Thu Dec 10 10:14:15 2020.

 ----------------------------------------------------------------------
 # B3LYP/6-311++G(d,p) empiricaldispersion=gd3bj scf=xqc pop=npa geom=c
 heck
 ----------------------------------------------------------------------

 ---------------------------------------
 CID_151241790_JID_4842_Energie_neutraal
 ---------------------------------------
 Structure from the checkpoint file:  "JID_4842.chk"
 Charge =  0 Multiplicity = 1

 SCF Done:  E(RB3LYP) =  -671.547069949     A.U. after   19 cycles
 Normal termination of Gaussian 16 at Thu Dec 10 10:16:32 2020.

 ----------------------------------------------------------------------
 # B3LYP/6-311++G(d,p) empiricaldispersion=gd3bj scf=xqc pop=npa geom=c
 heck
 ----------------------------------------------------------------------

 -------------------------------------
 CID_151241790_JID_4842_Energie_kation
 -------------------------------------
 Structure from the checkpoint file:  "JID_4842.chk"
 Charge =  1 Multiplicity = 2

 SCF Done:  E(UB3LYP) =  -671.246426899     A.U. after   33 cycles
 SCF Done:  E(UB3LYP) =  -671.246426899     a.u. after    2 cycles
 Normal termination of Gaussian 16 at Thu Dec 10 10:26:42 2020.
 Gaussian 16:  ES64L-G16RevA.03 25-Dec-2016

 ----------------------------------------------------------------------
 # B3LYP/6-311++G(d,p) empiricaldispersion=gd3bj scf=xqc pop=npa geom=c
 heck
 ----------------------------------------------------------------------

 ------------------------------------
 CID_151241790_JID_4842_Energie_anion
 ------------------------------------
 Structure from the checkpoint file:  "JID_4842.chk"
 Charge = -1 Multiplicity = 2

                         Standard orientation:
 ---------------------------------------------------------------------
 Center     Atomic      Atomic             Coordinates (Angstroms)
 Number     Number       Type             X           Y           Z
 ---------------------------------------------------------------------
      1          6           0        0.295581    2.971900   -0.323849
      2          6           0       -0.028699    1.517482   -0.198288
      3          7           0       -1.302680    1.118748   -0.076988
      4          7           0       -1.218474   -0.239023    0.031164
      5          6           0        0.055820   -0.688707   -0.033272
      6          6           0        0.869639    0.417660   -0.175815
      7          6           0        2.368994    0.250835   -0.220035
      8          7           0        2.748240   -1.167879   -0.365063
      9          6           0        1.897429   -2.106005   -0.234988
     10          7           0        0.525525   -1.979395    0.022167
     11          7           0        3.082086    0.775946    0.953005
     12          7           0       -2.323911   -1.079915    0.136079
     13          7           0       -3.400264   -0.449415    0.137080
     14          7           0       -4.458780   -0.027439    0.153561
     15          1           0        0.877548    3.171737   -1.231353
     16          1           0        0.890754    3.320574    0.529477
     17          1           0       -0.624135    3.560267   -0.364392
     18          1           0        2.795909    0.778212   -1.082963
     19          1           0        2.226335   -3.141954   -0.314665
     20          1           0       -0.096999   -2.763425   -0.114122
     21          1           0        3.001659    1.792273    0.962855
     22          1           0        2.614153    0.441929    1.795608
 ---------------------------------------------------------------------

 SCF Done:  E(UB3LYP) =  -671.558033044     A.U. after   33 cycles
 SCF Done:  E(UB3LYP) =  -671.558033044     a.u. after    1 cycles

 The electronic state is 2-A.
 Alpha  occ. eigenvalues --  -14.29272 -14.27544 -14.25039 -14.23558 -14.20960
 Alpha  occ. eigenvalues --  -14.19698 -14.19600 -14.18962 -10.14308 -10.13313
 Alpha  occ. eigenvalues --  -10.12787 -10.08626 -10.07433 -10.04904  -0.98907
 Alpha  occ. eigenvalues --   -0.93404  -0.87737  -0.82267  -0.81039  -0.75789
 Alpha  occ. eigenvalues --   -0.70592  -0.67152  -0.62219  -0.57325  -0.53449
 Alpha  occ. eigenvalues --   -0.49633  -0.48806  -0.43970  -0.41808  -0.38872
 Alpha  occ. eigenvalues --   -0.37828  -0.36703  -0.35704  -0.34209  -0.33571
 Alpha  occ. eigenvalues --   -0.32748  -0.31270  -0.30221  -0.29493  -0.28536
 Alpha  occ. eigenvalues --   -0.27808  -0.26083  -0.19382  -0.18988  -0.18739
 Alpha  occ. eigenvalues --   -0.17539  -0.16082  -0.14461  -0.10362  -0.07583
 Alpha  occ. eigenvalues --    0.04635
 Alpha virt. eigenvalues --    0.06662   0.07240   0.09296   0.09776   0.10184
 Alpha virt. eigenvalues --    0.10808   0.11677   0.12638   0.13372   0.13688
 Alpha virt. eigenvalues --    0.14465   0.15193   0.16043   0.16397   0.17293

  Beta  occ. eigenvalues --  -14.29072 -14.26958 -14.24993 -14.23630 -14.20953
  Beta  occ. eigenvalues --  -14.19698 -14.18965 -14.18761 -10.14291 -10.13310
  Beta  occ. eigenvalues --  -10.12792 -10.08633 -10.07431 -10.04897  -0.98203
  Beta  occ. eigenvalues --   -0.92777  -0.87658  -0.81833  -0.80974  -0.75772
  Beta  occ. eigenvalues --   -0.70325  -0.67084  -0.62053  -0.57238  -0.53305
  Beta  occ. eigenvalues --   -0.49537  -0.48495  -0.43850  -0.41784  -0.38836
  Beta  occ. eigenvalues --   -0.37738  -0.36559  -0.35291  -0.33805  -0.32757
  Beta  occ. eigenvalues --   -0.32027  -0.31112  -0.29650  -0.29267  -0.27709
  Beta  occ. eigenvalues --   -0.26693  -0.25944  -0.19064  -0.18776  -0.17537
  Beta  occ. eigenvalues --   -0.17460  -0.16010  -0.14418  -0.10358  -0.07364
  Beta virt. eigenvalues --    0.06885   0.07892   0.09221   0.09762   0.10283
  Beta virt. eigenvalues --    0.11242   0.11712   0.12594   0.13340   0.13739
  Beta virt. eigenvalues --    0.13815   0.14490   0.15176   0.16191   0.16434

 Mulliken charges and spin densities:
               1          2
     1  C   -0.731849   0.001791
     2  C   -0.225847  -0.519664
     3  N   -0.030497   0.151803
     4  N    0.154690  -0.061868
     5  C   -0.212953  -0.523879
     6  C    1.578325   0.395978
     7  C   -1.048405  -0.266261
     8  N   -0.096129   0.026389
     9  C    0.249989  -0.133294
    10  N   -0.233520   0.045958
    11  N   -0.217659   0.013914
    12  N   -0.670217   0.407849
    13  N    0.584723  -0.214260
    14  N   -0.358806   0.322054
    15  H    0.140332   0.000031
    16  H    0.126646  -0.000161
    17  H    0.151613   0.010707
    18  H    0.197873  -0.002222
    19  H   -0.514269   0.713650
    20  H   -0.284307   0.614553
    21  H    0.222931   0.000856
    22  H    0.217335   0.016077
 Sum of Mulliken charges =  -1.00000   1.00000

 Dipole moment (field-independent basis, Debye):
    X=              5.4898    Y=              4.6363    Z=              0.0952  Tot=              7.1862
 Quadrupole moment (field-independent basis, Debye-Ang):
   XX=           -157.2041   YY=           -106.3461   ZZ=            -88.7527
   XY=              6.9931   XZ=              1.3614   YZ=             -0.8951

 Summary of Natural Population Analysis:

                                       Natural Population
                Natural  -----------------------------------------------
    Atom  No    Charge         Core      Valence    Rydberg      Total
 -----------------------------------------------------------------------
      C    1   -0.29604      0.99964     2.29198    0.00442     3.29604
      C    2    0.06693      0.99957     1.91947    0.01402     2.93307
      N    3   -0.16509      0.99969     2.65526    0.01013     3.66509
      N    4   -0.00724      0.99958     2.49452    0.01314     3.50724
      C    5    0.17005      0.99940     1.81645    0.01411     2.82995
      C    6   -0.11007      0.99941     2.09962    0.01104     3.11007
      C    7    0.06628      0.99958     1.91788    0.01626     2.93372
      N    8   -0.26552      0.99969     2.75451    0.01132     3.76552
      C    9    0.14928      0.99962     1.83278    0.01832     2.85072
      N   10   -0.30641      0.99966     2.79623    0.01053     3.80641
      N   11   -0.41421      0.99977     2.90582    0.00862     3.91421
      N   12   -0.14997      0.99970     2.63433    0.01594     3.64997
      N   13    0.15287      0.99972     2.33245    0.01496     3.34713
      N   14    0.08043      0.99981     2.40684    0.01291     3.41957
      H   15    0.09823      0.00000     0.40078    0.00099     0.40177
      H   16    0.09567      0.00000     0.40312    0.00121     0.40433
      H   17    0.10933      0.00000     0.38982    0.00085     0.39067
      H   18    0.08597      0.00000     0.41179    0.00224     0.41403
      H   19    0.08624      0.00000     0.41218    0.00158     0.41376
      H   20    0.21235      0.00000     0.27995    0.00771     0.28765
      H   21    0.16997      0.00000     0.32869    0.00134     0.33003
      H   22    0.17095      0.00000     0.32687    0.00218     0.32905
 =======================================================================
   * Total *   -0.00000     13.99484    35.81134    0.19383    50.00000

 Normal termination of Gaussian 16 at Thu Dec 10 10:32:03 2020.
