 Gaussian 16, Revision A.03,

 -----------------------------------------------------------
 # opt freq B3LYP/6-31G(d) empiricaldispersion=gd3bj scf=xqc
 -----------------------------------------------------------

 ------------------------------
 CID_43388507_JID_6256_neutraal
 ------------------------------
 Symbolic Z-matrix:
 Charge =  0 Multiplicity = 1

 SCF Done:  E(RB3LYP) =  -1051.08390635     A.U. after   15 cycles
 SCF Done:  E(RB3LYP) =  -1051.08868969     A.U. after   12 cycles
 SCF Done:  E(RB3LYP) =  -1051.08729082     A.U. after   13 cycles
 SCF Done:  E(RB3LYP) =  -1051.08929865     A.U. after   12 cycles
 SCF Done:  E(RB3LYP) =  -1051.08972857     A.U. after   11 cycles
 SCF Done:  E(RB3LYP) =  -1051.08980324     A.U. after   11 cycles
 SCF Done:  E(RB3LYP) =  -1051.08976350     A.U. after   12 cycles
 SCF Done:  E(RB3LYP) =  -1051.08986358     A.U. after   11 cycles
 SCF Done:  E(RB3LYP) =  -1051.08987924     A.U. after   10 cycles
 SCF Done:  E(RB3LYP) =  -1051.08988615     A.U. after   10 cycles
 SCF Done:  E(RB3LYP) =  -1051.08988836     A.U. after    8 cycles
 SCF Done:  E(RB3LYP) =  -1051.08988840     A.U. after    8 cycles
 SCF Done:  E(RB3LYP) =  -1051.08988842     A.U. after    7 cycles
 SCF Done:  E(RB3LYP) =  -1051.08988844     A.U. after    7 cycles
 SCF Done:  E(RB3LYP) =  -1051.08988844     A.U. after    6 cycles
 Optimization completed.
    -- Stationary point found.
 Normal termination of Gaussian 16 at Thu Dec 10 21:56:07 2020.

 --------------------------------------------------------------------
 #N Geom=AllCheck Guess=TCheck SCRF=Check GenChk RB3LYP/6-31G(d) Freq
 --------------------------------------------------------------------

 Structure from the checkpoint file:  "JID_6256.chk"
 ------------------------------
 CID_43388507_JID_6256_neutraal
 ------------------------------
 Charge =  0 Multiplicity = 1

 SCF Done:  E(RB3LYP) =  -1051.08988844     A.U. after    1 cycles

  Exact polarizability: 184.887  -6.597 165.002 -10.444 -10.060 107.870
 Approx polarizability: 240.549  -9.885 265.458 -18.793 -28.689 176.183

                      1                      2                      3
                      A                      A                      A
 Frequencies --     23.5316                31.5490                41.3220
 Red. masses --      3.4305                 3.9094                 3.7006
 Frc consts  --      0.0011                 0.0023                 0.0037
 IR Inten    --      0.1205                 0.5852                 0.2782

                      4                      5                      6
                      A                      A                      A
 Frequencies --     55.4688               103.3102               105.9174
 Red. masses --      4.1846                 3.5223                 3.7662
 Frc consts  --      0.0076                 0.0221                 0.0249
 IR Inten    --      2.1037                 0.8397                 0.6497

                      7                      8                      9
                      A                      A                      A
 Frequencies --    153.1821               176.0438               198.4845
 Red. masses --      1.9530                 3.9619                 2.7932
 Frc consts  --      0.0270                 0.0723                 0.0648
 IR Inten    --      0.1087                 0.4581                 2.3693

                     10                     11                     12
                      A                      A                      A
 Frequencies --    225.9218               254.6178               260.0652
 Red. masses --      3.8326                 1.8335                 2.0015
 Frc consts  --      0.1153                 0.0700                 0.0798
 IR Inten    --      2.8540                 1.1533                 4.5786

                     13                     14                     15
                      A                      A                      A
 Frequencies --    293.5081               305.0214               324.0209
 Red. masses --      2.6236                 8.3515                 2.2666
 Frc consts  --      0.1332                 0.4578                 0.1402
 IR Inten    --      0.9792                 1.3682                 1.3908

                     16                     17                     18
                      A                      A                      A
 Frequencies --    345.8761               385.1142               454.2341
 Red. masses --      2.2787                 3.0064                 3.2934
 Frc consts  --      0.1606                 0.2627                 0.4004
 IR Inten    --      0.9466                 4.2004                 5.4427

                     19                     20                     21
                      A                      A                      A
 Frequencies --    469.8143               492.6570               519.7518
 Red. masses --      2.9792                 4.2373                 3.4349
 Frc consts  --      0.3874                 0.6059                 0.5467
 IR Inten    --      2.8643                 1.9838                 7.6868

                     22                     23                     24
                      A                      A                      A
 Frequencies --    568.7241               600.6047               617.9198
 Red. masses --      5.9132                 3.0427                 3.5803
 Frc consts  --      1.1269                 0.6467                 0.8054
 IR Inten    --      4.8265                 5.1048                11.8046

                     25                     26                     27
                      A                      A                      A
 Frequencies --    659.3310               710.3377               713.6347
 Red. masses --      3.9115                 3.8680                 1.3752
 Frc consts  --      1.0019                 1.1499                 0.4126
 IR Inten    --      0.6029                41.9449                25.9076

                     28                     29                     30
                      A                      A                      A
 Frequencies --    734.5984               748.2110               765.9811
 Red. masses --      4.0069                 1.5095                 2.3695
 Frc consts  --      1.2740                 0.4979                 0.8191
 IR Inten    --      3.4939                32.5236                 4.2778

                     31                     32                     33
                      A                      A                      A
 Frequencies --    785.5286               839.2602               883.9045
 Red. masses --      1.2757                 4.3360                 1.2594
 Frc consts  --      0.4638                 1.7994                 0.5797
 IR Inten    --     11.8866                13.2522                 1.1595

                     34                     35                     36
                      A                      A                      A
 Frequencies --    894.8457               918.2022               925.4053
 Red. masses --      2.5495                 2.4353                 1.2767
 Frc consts  --      1.2028                 1.2097                 0.6442
 IR Inten    --      2.1556                 5.0803                 4.7594

                     37                     38                     39
                      A                      A                      A
 Frequencies --    972.8128               989.7960              1003.2437
 Red. masses --      2.4305                 2.4230                 2.0077
 Frc consts  --      1.3552                 1.3986                 1.1906
 IR Inten    --      4.6635                 0.4886                 3.9518

                     40                     41                     42
                      A                      A                      A
 Frequencies --   1017.5373              1028.3420              1054.6418
 Red. masses --      1.6387                 2.1940                 2.3336
 Frc consts  --      0.9997                 1.3670                 1.5293
 IR Inten    --      9.9167                52.2444                 0.3230

                     43                     44                     45
                      A                      A                      A
 Frequencies --   1075.1116              1091.6782              1113.3882
 Red. masses --      2.7180                 2.1040                 1.2700
 Frc consts  --      1.8510                 1.4774                 0.9276
 IR Inten    --      5.8904                13.9703                 3.1095

                     46                     47                     48
                      A                      A                      A
 Frequencies --   1154.5480              1165.7560              1176.1377
 Red. masses --      2.6559                 1.6812                 2.6268
 Frc consts  --      2.0858                 1.3461                 2.1409
 IR Inten    --     20.8420                32.0803                27.4539

                     49                     50                     51
                      A                      A                      A
 Frequencies --   1188.2229              1213.1517              1222.9889
 Red. masses --      2.2450                 1.8239                 1.4048
 Frc consts  --      1.8675                 1.5816                 1.2379
 IR Inten    --      2.3784                 4.5546                47.7376

                     52                     53                     54
                      A                      A                      A
 Frequencies --   1238.8834              1248.6095              1274.9430
 Red. masses --      1.3606                 1.5144                 1.5009
 Frc consts  --      1.2304                 1.3910                 1.4375
 IR Inten    --     13.9220                 1.8262                70.9812

                     55                     56                     57
                      A                      A                      A
 Frequencies --   1294.4207              1297.8159              1317.9354
 Red. masses --      1.4195                 1.5103                 1.2011
 Frc consts  --      1.4013                 1.4988                 1.2291
 IR Inten    --     13.0268                21.2795                 2.4774

                     58                     59                     60
                      A                      A                      A
 Frequencies --   1359.5185              1370.6057              1387.0309
 Red. masses --      1.4355                 1.3795                 1.5293
 Frc consts  --      1.5633                 1.5268                 1.7335
 IR Inten    --     10.7573                 7.0060                18.7972

                     61                     62                     63
                      A                      A                      A
 Frequencies --   1394.6881              1412.0052              1424.6698
 Red. masses --      1.3846                 1.4635                 1.4459
 Frc consts  --      1.5868                 1.7191                 1.7290
 IR Inten    --      2.0558                 7.4508                 0.4436

                     64                     65                     66
                      A                      A                      A
 Frequencies --   1443.0624              1445.9031              1466.0627
 Red. masses --      1.7750                 1.8058                 3.0626
 Frc consts  --      2.1778                 2.2243                 3.8783
 IR Inten    --      0.5916                16.4832               189.2401

                     67                     68                     69
                      A                      A                      A
 Frequencies --   1504.8124              1508.8437              1511.5845
 Red. masses --      1.6038                 1.1091                 1.6675
 Frc consts  --      2.1397                 1.4877                 2.2448
 IR Inten    --      7.6273                 5.1303                 9.6792

                     70                     71                     72
                      A                      A                      A
 Frequencies --   1515.4741              1522.4690              1529.4032
 Red. masses --      1.3290                 1.1213                 1.0819
 Frc consts  --      1.7984                 1.5313                 1.4911
 IR Inten    --     19.4966                 8.4129                28.4988

                     73                     74                     75
                      A                      A                      A
 Frequencies --   1531.8050              1539.9764              1546.0265
 Red. masses --      1.0987                 1.0777                 1.0725
 Frc consts  --      1.5189                 1.5059                 1.5104
 IR Inten    --      3.4029                14.0812                 3.6346

                     76                     77                     78
                      A                      A                      A
 Frequencies --   1555.9076              1630.2073              1771.0188
 Red. masses --      1.0731                 6.2250                10.8639
 Frc consts  --      1.5306                 9.7471                20.0762
 IR Inten    --      7.3425                 0.5514               305.6740

                     79                     80                     81
                      A                      A                      A
 Frequencies --   2895.2546              2916.0346              2994.5351
 Red. masses --      1.0743                 1.0735                 1.0746
 Frc consts  --      5.3057                 5.3780                 5.6773
 IR Inten    --     67.0451                82.1018                42.2244

                     82                     83                     84
                      A                      A                      A
 Frequencies --   3022.6239              3033.4390              3040.0342
 Red. masses --      1.0739                 1.0644                 1.0392
 Frc consts  --      5.7805                 5.7705                 5.6584
 IR Inten    --     24.5001                62.7978                17.7558

                     85                     86                     87
                      A                      A                      A
 Frequencies --   3047.9031              3063.3147              3077.5078
 Red. masses --      1.0649                 1.0820                 1.0973
 Frc consts  --      5.8284                 5.9821                 6.1229
 IR Inten    --     14.9215                61.1601                27.8762

                     88                     89                     90
                      A                      A                      A
 Frequencies --   3084.0638              3108.1382              3116.2004
 Red. masses --      1.1009                 1.1033                 1.0886
 Frc consts  --      6.1695                 6.2798                 6.2283
 IR Inten    --      1.5109                64.3294                23.4464

                     91                     92                     93
                      A                      A                      A
 Frequencies --   3116.5513              3127.5877              3167.2457
 Red. masses --      1.0986                 1.0870                 1.0902
 Frc consts  --      6.2867                 6.2648                 6.4433
 IR Inten    --     43.5010                 3.4268                20.1841

                     94                     95                     96
                      A                      A                      A
 Frequencies --   3217.0607              3273.5294              3542.4224
 Red. masses --      1.0912                 1.0967                 1.0730
 Frc consts  --      6.6536                 6.9242                 7.9330
 IR Inten    --      6.1008                 0.7635                 0.4998

 - Thermochemistry -
 -------------------
 Temperature   298.150 Kelvin.  Pressure   1.00000 Atm.
 Atom     1 has atomic number  6 and mass  12.00000

 Molecular mass:   238.11399 amu.
 Principal axes and moments of inertia in atomic units:
                           1         2         3
     Eigenvalues --  2520.477486468.473268378.65155
           X            0.99926   0.03836  -0.00261
           Y           -0.03833   0.99922   0.00946
           Z            0.00297  -0.00936   0.99995
 This molecule is an asymmetric top.
 Rotational symmetry number  1.
 Warning -- assumption of classical behavior for rotation
           may cause significant error
 Rotational temperatures (Kelvin)      0.03436     0.01339     0.01034
 Rotational constants (GHZ):           0.71603     0.27901     0.21540
 Zero-point vibrational energy     765253.5 (Joules/Mol)
                                  182.89997 (Kcal/Mol)
 Warning -- explicit consideration of  24 degrees of freedom as
           vibrations may cause significant error
 Vibrational temperatures:     33.86    45.39    59.45    79.81   148.64
          (Kelvin)            152.39   220.39   253.29   285.57   325.05
                              366.34   374.18   422.29   438.86   466.19
                              497.64   554.09   653.54   675.96   708.82
                              747.81   818.27   864.14   889.05   948.63
                             1022.02  1026.76  1056.92  1076.51  1102.08
                             1130.20  1207.51  1271.74  1287.48  1321.09
                             1331.45  1399.66  1424.10  1443.44  1464.01
                             1479.55  1517.39  1546.85  1570.68  1601.92
                             1661.14  1677.26  1692.20  1709.59  1745.45
                             1759.61  1782.48  1796.47  1834.36  1862.38
                             1867.27  1896.22  1956.04  1972.00  1995.63
                             2006.65  2031.56  2049.78  2076.24  2080.33
                             2109.34  2165.09  2170.89  2174.83  2180.43
                             2190.49  2200.47  2203.93  2215.68  2224.39
                             2238.60  2345.50  2548.10  4165.63  4195.52
                             4308.47  4348.88  4364.44  4373.93  4385.25
                             4407.43  4427.85  4437.28  4471.92  4483.52
                             4484.02  4499.90  4556.96  4628.63  4709.88
                             5096.76

 Zero-point correction=                           0.291470 (Hartree/Particle)
 Thermal correction to Energy=                    0.307403
 Thermal correction to Enthalpy=                  0.308347
 Thermal correction to Gibbs Free Energy=         0.246011
 Sum of electronic and zero-point Energies=          -1050.798419
 Sum of electronic and thermal Energies=             -1050.782486
 Sum of electronic and thermal Enthalpies=           -1050.781542
 Sum of electronic and thermal Free Energies=        -1050.843878

                     E (Thermal)             CV                S
                      KCal/Mol        Cal/Mol-Kelvin    Cal/Mol-Kelvin
 Total                  192.898             59.968            131.197
 Electronic               0.000              0.000              0.000
 Translational            0.889              2.981             42.304
 Rotational               0.889              2.981             33.279
 Vibrational            191.121             54.007             55.614
 Vibration     1          0.593              1.985              6.311
 Vibration     2          0.594              1.983              5.730
 Vibration     3          0.594              1.981              5.195
 Vibration     4          0.596              1.975              4.612
 Vibration     5          0.605              1.947              3.391
 Vibration     6          0.605              1.945              3.342
 Vibration     7          0.619              1.899              2.632
 Vibration     8          0.628              1.872              2.370
 Vibration     9          0.637              1.842              2.147
 Vibration    10          0.650              1.802              1.911
 Vibration    11          0.665              1.755              1.698
 Vibration    12          0.668              1.746              1.661
 Vibration    13          0.688              1.686              1.454
 Vibration    14          0.696              1.664              1.389
 Vibration    15          0.709              1.627              1.290
 Vibration    16          0.724              1.584              1.185
 Vibration    17          0.754              1.502              1.019
 Vibration    18          0.813              1.352              0.783
 Vibration    19          0.827              1.317              0.738
 Vibration    20          0.848              1.266              0.677
 Vibration    21          0.875              1.206              0.611
 Vibration    22          0.925              1.099              0.507
 Vibration    23          0.959              1.031              0.449
 Vibration    24          0.978              0.994              0.420

 Optimization completed.
    -- Stationary point found.
 Normal termination of Gaussian 16 at Thu Dec 10 22:08:07 2020.

 ----------------------------------------------------------------------
 # B3LYP/6-311++G(d,p) empiricaldispersion=gd3bj scf=xqc pop=npa geom=c
 heck
 ----------------------------------------------------------------------

 --------------------------------------
 CID_43388507_JID_6256_Energie_neutraal
 --------------------------------------
 Structure from the checkpoint file:  "JID_6256.chk"
 Charge =  0 Multiplicity = 1

 SCF Done:  E(RB3LYP) =  -1051.29955412     A.U. after   15 cycles
 Normal termination of Gaussian 16 at Thu Dec 10 22:13:33 2020.

 ----------------------------------------------------------------------
 # B3LYP/6-311++G(d,p) empiricaldispersion=gd3bj scf=xqc pop=npa geom=c
 heck
 ----------------------------------------------------------------------

 ------------------------------------
 CID_43388507_JID_6256_Energie_kation
 ------------------------------------
 Structure from the checkpoint file:  "JID_6256.chk"
 Charge =  1 Multiplicity = 2

 SCF Done:  E(UB3LYP) =  -1051.00467080     A.U. after   30 cycles
 Normal termination of Gaussian 16 at Thu Dec 10 22:30:12 2020.
 Gaussian 16:  ES64L-G16RevA.03 25-Dec-2016

 ----------------------------------------------------------------------
 # B3LYP/6-311++G(d,p) empiricaldispersion=gd3bj scf=xqc pop=npa geom=c
 heck
 ----------------------------------------------------------------------

 -----------------------------------
 CID_43388507_JID_6256_Energie_anion
 -----------------------------------
 Structure from the checkpoint file:  "JID_6256.chk"
 Charge = -1 Multiplicity = 2

                         Standard orientation:
 ---------------------------------------------------------------------
 Center     Atomic      Atomic             Coordinates (Angstroms)
 Number     Number       Type             X           Y           Z
 ---------------------------------------------------------------------
      1          6           0       -3.004664   -2.743679   -0.461560
      2          6           0       -4.151582   -1.735766   -0.595197
      3          6           0       -3.900980   -0.419477    0.142012
      4          7           0       -2.748683    0.291129   -0.398121
      5          6           0       -2.473576    1.549254    0.290928
      6          6           0       -1.079528    2.070981   -0.052249
      7          8           0       -0.922171    3.091059   -0.711311
      8          7           0       -0.008582    1.315392    0.374038
      9          6           0       -0.056546    0.260307    1.382740
     10          6           0        0.609895   -1.024060    0.866019
     11          6           0        1.937720   -0.657977    0.276051
     12          6           0        2.281258    0.608563   -0.115497
     13          6           0        1.329767    1.769592   -0.004867
     14          6           0        3.617789    0.686992   -0.625967
     15          6           0        4.258798   -0.518090   -0.618689
     16         16           0        3.245215   -1.781853    0.016557
     17          1           0       -2.095972   -2.396055   -0.967443
     18          1           0       -3.270502   -3.705613   -0.912391
     19          1           0       -2.758007   -2.926611    0.592365
     20          1           0       -4.331262   -1.517491   -1.654567
     21          1           0       -5.072563   -2.180248   -0.197239
     22          1           0       -4.776188    0.233581    0.032582
     23          1           0       -3.798328   -0.621227    1.229577
     24          1           0       -1.929044   -0.307166   -0.369684
     25          1           0       -3.176835    2.312994   -0.050173
     26          1           0       -2.586419    1.472468    1.391130
     27          1           0        0.475670    0.601199    2.282562
     28          1           0       -1.089064    0.065316    1.668641
     29          1           0        0.717556   -1.735557    1.693731
     30          1           0       -0.033711   -1.505383    0.116116
     31          1           0        1.232297    2.301470   -0.953741
     32          1           0        1.702465    2.505196    0.726625
     33          1           0        4.072244    1.604255   -0.985434
     34          1           0        5.262331   -0.745437   -0.950840
 ---------------------------------------------------------------------

 SCF Done:  E(UB3LYP) =  -1051.28814178     A.U. after   33 cycles
 SCF Done:  E(UB3LYP) =  -1051.28814198     a.u. after    3 cycles

 The electronic state is 2-A.
 Alpha  occ. eigenvalues --  -88.78764 -18.99924 -14.25641 -14.21248 -10.18284
 Alpha  occ. eigenvalues --  -10.12426 -10.12232 -10.11416 -10.11309 -10.11154
 Alpha  occ. eigenvalues --  -10.10080 -10.09790 -10.09458 -10.09239 -10.07609
 Alpha  occ. eigenvalues --  -10.06686  -7.87376  -5.83665  -5.83301  -5.82971
 Alpha  occ. eigenvalues --   -0.95229  -0.85815  -0.82256  -0.79525  -0.70322
 Alpha  occ. eigenvalues --   -0.69312  -0.67787  -0.63798  -0.62329  -0.58088
 Alpha  occ. eigenvalues --   -0.56288  -0.55968  -0.49755  -0.49253  -0.46435
 Alpha  occ. eigenvalues --   -0.43162  -0.42274  -0.40355  -0.40005  -0.38832
 Alpha  occ. eigenvalues --   -0.37819  -0.37709  -0.34648  -0.34107  -0.33824
 Alpha  occ. eigenvalues --   -0.33115  -0.32286  -0.31851  -0.31097  -0.30406
 Alpha  occ. eigenvalues --   -0.29408  -0.28193  -0.27884  -0.27202  -0.26905
 Alpha  occ. eigenvalues --   -0.25501  -0.25337  -0.24904  -0.24761  -0.17171
 Alpha  occ. eigenvalues --   -0.16741  -0.15536  -0.14510  -0.14162   0.04148
 Alpha virt. eigenvalues --    0.05602   0.06304   0.06609   0.07224   0.07603
 Alpha virt. eigenvalues --    0.08356   0.08855   0.09296   0.10024   0.10351
 Alpha virt. eigenvalues --    0.10545   0.10933   0.11086   0.11259   0.11523

  Beta  occ. eigenvalues --  -88.78758 -18.99920 -14.25642 -14.21235 -10.18282
  Beta  occ. eigenvalues --  -10.12387 -10.12222 -10.11400 -10.11292 -10.11141
  Beta  occ. eigenvalues --  -10.10057 -10.09761 -10.09452 -10.09232 -10.07595
  Beta  occ. eigenvalues --  -10.06645  -7.87370  -5.83660  -5.83295  -5.82960
  Beta  occ. eigenvalues --   -0.95221  -0.85803  -0.82235  -0.79497  -0.70277
  Beta  occ. eigenvalues --   -0.69281  -0.67757  -0.63761  -0.62289  -0.58040
  Beta  occ. eigenvalues --   -0.56238  -0.55902  -0.49705  -0.49187  -0.46408
  Beta  occ. eigenvalues --   -0.43116  -0.42234  -0.40321  -0.39975  -0.38791
  Beta  occ. eigenvalues --   -0.37787  -0.37670  -0.34624  -0.34053  -0.33792
  Beta  occ. eigenvalues --   -0.33080  -0.32247  -0.31808  -0.31061  -0.30370
  Beta  occ. eigenvalues --   -0.29376  -0.28164  -0.27840  -0.27164  -0.26868
  Beta  occ. eigenvalues --   -0.25462  -0.25287  -0.24869  -0.24721  -0.17154
  Beta  occ. eigenvalues --   -0.16707  -0.15513  -0.14444  -0.14115
  Beta virt. eigenvalues --    0.06054   0.06421   0.06630   0.07238   0.07662
  Beta virt. eigenvalues --    0.08097   0.08807   0.09096   0.09606   0.10297
  Beta virt. eigenvalues --    0.10509   0.10704   0.11172   0.11257   0.11517

 Mulliken charges and spin densities:
               1          2
     1  C    0.671214  -1.139400
     2  C   -1.043457   0.677944
     3  C    0.869529  -1.067614
     4  N   -0.183725   0.158866
     5  C    0.560405  -0.862006
     6  C   -0.619158   0.556897
     7  O   -0.332849  -0.000146
     8  N    0.198219   0.013761
     9  C   -0.676264   0.277888
    10  C    0.969218  -1.314012
    11  C   -0.080123   1.328442
    12  C   -0.641450   1.155389
    13  C    1.113171  -2.594580
    14  C    0.300297  -0.781706
    15  C   -0.103360   0.182893
    16  S    0.122453  -0.686678
    17  H   -0.045593   0.182427
    18  H   -0.466750   0.621746
    19  H   -0.124960   0.275278
    20  H    0.111866   0.033653
    21  H   -0.203420   0.343168
    22  H    0.085026   0.055965
    23  H   -0.301142   0.433598
    24  H    0.513700  -0.353288
    25  H    0.162563   0.033897
    26  H   -0.161898   0.304179
    27  H   -0.608152   0.801924
    28  H   -0.169509   0.381398
    29  H   -0.480290   0.670679
    30  H   -0.111242   0.164179
    31  H    0.160726   0.062131
    32  H    0.016659   0.188813
    33  H   -0.181934   0.323547
    34  H   -0.319768   0.570768
 Sum of Mulliken charges =  -1.00000   1.00000

 Dipole moment (field-independent basis, Debye):
    X=              2.5547    Y=              1.9699    Z=             -2.5194  Tot=              4.0932
 Quadrupole moment (field-independent basis, Debye-Ang):
   XX=           -175.6771   YY=           -162.5403   ZZ=           -148.0238
   XY=            -10.8159   XZ=              2.6852   YZ=              6.4859

 Summary of Natural Population Analysis:

                                       Natural Population
                Natural  -----------------------------------------------
    Atom  No    Charge         Core      Valence    Rydberg      Total
 -----------------------------------------------------------------------
      C    1   -0.28962      0.99967     2.28442    0.00553     3.28962
      C    2   -0.19376      0.99964     2.18505    0.00907     3.19376
      C    3   -0.08333      0.99963     2.07283    0.01087     3.08333
      N    4   -0.33854      0.99973     2.82937    0.00944     3.83854
      C    5   -0.12519      0.99960     2.11462    0.01097     3.12519
      C    6    0.34794      0.99964     1.62935    0.02307     2.65206
      O    7   -0.32076      0.99988     3.31583    0.00505     4.32076
      N    8   -0.25614      0.99964     2.74640    0.01010     3.75614
      C    9   -0.08300      0.99961     2.07140    0.01199     3.08300
      C   10   -0.20663      0.99957     2.19627    0.01079     3.20663
      C   11   -0.09317      0.99940     2.08063    0.01314     3.09317
      C   12   -0.05273      0.99940     2.04240    0.01093     3.05273
      C   13   -0.08811      0.99957     2.07773    0.01082     3.08811
      C   14   -0.11986      0.99949     2.11097    0.00940     3.11986
      C   15   -0.18973      0.99954     2.17918    0.01101     3.18973
      S   16    0.20897      4.99941     2.77144    0.02018     7.79103
      H   17    0.09290      0.00000     0.40573    0.00137     0.40710
      H   18    0.10167      0.00000     0.39723    0.00110     0.39833
      H   19    0.10074      0.00000     0.39736    0.00190     0.39926
      H   20    0.09582      0.00000     0.40303    0.00115     0.40418
      H   21    0.09743      0.00000     0.40159    0.00098     0.40257
      H   22    0.09071      0.00000     0.40809    0.00120     0.40929
      H   23    0.07965      0.00000     0.41847    0.00188     0.42035
      H   24    0.17386      0.00000     0.32043    0.00572     0.32614
      H   25    0.10436      0.00000     0.39454    0.00111     0.39564
      H   26    0.08805      0.00000     0.41034    0.00161     0.41195
      H   27    0.09832      0.00000     0.39935    0.00234     0.40168
      H   28    0.10919      0.00000     0.38794    0.00286     0.39081
      H   29    0.11247      0.00000     0.38573    0.00180     0.38753
      H   30    0.10413      0.00000     0.39363    0.00224     0.39587
      H   31    0.11897      0.00000     0.37980    0.00123     0.38103
      H   32    0.09926      0.00000     0.39963    0.00111     0.40074
      H   33    0.10688      0.00000     0.39213    0.00099     0.39312
      H   34    0.10926      0.00000     0.38974    0.00100     0.39074
 =======================================================================
   * Total *    0.00000     19.99340    43.79265    0.21395    64.00000

 Normal termination of Gaussian 16 at Thu Dec 10 23:41:58 2020.
