 Gaussian 16, Revision A.03,

 -----------------------------------------------------------
 # opt freq B3LYP/6-31G(d) empiricaldispersion=gd3bj scf=xqc
 -----------------------------------------------------------

 -------------------------------
 CID_106156564_JID_5952_neutraal
 -------------------------------
 Symbolic Z-matrix:
 Charge =  0 Multiplicity = 1

 SCF Done:  E(RB3LYP) =  -714.665142463     A.U. after   13 cycles
 SCF Done:  E(RB3LYP) =  -714.667758013     A.U. after   11 cycles
 SCF Done:  E(RB3LYP) =  -714.661274940     A.U. after   11 cycles
 SCF Done:  E(RB3LYP) =  -714.667621175     A.U. after   11 cycles
 SCF Done:  E(RB3LYP) =  -714.669303059     A.U. after    9 cycles
 SCF Done:  E(RB3LYP) =  -714.669223457     A.U. after   11 cycles
 SCF Done:  E(RB3LYP) =  -714.669948089     A.U. after   10 cycles
 SCF Done:  E(RB3LYP) =  -714.670243671     A.U. after   10 cycles
 SCF Done:  E(RB3LYP) =  -714.670233277     A.U. after   10 cycles
 SCF Done:  E(RB3LYP) =  -714.670392727     A.U. after   10 cycles
 SCF Done:  E(RB3LYP) =  -714.670416039     A.U. after    8 cycles
 SCF Done:  E(RB3LYP) =  -714.670416617     A.U. after    7 cycles
 SCF Done:  E(RB3LYP) =  -714.670417188     A.U. after    8 cycles
 SCF Done:  E(RB3LYP) =  -714.670417428     A.U. after    7 cycles
 SCF Done:  E(RB3LYP) =  -714.670417538     A.U. after    6 cycles
 SCF Done:  E(RB3LYP) =  -714.670417579     A.U. after    6 cycles
 Optimization completed.
    -- Stationary point found.
 Normal termination of Gaussian 16 at Thu Dec 10 17:47:34 2020.

 --------------------------------------------------------------------
 #N Geom=AllCheck Guess=TCheck SCRF=Check GenChk RB3LYP/6-31G(d) Freq
 --------------------------------------------------------------------

 Structure from the checkpoint file:  "JID_5952.chk"
 -------------------------------
 CID_106156564_JID_5952_neutraal
 -------------------------------
 Charge =  0 Multiplicity = 1

 SCF Done:  E(RB3LYP) =  -714.670417579     A.U. after    1 cycles

  Exact polarizability: 146.511  -0.881 134.999   0.771  -0.059 121.194
 Approx polarizability: 183.892  -0.308 182.699   0.037  -0.513 180.981

                      1                      2                      3
                      A                      A                      A
 Frequencies --     26.6779                40.3107                47.1751
 Red. masses --      4.2299                 3.2124                 2.5556
 Frc consts  --      0.0018                 0.0031                 0.0034
 IR Inten    --      0.1554                 0.9487                 0.9533

                      4                      5                      6
                      A                      A                      A
 Frequencies --     54.0416                80.0158                90.5641
 Red. masses --      3.3530                 2.9005                 3.2067
 Frc consts  --      0.0058                 0.0109                 0.0155
 IR Inten    --      1.7896                 2.8427                 1.3585

                      7                      8                      9
                      A                      A                      A
 Frequencies --    120.4560               137.1090               168.0029
 Red. masses --      3.5578                 3.2882                 3.2543
 Frc consts  --      0.0304                 0.0364                 0.0541
 IR Inten    --      1.0290                 1.7376                 2.7494

                     10                     11                     12
                      A                      A                      A
 Frequencies --    173.0403               208.1376               216.3546
 Red. masses --      2.1706                 2.5412                 1.2180
 Frc consts  --      0.0383                 0.0649                 0.0336
 IR Inten    --      6.9524                 3.6552                 0.0652

                     13                     14                     15
                      A                      A                      A
 Frequencies --    245.5285               252.9811               261.2030
 Red. masses --      1.8983                 1.5219                 1.7853
 Frc consts  --      0.0674                 0.0574                 0.0718
 IR Inten    --      2.0286                 8.6742                 4.5678

                     16                     17                     18
                      A                      A                      A
 Frequencies --    282.0012               296.5303               313.5638
 Red. masses --      1.8029                 1.8129                 2.0742
 Frc consts  --      0.0845                 0.0939                 0.1202
 IR Inten    --     29.4259                 0.7354                24.3669

                     19                     20                     21
                      A                      A                      A
 Frequencies --    321.9256               346.5785               353.5539
 Red. masses --      1.4025                 2.9842                 2.5508
 Frc consts  --      0.0856                 0.2112                 0.1879
 IR Inten    --     69.7753                 2.1816                 0.5627

                     22                     23                     24
                      A                      A                      A
 Frequencies --    357.2906               401.3876               436.6846
 Red. masses --      3.1286                 2.1365                 2.7361
 Frc consts  --      0.2353                 0.2028                 0.3074
 IR Inten    --      4.8366                 0.1323                 3.1370

                     25                     26                     27
                      A                      A                      A
 Frequencies --    448.5675               489.2892               543.6539
 Red. masses --      2.7481                 2.5072                 2.4538
 Frc consts  --      0.3258                 0.3536                 0.4273
 IR Inten    --      2.7929                 1.8523                 2.0747

                     28                     29                     30
                      A                      A                      A
 Frequencies --    560.0144               660.7479               742.2226
 Red. masses --      3.1132                 2.0791                 2.7141
 Frc consts  --      0.5753                 0.5348                 0.8809
 IR Inten    --      2.4957                11.2446                 7.9350

                     31                     32                     33
                      A                      A                      A
 Frequencies --    754.8257               791.4113               823.8048
 Red. masses --      1.3959                 1.2653                 1.9869
 Frc consts  --      0.4686                 0.4669                 0.7945
 IR Inten    --    111.9680                 4.0141                14.2049

                     34                     35                     36
                      A                      A                      A
 Frequencies --    874.1240               887.0837               908.0116
 Red. masses --      2.2159                 1.8390                 1.9986
 Frc consts  --      0.9976                 0.8526                 0.9708
 IR Inten    --     21.4499                 3.9140                27.4608

                     37                     38                     39
                      A                      A                      A
 Frequencies --    929.5802               958.0514               963.2684
 Red. masses --      1.9308                 1.5035                 3.1242
 Frc consts  --      0.9830                 0.8131                 1.7080
 IR Inten    --      9.2583                 9.2864                27.3950

                     40                     41                     42
                      A                      A                      A
 Frequencies --    987.3988               996.2836              1008.2552
 Red. masses --      2.3945                 1.4495                 1.7364
 Frc consts  --      1.3755                 0.8477                 1.0400
 IR Inten    --     18.7716                 3.1333                26.0266

                     43                     44                     45
                      A                      A                      A
 Frequencies --   1026.5272              1033.8192              1067.7408
 Red. masses --      1.7207                 1.5664                 2.0184
 Frc consts  --      1.0683                 0.9864                 1.3558
 IR Inten    --      3.5585                 6.5875                15.6338

                     46                     47                     48
                      A                      A                      A
 Frequencies --   1085.3173              1101.7890              1104.6677
 Red. masses --      1.9696                 4.1371                 3.8290
 Frc consts  --      1.3669                 2.9590                 2.7529
 IR Inten    --      8.2173                44.2493                73.1177

                     49                     50                     51
                      A                      A                      A
 Frequencies --   1112.0637              1129.6826              1152.7307
 Red. masses --      2.8850                 2.2564                 2.1930
 Frc consts  --      2.1021                 1.6966                 1.7169
 IR Inten    --     31.1250                29.7733                45.4623

                     52                     53                     54
                      A                      A                      A
 Frequencies --   1171.6426              1183.8069              1200.9283
 Red. masses --      2.5620                 1.3200                 1.8765
 Frc consts  --      2.0722                 1.0899                 1.5946
 IR Inten    --     54.0219                 5.0503                 5.5532

                     55                     56                     57
                      A                      A                      A
 Frequencies --   1210.8437              1222.0318              1230.6781
 Red. masses --      1.1269                 1.9147                 1.6183
 Frc consts  --      0.9734                 1.6847                 1.4441
 IR Inten    --     18.9854                52.9732                13.3511

                     58                     59                     60
                      A                      A                      A
 Frequencies --   1249.1486              1269.0256              1285.8109
 Red. masses --      1.5256                 1.6094                 1.4130
 Frc consts  --      1.4025                 1.5270                 1.3764
 IR Inten    --     16.8068                 2.7645                 5.7463

                     61                     62                     63
                      A                      A                      A
 Frequencies --   1303.6681              1321.2078              1334.9864
 Red. masses --      1.3684                 1.3544                 1.1935
 Frc consts  --      1.3703                 1.3929                 1.2532
 IR Inten    --     30.1340                10.1405                 1.3723

                     64                     65                     66
                      A                      A                      A
 Frequencies --   1345.0976              1362.7201              1377.5990
 Red. masses --      1.2219                 1.2931                 1.2514
 Frc consts  --      1.3025                 1.4148                 1.3993
 IR Inten    --      1.8482                 5.6901                 9.4458

                     67                     68                     69
                      A                      A                      A
 Frequencies --   1391.5305              1399.3767              1406.8853
 Red. masses --      1.3306                 1.4122                 1.3683
 Frc consts  --      1.5181                 1.6294                 1.5957
 IR Inten    --      2.4464                 2.8764                 9.6719

                     70                     71                     72
                      A                      A                      A
 Frequencies --   1432.2241              1436.1921              1438.6894
 Red. masses --      1.3496                 1.2706                 1.2687
 Frc consts  --      1.6310                 1.5441                 1.5471
 IR Inten    --      1.2022                 6.9579                 3.8682

                     73                     74                     75
                      A                      A                      A
 Frequencies --   1446.3985              1474.9644              1490.6449
 Red. masses --      1.2664                 1.4290                 1.1314
 Frc consts  --      1.5610                 1.8317                 1.4812
 IR Inten    --      7.3896                 3.1773                13.7799

                     76                     77                     78
                      A                      A                      A
 Frequencies --   1501.1011              1504.2130              1509.6640
 Red. masses --      1.1258                 1.1662                 1.0837
 Frc consts  --      1.4947                 1.5547                 1.4551
 IR Inten    --     65.3378                35.5378                 0.9687

                     79                     80                     81
                      A                      A                      A
 Frequencies --   1515.1550              1520.1765              1522.8974
 Red. masses --      1.0971                 1.1100                 1.0813
 Frc consts  --      1.4839                 1.5113                 1.4776
 IR Inten    --     17.7614                 8.1134                 7.5134

                     82                     83                     84
                      A                      A                      A
 Frequencies --   1525.2482              1528.7225              1534.0586
 Red. masses --      1.0907                 1.0698                 1.0629
 Frc consts  --      1.4949                 1.4730                 1.4737
 IR Inten    --      4.5028                 8.5626                15.0436

                     85                     86                     87
                      A                      A                      A
 Frequencies --   1536.4651              1542.5487              1546.0258
 Red. masses --      1.0645                 1.0533                 1.0614
 Frc consts  --      1.4806                 1.4766                 1.4947
 IR Inten    --      8.3855                 5.7854                 2.9744

                     88                     89                     90
                      A                      A                      A
 Frequencies --   1551.7878              1558.6079              2959.4043
 Red. masses --      1.0742                 1.0848                 1.0708
 Frc consts  --      1.5240                 1.5526                 5.5254
 IR Inten    --      0.3662                 6.6621                77.4014

                     91                     92                     93
                      A                      A                      A
 Frequencies --   2961.9676              2997.5618              3006.2228
 Red. masses --      1.0735                 1.0593                 1.0439
 Frc consts  --      5.5492                 5.6078                 5.5582
 IR Inten    --     46.5947                55.2720                43.7923

                     94                     95                     96
                      A                      A                      A
 Frequencies --   3019.9307              3027.3752              3029.9613
 Red. masses --      1.0686                 1.0991                 1.0701
 Frc consts  --      5.7418                 5.9349                 5.7882
 IR Inten    --     51.7533                54.0602                28.9351

                     97                     98                     99
                      A                      A                      A
 Frequencies --   3044.5767              3050.3821              3056.3311
 Red. masses --      1.0383                 1.0769                 1.0441
 Frc consts  --      5.6707                 5.9039                 5.7464
 IR Inten    --     24.0383                17.7911                30.7200

                    100                    101                    102
                      A                      A                      A
 Frequencies --   3058.9326              3062.7033              3080.4689
 Red. masses --      1.0782                 1.0725                 1.0917
 Frc consts  --      5.9440                 5.9273                 6.1036
 IR Inten    --     16.9610                51.0572                44.6305

                    103                    104                    105
                      A                      A                      A
 Frequencies --   3081.0680              3083.3276              3093.9091
 Red. masses --      1.0901                 1.0918                 1.1033
 Frc consts  --      6.0972                 6.1155                 6.2222
 IR Inten    --     29.6486                48.4824                27.3763

                    106                    107                    108
                      A                      A                      A
 Frequencies --   3104.0546              3115.4219              3115.7691
 Red. masses --      1.1018                 1.1014                 1.0972
 Frc consts  --      6.2547                 6.2984                 6.2755
 IR Inten    --     35.7223                39.9943                50.7514

                    109                    110                    111
                      A                      A                      A
 Frequencies --   3126.5345              3126.8251              3135.2305
 Red. masses --      1.1020                 1.0994                 1.1021
 Frc consts  --      6.3470                 6.3328                 6.3827
 IR Inten    --     58.6899                40.0491                29.1569

                    112                    113                    114
                      A                      A                      A
 Frequencies --   3495.4878              3511.2869              3755.6646
 Red. masses --      1.0731                 1.0657                 1.0665
 Frc consts  --      7.7249                 7.7412                 8.8631
 IR Inten    --     17.1720               346.6128                18.3022

 - Thermochemistry -
 -------------------
 Temperature   298.150 Kelvin.  Pressure   1.00000 Atm.
 Atom     1 has atomic number  6 and mass  12.00000

 Molecular mass:   219.18344 amu.
 Principal axes and moments of inertia in atomic units:
                           1         2         3
     Eigenvalues --  2560.738194789.384916019.35025
           X            0.99999   0.00422   0.00089
           Y           -0.00422   0.99997  -0.00571
           Z           -0.00091   0.00571   0.99998
 This molecule is an asymmetric top.
 Rotational symmetry number  1.
 Warning -- assumption of classical behavior for rotation
           may cause significant error
 Rotational temperatures (Kelvin)      0.03382     0.01808     0.01439
 Rotational constants (GHZ):           0.70477     0.37682     0.29982
 Zero-point vibrational energy     962127.9 (Joules/Mol)
                                  229.95408 (Kcal/Mol)
 Warning -- explicit consideration of  28 degrees of freedom as
           vibrations may cause significant error
 Vibrational temperatures:     38.38    58.00    67.87    77.75   115.12
          (Kelvin)            130.30   173.31   197.27   241.72   248.97
                              299.46   311.29   353.26   363.98   375.81
                              405.74   426.64   451.15   463.18   498.65
                              508.69   514.06   577.51   628.29   645.39
                              703.98   782.20   805.74   950.67  1067.89
                             1086.03  1138.66  1185.27  1257.67  1276.32
                             1306.43  1337.46  1378.42  1385.93  1420.65
                             1433.43  1450.65  1476.94  1487.44  1536.24
                             1561.53  1585.23  1589.37  1600.01  1625.36
                             1658.52  1685.73  1703.23  1727.87  1742.13
                             1758.23  1770.67  1797.25  1825.84  1850.00
                             1875.69  1900.92  1920.75  1935.30  1960.65
                             1982.06  2002.10  2013.39  2024.19  2060.65
                             2066.36  2069.95  2081.04  2122.14  2144.71
                             2159.75  2164.23  2172.07  2179.97  2187.19
                             2191.11  2194.49  2199.49  2207.17  2210.63
                             2219.38  2224.39  2232.68  2242.49  4257.92
                             4261.61  4312.82  4325.28  4345.01  4355.72
                             4359.44  4380.47  4388.82  4397.38  4401.12
                             4406.55  4432.11  4432.97  4436.22  4451.45
                             4466.04  4482.40  4482.90  4498.39  4498.80
                             4510.90  5029.23  5051.96  5403.56

 Zero-point correction=                           0.366455 (Hartree/Particle)
 Thermal correction to Energy=                    0.384964
 Thermal correction to Enthalpy=                  0.385908
 Thermal correction to Gibbs Free Energy=         0.319270
 Sum of electronic and zero-point Energies=           -714.303962
 Sum of electronic and thermal Energies=              -714.285453
 Sum of electronic and thermal Enthalpies=            -714.284509
 Sum of electronic and thermal Free Energies=         -714.351148

                     E (Thermal)             CV                S
                      KCal/Mol        Cal/Mol-Kelvin    Cal/Mol-Kelvin
 Total                  241.569             68.021            140.253
 Electronic               0.000              0.000              0.000
 Translational            0.889              2.981             42.057
 Rotational               0.889              2.981             32.668
 Vibrational            239.791             62.059             65.528
 Vibration     1          0.593              1.984              6.062
 Vibration     2          0.594              1.981              5.244
 Vibration     3          0.595              1.979              4.932
 Vibration     4          0.596              1.976              4.664
 Vibration     5          0.600              1.963              3.890
 Vibration     6          0.602              1.956              3.648
 Vibration     7          0.609              1.932              3.093
 Vibration     8          0.614              1.916              2.844
 Vibration     9          0.625              1.882              2.458
 Vibration    10          0.627              1.876              2.402
 Vibration    11          0.641              1.828              2.060
 Vibration    12          0.645              1.816              1.989
 Vibration    13          0.660              1.770              1.762
 Vibration    14          0.664              1.758              1.710
 Vibration    15          0.669              1.744              1.654
 Vibration    16          0.681              1.707              1.522
 Vibration    17          0.690              1.680              1.436
 Vibration    18          0.701              1.648              1.343
 Vibration    19          0.707              1.632              1.300
 Vibration    20          0.725              1.582              1.182
 Vibration    21          0.730              1.568              1.150
 Vibration    22          0.732              1.560              1.134
 Vibration    23          0.767              1.467              0.958
 Vibration    24          0.797              1.390              0.837
 Vibration    25          0.808              1.364              0.800
 Vibration    26          0.845              1.274              0.685
 Vibration    27          0.899              1.154              0.557
 Vibration    28          0.916              1.118              0.524

 Optimization completed.
    -- Stationary point found.
 Normal termination of Gaussian 16 at Thu Dec 10 18:04:03 2020.

 ----------------------------------------------------------------------
 # B3LYP/6-311++G(d,p) empiricaldispersion=gd3bj scf=xqc pop=npa geom=c
 heck
 ----------------------------------------------------------------------

 ---------------------------------------
 CID_106156564_JID_5952_Energie_neutraal
 ---------------------------------------
 Structure from the checkpoint file:  "JID_5952.chk"
 Charge =  0 Multiplicity = 1

 SCF Done:  E(RB3LYP) =  -714.900534143     A.U. after   13 cycles
 Normal termination of Gaussian 16 at Thu Dec 10 18:11:41 2020.

 ----------------------------------------------------------------------
 # B3LYP/6-311++G(d,p) empiricaldispersion=gd3bj scf=xqc pop=npa geom=c
 heck
 ----------------------------------------------------------------------

 -------------------------------------
 CID_106156564_JID_5952_Energie_kation
 -------------------------------------
 Structure from the checkpoint file:  "JID_5952.chk"
 Charge =  1 Multiplicity = 2

 SCF Done:  E(UB3LYP) =  -714.601080453     A.U. after   21 cycles
 Normal termination of Gaussian 16 at Thu Dec 10 18:28:45 2020.
 Gaussian 16:  ES64L-G16RevA.03 25-Dec-2016

 ----------------------------------------------------------------------
 # B3LYP/6-311++G(d,p) empiricaldispersion=gd3bj scf=xqc pop=npa geom=c
 heck
 ----------------------------------------------------------------------

 ------------------------------------
 CID_106156564_JID_5952_Energie_anion
 ------------------------------------
 Structure from the checkpoint file:  "JID_5952.chk"
 Charge = -1 Multiplicity = 2

                         Standard orientation:
 ---------------------------------------------------------------------
 Center     Atomic      Atomic             Coordinates (Angstroms)
 Number     Number       Type             X           Y           Z
 ---------------------------------------------------------------------
      1          6           0       -3.720864   -0.571713   -1.491508
      2          6           0       -2.361847   -0.834637   -0.837025
      3          6           0       -2.107865   -0.104997    0.502874
      4          6           0       -3.109109   -0.558082    1.576677
      5          6           0       -0.693022   -0.454709    1.017781
      6          7           0        0.380077    0.007116    0.125827
      7          6           0        1.736732   -0.093469    0.689745
      8          6           0        2.174385   -1.548384    1.001808
      9          6           0        1.863793   -2.553595   -0.100507
     10          8           0        2.359129   -2.043135   -1.337909
     11          6           0        2.738175    0.653145   -0.216949
     12          8           0        2.891794    2.021468    0.112717
     13          6           0        1.835035    2.864701   -0.303750
     14          6           0       -2.225888    1.426358    0.332474
     15          8           0       -1.442402    1.939920   -0.727800
     16          1           0       -4.556547   -0.852397   -0.841740
     17          1           0       -3.815731   -1.151500   -2.416304
     18          1           0       -3.829107    0.485235   -1.753332
     19          1           0       -2.237811   -1.914533   -0.667167
     20          1           0       -1.589717   -0.533773   -1.553562
     21          1           0       -3.050964   -1.641006    1.739299
     22          1           0       -2.905784   -0.064233    2.534671
     23          1           0       -4.138285   -0.316636    1.294415
     24          1           0       -0.538487    0.046523    1.982033
     25          1           0       -0.644496   -1.539987    1.217097
     26          1           0        0.367616   -0.528395   -0.741009
     27          1           0        1.729341    0.457351    1.638813
     28          1           0        3.249981   -1.556891    1.212559
     29          1           0        1.675309   -1.898932    1.913749
     30          1           0        2.327906   -3.520564    0.144792
     31          1           0        0.776994   -2.721636   -0.162561
     32          1           0        2.186572   -2.700087   -2.028868
     33          1           0        3.733870    0.217506   -0.096941
     34          1           0        2.450026    0.534193   -1.271330
     35          1           0        1.568316    2.686250   -1.357293
     36          1           0        0.928645    2.743157    0.301445
     37          1           0        2.193050    3.893030   -0.198943
     38          1           0       -3.265749    1.698388    0.120669
     39          1           0       -1.961934    1.901873    1.294369
     40          1           0       -0.558860    1.533521   -0.591428
 ---------------------------------------------------------------------

 SCF Done:  E(UB3LYP) =  -714.893250248     A.U. after   25 cycles

 The electronic state is 2-A.
 Alpha  occ. eigenvalues --  -19.03068 -19.01957 -19.00723 -14.21230 -10.11842
 Alpha  occ. eigenvalues --  -10.11528 -10.11380 -10.11144 -10.10677 -10.09902
 Alpha  occ. eigenvalues --  -10.08803 -10.07066 -10.06857 -10.06811 -10.06481
 Alpha  occ. eigenvalues --   -0.94234  -0.91981  -0.91524  -0.82128  -0.72709
 Alpha  occ. eigenvalues --   -0.67847  -0.64447  -0.63661  -0.59406  -0.57563
 Alpha  occ. eigenvalues --   -0.55924  -0.53775  -0.52283  -0.47888  -0.45259
 Alpha  occ. eigenvalues --   -0.42694  -0.41209  -0.39675  -0.39160  -0.38203
 Alpha  occ. eigenvalues --   -0.37840  -0.36665  -0.35537  -0.35114  -0.34331
 Alpha  occ. eigenvalues --   -0.32003  -0.31430  -0.30617  -0.30574  -0.30105
 Alpha  occ. eigenvalues --   -0.29443  -0.28816  -0.28299  -0.27721  -0.27110
 Alpha  occ. eigenvalues --   -0.25584  -0.25168  -0.23779  -0.23128  -0.22671
 Alpha  occ. eigenvalues --   -0.22306  -0.21540  -0.17863  -0.17053  -0.16828
 Alpha  occ. eigenvalues --   -0.13829   0.04113
 Alpha virt. eigenvalues --    0.06349   0.07070   0.07579   0.08384   0.08766
 Alpha virt. eigenvalues --    0.09135   0.09474   0.10154   0.10686   0.10960
 Alpha virt. eigenvalues --    0.11709   0.11920   0.12095   0.12446   0.13153

  Beta  occ. eigenvalues --  -19.03065 -19.01906 -19.00722 -14.21223 -10.11840
  Beta  occ. eigenvalues --  -10.11525 -10.11370 -10.11093 -10.10674 -10.09882
  Beta  occ. eigenvalues --  -10.08803 -10.07055 -10.06834 -10.06790 -10.06468
  Beta  occ. eigenvalues --   -0.94229  -0.91872  -0.91521  -0.82112  -0.72690
  Beta  occ. eigenvalues --   -0.67807  -0.64415  -0.63623  -0.59369  -0.57530
  Beta  occ. eigenvalues --   -0.55880  -0.53723  -0.52235  -0.47838  -0.45225
  Beta  occ. eigenvalues --   -0.42585  -0.41145  -0.39654  -0.39133  -0.38181
  Beta  occ. eigenvalues --   -0.37819  -0.36643  -0.35520  -0.35090  -0.34308
  Beta  occ. eigenvalues --   -0.31981  -0.31402  -0.30592  -0.30529  -0.30078
  Beta  occ. eigenvalues --   -0.29418  -0.28796  -0.28261  -0.27697  -0.27088
  Beta  occ. eigenvalues --   -0.25552  -0.25144  -0.23759  -0.23076  -0.22648
  Beta  occ. eigenvalues --   -0.22286  -0.21514  -0.17810  -0.17045  -0.16819
  Beta  occ. eigenvalues --   -0.13813
  Beta virt. eigenvalues --    0.06341   0.07279   0.07618   0.07771   0.08832
  Beta virt. eigenvalues --    0.09205   0.09260   0.09862   0.10317   0.10999
  Beta virt. eigenvalues --    0.11355   0.11702   0.12002   0.12361   0.12715

 Mulliken charges and spin densities:
               1          2
     1  C    0.341864  -0.959968
     2  C   -0.395020   0.003759
     3  C    0.345985   0.499765
     4  C    0.391352  -0.856433
     5  C   -1.328802   0.351199
     6  N   -0.118748  -0.048811
     7  C    0.388997  -0.032318
     8  C   -0.845714   0.370762
     9  C    1.745044  -2.177474
    10  O   -0.266258   0.007808
    11  C   -0.466638  -0.239423
    12  O   -0.123359   0.003900
    13  C   -0.227618  -0.071872
    14  C   -0.124325  -0.437930
    15  O   -0.190610   0.017126
    16  H    0.074077   0.052740
    17  H   -0.062546   0.204745
    18  H    0.066035   0.099667
    19  H   -0.239605   0.398710
    20  H    0.066103   0.087560
    21  H   -0.336981   0.499758
    22  H   -0.048163   0.186385
    23  H    0.008104   0.129535
    24  H   -0.053326   0.205575
    25  H    0.567938  -0.368303
    26  H    0.357809  -0.097218
    27  H    0.103384   0.113683
    28  H    0.138822   0.043679
    29  H   -0.378459   0.529585
    30  H   -0.866936   1.044362
    31  H   -0.516421   0.697393
    32  H   -0.263583   0.548071
    33  H    0.123387   0.057846
    34  H    0.227238  -0.023609
    35  H    0.084937   0.030103
    36  H    0.156399   0.023676
    37  H    0.122442   0.019280
    38  H    0.116738   0.048179
    39  H    0.077888   0.044083
    40  H    0.348568  -0.005573
 Sum of Mulliken charges =  -1.00000   1.00000

 Dipole moment (field-independent basis, Debye):
    X=             -1.4280    Y=              7.5656    Z=              1.7903  Tot=              7.9046
 Quadrupole moment (field-independent basis, Debye-Ang):
   XX=           -152.2105   YY=           -163.6701   ZZ=           -134.4029
   XY=              8.1219   XZ=              3.3987   YZ=             -4.5092

 Summary of Natural Population Analysis:

                                       Natural Population
                Natural  -----------------------------------------------
    Atom  No    Charge         Core      Valence    Rydberg      Total
 -----------------------------------------------------------------------
      C    1   -0.28679      0.99966     2.28160    0.00553     3.28679
      C    2   -0.19326      0.99959     2.18247    0.01119     3.19326
      C    3   -0.05832      0.99956     2.04570    0.01307     3.05832
      C    4   -0.28707      0.99962     2.27983    0.00761     3.28707
      C    5   -0.08482      0.99957     2.07256    0.01270     3.08482
      N    6   -0.36473      0.99974     2.85373    0.01126     3.86473
      C    7   -0.02141      0.99959     2.00844    0.01338     3.02141
      C    8   -0.20657      0.99961     2.19672    0.01024     3.20657
      C    9   -0.01263      0.99960     1.99994    0.01309     3.01263
      O   10   -0.38059      0.99989     3.37327    0.00742     4.38059
      C   11   -0.00583      0.99955     1.99422    0.01206     3.00583
      O   12   -0.30071      0.99989     3.29216    0.00866     4.30071
      C   13   -0.09912      0.99962     2.09026    0.00925     3.09912
      C   14   -0.00609      0.99953     1.99375    0.01281     3.00609
      O   15   -0.39033      0.99990     3.38293    0.00749     4.39033
      H   16    0.09401      0.00000     0.40519    0.00081     0.40599
      H   17    0.10031      0.00000     0.39901    0.00068     0.39969
      H   18    0.09879      0.00000     0.40036    0.00085     0.40121
      H   19    0.09992      0.00000     0.39848    0.00160     0.40008
      H   20    0.10037      0.00000     0.39793    0.00170     0.39963
      H   21    0.10509      0.00000     0.39382    0.00109     0.39491
      H   22    0.09978      0.00000     0.39927    0.00095     0.40022
      H   23    0.10015      0.00000     0.39898    0.00087     0.39985
      H   24    0.09354      0.00000     0.40511    0.00134     0.40646
      H   25    0.08997      0.00000     0.40810    0.00194     0.41003
      H   26    0.18532      0.00000     0.31035    0.00433     0.31468
      H   27    0.09655      0.00000     0.40169    0.00176     0.40345
      H   28    0.09972      0.00000     0.39912    0.00117     0.40028
      H   29    0.10457      0.00000     0.39425    0.00118     0.39543
      H   30    0.08472      0.00000     0.41198    0.00331     0.41528
      H   31    0.07843      0.00000     0.41781    0.00376     0.42157
      H   32    0.23997      0.00000     0.24928    0.01074     0.26003
      H   33    0.09186      0.00000     0.40667    0.00148     0.40814
      H   34    0.08747      0.00000     0.41119    0.00134     0.41253
      H   35    0.07876      0.00000     0.41988    0.00136     0.42124
      H   36    0.08306      0.00000     0.41521    0.00172     0.41694
      H   37    0.08394      0.00000     0.41513    0.00093     0.41606
      H   38    0.08452      0.00000     0.41426    0.00121     0.41548
      H   39    0.07374      0.00000     0.42513    0.00112     0.42626
      H   40    0.24372      0.00000     0.25247    0.00382     0.25628
 =======================================================================
   * Total *    0.00000     14.99490    45.79827    0.20684    61.00000

 Normal termination of Gaussian 16 at Thu Dec 10 18:48:42 2020.
