 Gaussian 16, Revision A.03,

 -----------------------------------------------------------
 # opt freq B3LYP/6-31G(d) empiricaldispersion=gd3bj scf=xqc
 -----------------------------------------------------------

 ------------------------------
 CID_66173905_JID_9557_neutraal
 ------------------------------
 Symbolic Z-matrix:
 Charge =  0 Multiplicity = 1

 SCF Done:  E(RB3LYP) =  -900.674608358     A.U. after   15 cycles
 SCF Done:  E(RB3LYP) =  -900.680258692     A.U. after   13 cycles
 SCF Done:  E(RB3LYP) =  -900.680469842     A.U. after   13 cycles
 SCF Done:  E(RB3LYP) =  -900.682830732     A.U. after   13 cycles
 SCF Done:  E(RB3LYP) =  -900.683208828     A.U. after   12 cycles
 SCF Done:  E(RB3LYP) =  -900.683366061     A.U. after   12 cycles
 SCF Done:  E(RB3LYP) =  -900.683457546     A.U. after   12 cycles
 SCF Done:  E(RB3LYP) =  -900.683574037     A.U. after   11 cycles
 SCF Done:  E(RB3LYP) =  -900.683598036     A.U. after   10 cycles
 SCF Done:  E(RB3LYP) =  -900.683603144     A.U. after    9 cycles
 SCF Done:  E(RB3LYP) =  -900.683604703     A.U. after    9 cycles
 SCF Done:  E(RB3LYP) =  -900.683604961     A.U. after    7 cycles
 SCF Done:  E(RB3LYP) =  -900.683605000     A.U. after    7 cycles
 Optimization completed.
    -- Stationary point found.
 Normal termination of Gaussian 16 at Thu Dec 17 20:10:17 2020.

 --------------------------------------------------------------------
 #N Geom=AllCheck Guess=TCheck SCRF=Check GenChk RB3LYP/6-31G(d) Freq
 --------------------------------------------------------------------

 Structure from the checkpoint file:  "JID_9557.chk"
 ------------------------------
 CID_66173905_JID_9557_neutraal
 ------------------------------
 Charge =  0 Multiplicity = 1

 SCF Done:  E(RB3LYP) =  -900.683605000     A.U. after    1 cycles

  Exact polarizability: 247.363 -17.122 126.778   4.374  15.280 140.392
 Approx polarizability: 310.209 -30.714 186.354   4.929  49.779 245.840

                      1                      2                      3
                      A                      A                      A
 Frequencies --     21.5189                29.0058                40.1681
 Red. masses --      4.3374                 3.9406                 4.5860
 Frc consts  --      0.0012                 0.0020                 0.0044
 IR Inten    --      0.4765                 0.4199                 1.6887

                      4                      5                      6
                      A                      A                      A
 Frequencies --     48.4163                67.2747                84.1326
 Red. masses --      5.6840                 3.5130                 4.0071
 Frc consts  --      0.0079                 0.0094                 0.0167
 IR Inten    --      0.5681                 0.3911                 0.6455

                      7                      8                      9
                      A                      A                      A
 Frequencies --    100.8172               125.2544               129.4375
 Red. masses --      4.2958                 3.2812                 1.2386
 Frc consts  --      0.0257                 0.0303                 0.0122
 IR Inten    --      0.3730                 0.2751                 0.7871

                     10                     11                     12
                      A                      A                      A
 Frequencies --    142.8538               151.3928               200.0827
 Red. masses --      3.2582                 3.5024                 3.1641
 Frc consts  --      0.0392                 0.0473                 0.0746
 IR Inten    --      0.8662                 1.3054                 3.1590

                     13                     14                     15
                      A                      A                      A
 Frequencies --    208.2388               235.1356               248.1924
 Red. masses --      3.1010                 1.1455                 1.0477
 Frc consts  --      0.0792                 0.0373                 0.0380
 IR Inten    --      2.1384                 0.1336                 0.0027

                     16                     17                     18
                      A                      A                      A
 Frequencies --    255.1559               261.5161               270.9136
 Red. masses --      1.2065                 3.4899                 5.2695
 Frc consts  --      0.0463                 0.1406                 0.2279
 IR Inten    --      0.6710                 1.4127                 7.1197

                     19                     20                     21
                      A                      A                      A
 Frequencies --    296.7665               338.4643               353.5062
 Red. masses --      4.1421                 3.4947                 2.9781
 Frc consts  --      0.2149                 0.2359                 0.2193
 IR Inten    --      4.9772                 8.0137                 1.6466

                     22                     23                     24
                      A                      A                      A
 Frequencies --    357.1859               418.8244               422.4637
 Red. masses --      5.1107                 3.3011                 3.3489
 Frc consts  --      0.3842                 0.3412                 0.3522
 IR Inten    --     17.0456                15.8605                 2.1072

                     25                     26                     27
                      A                      A                      A
 Frequencies --    425.9033               481.4294               495.3477
 Red. masses --      3.4313                 2.2162                 4.7939
 Frc consts  --      0.3667                 0.3026                 0.6930
 IR Inten    --      4.8198               106.3457                 3.8417

                     28                     29                     30
                      A                      A                      A
 Frequencies --    508.8282               539.3968               581.4489
 Red. masses --      2.9576                 2.8465                 2.6193
 Frc consts  --      0.4512                 0.4880                 0.5217
 IR Inten    --      0.7119                54.6501                49.2844

                     31                     32                     33
                      A                      A                      A
 Frequencies --    653.7793               670.0446               686.1769
 Red. masses --      6.5666                 3.8526                 3.7881
 Frc consts  --      1.6537                 1.0191                 1.0509
 IR Inten    --      4.0334                24.7330                10.7336

                     34                     35                     36
                      A                      A                      A
 Frequencies --    704.4901               754.2128               771.0222
 Red. masses --      3.5670                 6.0724                 5.8474
 Frc consts  --      1.0430                 2.0352                 2.0481
 IR Inten    --     14.3793                 1.7672                32.8629

                     37                     38                     39
                      A                      A                      A
 Frequencies --    810.2404               827.1643               835.9817
 Red. masses --      4.5531                 1.3427                 2.9614
 Frc consts  --      1.7611                 0.5412                 1.2194
 IR Inten    --      6.8715                 2.2219                 1.4482

                     40                     41                     42
                      A                      A                      A
 Frequencies --    846.1194               851.5966               873.2276
 Red. masses --      3.5013                 2.1605                 4.2456
 Frc consts  --      1.4769                 0.9231                 1.9074
 IR Inten    --     11.2007                32.9631                 2.0950

                     43                     44                     45
                      A                      A                      A
 Frequencies --    944.7991               947.0981               957.1906
 Red. masses --      2.9341                 1.1984                 1.4148
 Frc consts  --      1.5431                 0.6333                 0.7637
 IR Inten    --     10.6763                 1.6607                 0.2215

                     46                     47                     48
                      A                      A                      A
 Frequencies --    959.3915               964.7573               984.3954
 Red. masses --      1.8946                 1.3256                 1.3120
 Frc consts  --      1.0275                 0.7269                 0.7491
 IR Inten    --      4.2105                 0.1155                 0.0393

                     49                     50                     51
                      A                      A                      A
 Frequencies --   1014.1259              1032.4751              1092.3058
 Red. masses --      2.4900                 2.8616                 3.0242
 Frc consts  --      1.5088                 1.7973                 2.1259
 IR Inten    --      8.9265                11.3928                87.1899

                     52                     53                     54
                      A                      A                      A
 Frequencies --   1119.9317              1128.3586              1152.3519
 Red. masses --      2.5630                 2.6132                 1.4432
 Frc consts  --      1.8940                 1.9602                 1.1291
 IR Inten    --     21.9574                45.7826                14.8289

                     55                     56                     57
                      A                      A                      A
 Frequencies --   1171.4333              1186.3476              1187.0935
 Red. masses --      2.1471                 1.2979                 2.5108
 Frc consts  --      1.7359                 1.0763                 2.0846
 IR Inten    --      9.1712                12.8716               504.8384

                     58                     59                     60
                      A                      A                      A
 Frequencies --   1200.6149              1215.1772              1219.3578
 Red. masses --      2.1919                 1.2166                 1.8331
 Frc consts  --      1.8616                 1.0585                 1.6058
 IR Inten    --     29.6827               174.5540                 6.8534

                     61                     62                     63
                      A                      A                      A
 Frequencies --   1222.0785              1290.8956              1315.2234
 Red. masses --      1.5242                 4.1821                 3.7937
 Frc consts  --      1.3412                 4.1061                 3.8664
 IR Inten    --      9.0343               232.0256               608.6088

                     64                     65                     66
                      A                      A                      A
 Frequencies --   1317.9065              1346.4480              1359.1373
 Red. masses --      2.4876                 1.3890                 1.3664
 Frc consts  --      2.5457                 1.4836                 1.4872
 IR Inten    --     35.8657                17.1110                12.7857

                     67                     68                     69
                      A                      A                      A
 Frequencies --   1367.4079              1380.0942              1390.8049
 Red. masses --      1.6851                 3.6613                 1.3010
 Frc consts  --      1.8564                 4.1087                 1.4827
 IR Inten    --     38.2701                85.8214                 3.1176

                     70                     71                     72
                      A                      A                      A
 Frequencies --   1425.7382              1426.3311              1430.7202
 Red. masses --      1.3071                 1.3491                 1.2431
 Frc consts  --      1.5654                 1.6171                 1.4993
 IR Inten    --     59.9321                19.8939                10.4822

                     73                     74                     75
                      A                      A                      A
 Frequencies --   1440.5445              1466.0418              1492.8508
 Red. masses --      1.2491                 2.6252                 1.2085
 Frc consts  --      1.5272                 3.3244                 1.5869
 IR Inten    --     24.7906                33.8280                 6.3558

                     76                     77                     78
                      A                      A                      A
 Frequencies --   1509.5041              1513.2088              1520.7909
 Red. masses --      1.0470                 1.0475                 1.0513
 Frc consts  --      1.4056                 1.4131                 1.4325
 IR Inten    --      0.0037                 6.1319                25.7696

                     79                     80                     81
                      A                      A                      A
 Frequencies --   1521.5473              1523.4236              1527.6117
 Red. masses --      1.0676                 1.0497                 1.1392
 Frc consts  --      1.4562                 1.4354                 1.5663
 IR Inten    --      5.8515                11.7630                10.5680

                     82                     83                     84
                      A                      A                      A
 Frequencies --   1530.9810              1541.2958              1550.4649
 Red. masses --      1.0491                 1.4510                 1.0559
 Frc consts  --      1.4488                 2.0309                 1.4956
 IR Inten    --      0.0393                 6.8407                13.1199

                     85                     86                     87
                      A                      A                      A
 Frequencies --   1573.1483              1633.3484              1672.9076
 Red. masses --      2.7261                 4.6099                 5.7876
 Frc consts  --      3.9749                 7.2460                 9.5432
 IR Inten    --     73.2220                17.8346               327.1497

                     88                     89                     90
                      A                      A                      A
 Frequencies --   1780.4777              1828.8393              3059.3425
 Red. masses --     11.3156                11.1008                 1.0386
 Frc consts  --     21.1350                21.8755                 5.7274
 IR Inten    --    232.1001               176.6680                22.9087

                     91                     92                     93
                      A                      A                      A
 Frequencies --   3059.9360              3062.6853              3077.4091
 Red. masses --      1.0370                 1.0434                 1.0814
 Frc consts  --      5.7206                 5.7663                 6.0338
 IR Inten    --     17.1777                15.8463                41.6736

                     94                     95                     96
                      A                      A                      A
 Frequencies --   3079.1881              3092.4777              3122.2797
 Red. masses --      1.0294                 1.0849                 1.1016
 Frc consts  --      5.7507                 6.1129                 6.3270
 IR Inten    --     27.9338                 5.9391                15.8896

                     97                     98                     99
                      A                      A                      A
 Frequencies --   3125.0287              3133.7663              3151.1755
 Red. masses --      1.1018                 1.1006                 1.1038
 Frc consts  --      6.3398                 6.3684                 6.4580
 IR Inten    --     49.5751                22.3457                12.6916

                    100                    101                    102
                      A                      A                      A
 Frequencies --   3156.0790              3170.1704              3174.0899
 Red. masses --      1.1077                 1.1003                 1.0996
 Frc consts  --      6.5009                 6.5149                 6.5270
 IR Inten    --     19.2057                 1.3472                19.2393

                    103                    104                    105
                      A                      A                      A
 Frequencies --   3177.3040              3187.6650              3216.7210
 Red. masses --      1.0894                 1.1074                 1.0874
 Frc consts  --      6.4798                 6.6300                 6.6290
 IR Inten    --     18.4322                13.7307                 4.6360

                    106                    107                    108
                      A                      A                      A
 Frequencies --   3230.3855              3233.4469              3578.4963
 Red. masses --      1.0936                 1.0922                 1.0755
 Frc consts  --      6.7236                 6.7280                 8.1142
 IR Inten    --      8.6656                 2.5418                16.9810

 - Thermochemistry -
 -------------------
 Temperature   298.150 Kelvin.  Pressure   1.00000 Atm.
 Atom     1 has atomic number  6 and mass  12.00000

 Molecular mass:   265.13141 amu.
 Principal axes and moments of inertia in atomic units:
                           1         2         3
     Eigenvalues --  1946.24908********************
           X            0.99999  -0.00520  -0.00105
           Y            0.00515   0.99901  -0.04425
           Z            0.00128   0.04424   0.99902
 This molecule is an asymmetric top.
 Rotational symmetry number  1.
 Warning -- assumption of classical behavior for rotation
           may cause significant error
 Rotational temperatures (Kelvin)      0.04450     0.00690     0.00662
 Rotational constants (GHZ):           0.92729     0.14384     0.13799
 Zero-point vibrational energy     834920.2 (Joules/Mol)
                                  199.55071 (Kcal/Mol)
 Warning -- explicit consideration of  30 degrees of freedom as
           vibrations may cause significant error
 Vibrational temperatures:     30.96    41.73    57.79    69.66    96.79
          (Kelvin)            121.05   145.05   180.21   186.23   205.53
                              217.82   287.87   299.61   338.31   357.09
                              367.11   376.26   389.78   426.98   486.97
                              508.62   513.91   602.59   607.83   612.78
                              692.67   712.69   732.09   776.07   836.58
                              940.64   964.04   987.26  1013.60  1085.14
                             1109.33  1165.76  1190.10  1202.79  1217.38
                             1225.26  1256.38  1359.36  1362.66  1377.18
                             1380.35  1388.07  1416.33  1459.10  1485.50
                             1571.58  1611.33  1623.46  1657.98  1685.43
                             1706.89  1707.96  1727.42  1748.37  1754.38
                             1758.30  1857.31  1892.31  1896.17  1937.24
                             1955.50  1967.40  1985.65  2001.06  2051.32
                             2052.17  2058.49  2072.62  2109.31  2147.88
                             2171.84  2177.17  2188.08  2189.17  2191.87
                             2197.89  2202.74  2217.58  2230.77  2263.41
                             2350.02  2406.94  2561.71  2631.29  4401.71
                             4402.57  4406.52  4427.71  4430.26  4449.39
                             4492.26  4496.22  4508.79  4533.84  4540.89
                             4561.17  4566.81  4571.43  4586.34  4628.14
                             4647.80  4652.21  5148.66

 Zero-point correction=                           0.318004 (Hartree/Particle)
 Thermal correction to Energy=                    0.337976
 Thermal correction to Enthalpy=                  0.338920
 Thermal correction to Gibbs Free Energy=         0.267602
 Sum of electronic and zero-point Energies=           -900.365601
 Sum of electronic and thermal Energies=              -900.345629
 Sum of electronic and thermal Enthalpies=            -900.344685
 Sum of electronic and thermal Free Energies=         -900.416003

                     E (Thermal)             CV                S
                      KCal/Mol        Cal/Mol-Kelvin    Cal/Mol-Kelvin
 Total                  212.083             73.100            150.100
 Electronic               0.000              0.000              0.000
 Translational            0.889              2.981             42.624
 Rotational               0.889              2.981             34.123
 Vibrational            210.305             67.138             73.353
 Vibration     1          0.593              1.985              6.489
 Vibration     2          0.593              1.984              5.896
 Vibration     3          0.594              1.981              5.251
 Vibration     4          0.595              1.978              4.881
 Vibration     5          0.598              1.970              4.232
 Vibration     6          0.601              1.960              3.792
 Vibration     7          0.604              1.948              3.438
 Vibration     8          0.610              1.928              3.018
 Vibration     9          0.612              1.924              2.954
 Vibration    10          0.616              1.910              2.765
 Vibration    11          0.619              1.901              2.655
 Vibration    12          0.638              1.840              2.132
 Vibration    13          0.642              1.828              2.059
 Vibration    14          0.655              1.787              1.839
 Vibration    15          0.662              1.766              1.743
 Vibration    16          0.666              1.754              1.695
 Vibration    17          0.669              1.743              1.652
 Vibration    18          0.675              1.727              1.590
 Vibration    19          0.690              1.680              1.435
 Vibration    20          0.719              1.599              1.219
 Vibration    21          0.730              1.568              1.151
 Vibration    22          0.732              1.560              1.134
 Vibration    23          0.782              1.429              0.896
 Vibration    24          0.785              1.421              0.884
 Vibration    25          0.788              1.414              0.872
 Vibration    26          0.838              1.291              0.706
 Vibration    27          0.851              1.260              0.670
 Vibration    28          0.864              1.230              0.636
 Vibration    29          0.894              1.163              0.567
 Vibration    30          0.938              1.071              0.483

                           ! Non-Optimized Parameters !
 Normal termination of Gaussian 16 at Thu Dec 17 20:25:47 2020.

 ----------------------------------------------------------------------
 # B3LYP/6-311++G(d,p) empiricaldispersion=gd3bj scf=xqc pop=npa geom=c
 heck
 ----------------------------------------------------------------------

 --------------------------------------
 CID_66173905_JID_9557_Energie_neutraal
 --------------------------------------
 Structure from the checkpoint file:  "JID_9557.chk"
 Charge =  0 Multiplicity = 1

 SCF Done:  E(RB3LYP) =  -900.942154573     A.U. after   16 cycles
 Normal termination of Gaussian 16 at Thu Dec 17 20:33:54 2020.

 ----------------------------------------------------------------------
 # B3LYP/6-311++G(d,p) empiricaldispersion=gd3bj scf=xqc pop=npa geom=c
 heck
 ----------------------------------------------------------------------

 ------------------------------------
 CID_66173905_JID_9557_Energie_kation
 ------------------------------------
 Structure from the checkpoint file:  "JID_9557.chk"
 Charge =  1 Multiplicity = 2

 SCF Done:  E(UB3LYP) =  -900.660644678     A.U. after   22 cycles
 Normal termination of Gaussian 16 at Thu Dec 17 20:49:34 2020.
 Gaussian 16:  ES64L-G16RevA.03 25-Dec-2016

 ----------------------------------------------------------------------
 # B3LYP/6-311++G(d,p) empiricaldispersion=gd3bj scf=xqc pop=npa geom=c
 heck
 ----------------------------------------------------------------------

 -----------------------------------
 CID_66173905_JID_9557_Energie_anion
 -----------------------------------
 Structure from the checkpoint file:  "JID_9557.chk"
 Charge = -1 Multiplicity = 2

                         Standard orientation:
 ---------------------------------------------------------------------
 Center     Atomic      Atomic             Coordinates (Angstroms)
 Number     Number       Type             X           Y           Z
 ---------------------------------------------------------------------
      1          6           0       -5.741898   -0.693635    0.568041
      2          6           0       -5.041386    0.007709   -0.592087
      3          6           0       -5.292471    1.511748   -0.651085
      4          8           0       -3.617886   -0.300583   -0.624963
      5          6           0       -2.817546    0.096585    0.391597
      6          8           0       -3.202980    0.716814    1.368132
      7          6           0       -1.410797   -0.313377    0.175714
      8          6           0       -0.462305    0.028823    1.146659
      9          6           0        0.873953   -0.320107    1.003240
     10          6           0        1.298246   -1.036195   -0.133026
     11          6           0        0.342571   -1.378081   -1.111099
     12          6           0       -0.986852   -1.023239   -0.959313
     13          7           0        2.615194   -1.444420   -0.305531
     14          6           0        3.694939   -0.863479    0.467997
     15          6           0        5.028555   -1.490503    0.047973
     16          6           0        3.790475    0.663792    0.353795
     17          8           0        4.062354    1.401623    1.274666
     18          8           0        3.569519    1.075286   -0.909619
     19          6           0        3.617963    2.498578   -1.106710
     20          1           0       -5.450810   -0.255851    1.524043
     21          1           0       -5.491969   -1.759643    0.574681
     22          1           0       -6.827071   -0.597701    0.448386
     23          1           0       -5.379182   -0.442535   -1.531043
     24          1           0       -4.991414    1.996069    0.279044
     25          1           0       -4.734701    1.958187   -1.480890
     26          1           0       -6.359822    1.695486   -0.818798
     27          1           0       -0.793517    0.582880    2.018498
     28          1           0        1.583252   -0.026051    1.768247
     29          1           0        0.660898   -1.931922   -1.991263
     30          1           0       -1.710367   -1.291564   -1.720335
     31          1           0        2.860318   -1.619743   -1.272387
     32          1           0        3.527039   -1.070194    1.529186
     33          1           0        5.243697   -1.269884   -1.003860
     34          1           0        5.844583   -1.089926    0.655508
     35          1           0        4.986974   -2.575504    0.180077
     36          1           0        2.861693    2.989068   -0.489110
     37          1           0        4.604239    2.888001   -0.841959
     38          1           0        3.411047    2.654939   -2.165207
 ---------------------------------------------------------------------

 SCF Done:  E(UB3LYP) =  -900.934671966     A.U. after   33 cycles
 SCF Done:  E(UB3LYP) =  -900.934671966     a.u. after    1 cycles

 The electronic state is 2-A.
 Alpha  occ. eigenvalues --  -19.08160 -19.04763 -19.02336 -18.97836 -14.22697
 Alpha  occ. eigenvalues --  -10.20752 -10.16904 -10.14342 -10.13780 -10.13025
 Alpha  occ. eigenvalues --  -10.10353 -10.08019 -10.07481 -10.07272 -10.06357
 Alpha  occ. eigenvalues --  -10.06244 -10.06239 -10.06102 -10.05605  -1.02115
 Alpha  occ. eigenvalues --   -0.98425  -0.93364  -0.89587  -0.84616  -0.74400
 Alpha  occ. eigenvalues --   -0.70381  -0.68807  -0.64236  -0.64043  -0.62492
 Alpha  occ. eigenvalues --   -0.60730  -0.56138  -0.55552  -0.50572  -0.50206
 Alpha  occ. eigenvalues --   -0.47949  -0.44273  -0.43103  -0.42870  -0.40219
 Alpha  occ. eigenvalues --   -0.39937  -0.39437  -0.38045  -0.37129  -0.36215
 Alpha  occ. eigenvalues --   -0.35290  -0.34711  -0.33802  -0.33114  -0.32290
 Alpha  occ. eigenvalues --   -0.31625  -0.31565  -0.31398  -0.30385  -0.29702
 Alpha  occ. eigenvalues --   -0.29240  -0.28643  -0.27476  -0.27171  -0.26983
 Alpha  occ. eigenvalues --   -0.26414  -0.26003  -0.23954  -0.23090  -0.22244
 Alpha  occ. eigenvalues --   -0.21372  -0.19541  -0.18287  -0.15614  -0.15018
 Alpha  occ. eigenvalues --   -0.10660   0.04171
 Alpha virt. eigenvalues --    0.05533   0.05792   0.06698   0.07680   0.08107
 Alpha virt. eigenvalues --    0.08307   0.08588   0.08918   0.09636   0.09900
 Alpha virt. eigenvalues --    0.09971   0.10302   0.10770   0.11210   0.11609

  Beta  occ. eigenvalues --  -19.08150 -19.04726 -19.02304 -18.97690 -14.22678
  Beta  occ. eigenvalues --  -10.20734 -10.16740 -10.14341 -10.13760 -10.13021
  Beta  occ. eigenvalues --  -10.10160 -10.07968 -10.07477 -10.07257 -10.06313
  Beta  occ. eigenvalues --  -10.06235 -10.06179 -10.06122 -10.05554  -1.02084
  Beta  occ. eigenvalues --   -0.98262  -0.93318  -0.89362  -0.84503  -0.74253
  Beta  occ. eigenvalues --   -0.70313  -0.68719  -0.64163  -0.63935  -0.62329
  Beta  occ. eigenvalues --   -0.60710  -0.56024  -0.55412  -0.50401  -0.50096
  Beta  occ. eigenvalues --   -0.47900  -0.44176  -0.43029  -0.42795  -0.40160
  Beta  occ. eigenvalues --   -0.39887  -0.39383  -0.37949  -0.37084  -0.35945
  Beta  occ. eigenvalues --   -0.35180  -0.34651  -0.33719  -0.33060  -0.32207
  Beta  occ. eigenvalues --   -0.31493  -0.31405  -0.31346  -0.30322  -0.29466
  Beta  occ. eigenvalues --   -0.29166  -0.28475  -0.27426  -0.27028  -0.26929
  Beta  occ. eigenvalues --   -0.26259  -0.25779  -0.23887  -0.23021  -0.22157
  Beta  occ. eigenvalues --   -0.21155  -0.19076  -0.17988  -0.15478  -0.14693
  Beta  occ. eigenvalues --   -0.10235
  Beta virt. eigenvalues --    0.05723   0.06371   0.07161   0.07584   0.07901
  Beta virt. eigenvalues --    0.08363   0.08422   0.08707   0.09021   0.09850
  Beta virt. eigenvalues --    0.10122   0.10224   0.10590   0.10935   0.11232

 Mulliken charges and spin densities:
               1          2
     1  C   -0.045813  -0.365173
     2  C   -0.196956   0.201285
     3  C   -0.305161  -0.098159
     4  O    0.057373   0.007064
     5  C   -0.187821  -0.307965
     6  O   -0.285361   0.052609
     7  C    0.445195   0.214095
     8  C   -0.157938   0.292292
     9  C    0.220070   0.112967
    10  C   -0.288182  -0.418065
    11  C   -0.455974  -0.068974
    12  C   -0.416428   0.083127
    13  N    0.041520   0.123462
    14  C   -0.839623   0.690307
    15  C    1.377359  -2.048497
    16  C   -0.498366   0.188203
    17  O   -0.199963   0.018584
    18  O    0.008282   0.036655
    19  C    0.322844  -0.534187
    20  H    0.134544   0.050396
    21  H    0.083252   0.046817
    22  H   -0.040473   0.176954
    23  H    0.026057   0.134729
    24  H    0.190285  -0.005161
    25  H    0.120912   0.005455
    26  H    0.084401   0.049917
    27  H    0.189240  -0.002705
    28  H    0.094083   0.108574
    29  H   -0.252706   0.378020
    30  H    0.189149  -0.031801
    31  H    0.280231  -0.017158
    32  H    0.286267  -0.058737
    33  H   -0.400672   0.564298
    34  H   -0.130983   0.295688
    35  H   -0.383378   0.566895
    36  H    0.125486   0.051317
    37  H   -0.085395   0.253869
    38  H   -0.105356   0.253001
 Sum of Mulliken charges =  -1.00000   1.00000

 Dipole moment (field-independent basis, Debye):
    X=             -4.7594    Y=              1.8589    Z=             -1.2000  Tot=              5.2486
 Quadrupole moment (field-independent basis, Debye-Ang):
   XX=           -219.9571   YY=           -145.4351   ZZ=           -139.5027
   XY=              5.9132   XZ=              9.7714   YZ=             -4.9538

 Summary of Natural Population Analysis:

                                       Natural Population
                Natural  -----------------------------------------------
    Atom  No    Charge         Core      Valence    Rydberg      Total
 -----------------------------------------------------------------------
      C    1   -0.30024      0.99964     2.29601    0.00459     3.30024
      C    2    0.06315      0.99956     1.92224    0.01505     2.93685
      C    3   -0.30038      0.99964     2.29606    0.00468     3.30038
      O    4   -0.28909      0.99986     3.28086    0.00837     4.28909
      C    5    0.41872      0.99962     1.55721    0.02445     2.58128
      O    6   -0.31474      0.99987     3.31014    0.00473     4.31474
      C    7   -0.09587      0.99945     2.08567    0.01074     3.09587
      C    8   -0.04888      0.99955     2.04083    0.00851     3.04888
      C    9   -0.15253      0.99953     2.14557    0.00743     3.15253
      C   10    0.12939      0.99950     1.86008    0.01103     2.87061
      C   11   -0.13851      0.99953     2.12944    0.00953     3.13851
      C   12   -0.05368      0.99955     2.04631    0.00783     3.05368
      N   13   -0.30635      0.99967     2.79564    0.01104     3.80635
      C   14   -0.05094      0.99956     2.03855    0.01283     3.05094
      C   15   -0.28246      0.99964     2.27712    0.00569     3.28246
      C   16    0.41021      0.99966     1.56218    0.02795     2.58979
      O   17   -0.30513      0.99987     3.29970    0.00557     4.30513
      O   18   -0.27792      0.99986     3.26865    0.00942     4.27792
      C   19   -0.10548      0.99959     2.09676    0.00912     3.10548
      H   20    0.11316      0.00000     0.38567    0.00117     0.38684
      H   21    0.10198      0.00000     0.39695    0.00107     0.39802
      H   22    0.09598      0.00000     0.40293    0.00110     0.40402
      H   23    0.08691      0.00000     0.41199    0.00109     0.41309
      H   24    0.11318      0.00000     0.38578    0.00104     0.38682
      H   25    0.10112      0.00000     0.39798    0.00091     0.39888
      H   26    0.09533      0.00000     0.40378    0.00089     0.40467
      H   27    0.10773      0.00000     0.39124    0.00103     0.39227
      H   28    0.10243      0.00000     0.39616    0.00141     0.39757
      H   29    0.09600      0.00000     0.40268    0.00132     0.40400
      H   30    0.10461      0.00000     0.39437    0.00102     0.39539
      H   31    0.18552      0.00000     0.31158    0.00290     0.31448
      H   32    0.10416      0.00000     0.39388    0.00196     0.39584
      H   33    0.10238      0.00000     0.39545    0.00217     0.39762
      H   34    0.10556      0.00000     0.39345    0.00099     0.39444
      H   35    0.10770      0.00000     0.39065    0.00165     0.39230
      H   36    0.09299      0.00000     0.40617    0.00084     0.40701
      H   37    0.09142      0.00000     0.40734    0.00125     0.40858
      H   38    0.09257      0.00000     0.40654    0.00088     0.40743
 =======================================================================
   * Total *    0.00000     18.99316    51.78360    0.22324    71.00000

 Normal termination of Gaussian 16 at Thu Dec 17 21:13:43 2020.
