 Gaussian 16, Revision A.03,

 ----------------------------------------------------------------------
 # opt=(cartesian,calcfc) freq B3LYP/6-31G(d) empiricaldispersion=gd3bj
  scf=xqc
 ----------------------------------------------------------------------

 ------------------------------
 CID_71052826_JID_5105_neutraal
 ------------------------------
 Symbolic Z-matrix:
 Charge =  0 Multiplicity = 1

 SCF Done:  E(RB3LYP) =  -621.809551836     A.U. after   13 cycles
 SCF Done:  E(RB3LYP) =  -621.810694395     A.U. after   10 cycles
 SCF Done:  E(RB3LYP) =  -621.810842177     A.U. after   10 cycles
 SCF Done:  E(RB3LYP) =  -621.810928372     A.U. after   10 cycles
 SCF Done:  E(RB3LYP) =  -621.810943006     A.U. after   10 cycles
 SCF Done:  E(RB3LYP) =  -621.811042068     A.U. after   10 cycles
 SCF Done:  E(RB3LYP) =  -621.811071961     A.U. after   10 cycles
 SCF Done:  E(RB3LYP) =  -621.811108139     A.U. after    8 cycles
 SCF Done:  E(RB3LYP) =  -621.811113718     A.U. after    9 cycles
 SCF Done:  E(RB3LYP) =  -621.811122651     A.U. after    9 cycles
 SCF Done:  E(RB3LYP) =  -621.811141450     A.U. after    7 cycles
 SCF Done:  E(RB3LYP) =  -621.811141709     A.U. after    6 cycles
 SCF Done:  E(RB3LYP) =  -621.811141716     A.U. after    6 cycles
 SCF Done:  E(RB3LYP) =  -621.811141282     A.U. after    7 cycles
 SCF Done:  E(RB3LYP) =  -621.811141295     A.U. after    7 cycles
 SCF Done:  E(RB3LYP) =  -621.811141733     A.U. after    1 cycles
 Optimization completed.
    -- Stationary point found.
 Normal termination of Gaussian 16 at Mon Jan  4 10:13:02 2021.

 --------------------------------------------------------------------
 #N Geom=AllCheck Guess=TCheck SCRF=Check GenChk RB3LYP/6-31G(d) Freq
 --------------------------------------------------------------------

 Structure from the checkpoint file:  "JID_5105.chk"
 ------------------------------
 CID_71052826_JID_5105_neutraal
 ------------------------------
 Charge =  0 Multiplicity = 1

 SCF Done:  E(RB3LYP) =  -621.811141733     A.U. after    1 cycles

  Exact polarizability: 172.041  -1.826 148.526  -3.009  -2.395 129.259
 Approx polarizability: 211.408  -1.635 207.153  -3.853  -1.885 198.336

                      1                      2                      3
                      A                      A                      A
 Frequencies --     34.3115                49.3009                65.9551
 Red. masses --      2.8514                 3.3684                 2.8985
 Frc consts  --      0.0020                 0.0048                 0.0074
 IR Inten    --      0.2258                 0.0425                 0.0050

                      4                      5                      6
                      A                      A                      A
 Frequencies --     76.2894               130.3469               150.8940
 Red. masses --      3.0621                 2.7916                 2.8681
 Frc consts  --      0.0105                 0.0279                 0.0385
 IR Inten    --      0.0068                 0.2548                 0.2424

                      7                      8                      9
                      A                      A                      A
 Frequencies --    194.4484               223.6204               229.5950
 Red. masses --      2.7140                 1.0456                 1.9242
 Frc consts  --      0.0605                 0.0308                 0.0598
 IR Inten    --      0.1259                 0.0783                 0.5504

                     10                     11                     12
                      A                      A                      A
 Frequencies --    244.5978               250.6047               261.6888
 Red. masses --      1.1687                 2.3418                 1.6007
 Frc consts  --      0.0412                 0.0867                 0.0646
 IR Inten    --      0.1025                 0.5786                 0.1269

                     13                     14                     15
                      A                      A                      A
 Frequencies --    270.7645               280.7216               297.7308
 Red. masses --      1.5729                 1.2508                 2.7220
 Frc consts  --      0.0679                 0.0581                 0.1422
 IR Inten    --      0.1171                 0.0479                 2.1269

                     16                     17                     18
                      A                      A                      A
 Frequencies --    313.6792               331.0949               335.4066
 Red. masses --      2.0489                 1.3170                 1.5621
 Frc consts  --      0.1188                 0.0851                 0.1035
 IR Inten    --      0.3024                 0.5008                 0.6938

                     19                     20                     21
                      A                      A                      A
 Frequencies --    371.6916               401.0735               412.4793
 Red. masses --      2.2537                 1.9712                 2.0249
 Frc consts  --      0.1834                 0.1868                 0.2030
 IR Inten    --      6.2391                 0.7992                 0.3380

                     22                     23                     24
                      A                      A                      A
 Frequencies --    428.1855               444.0563               446.6234
 Red. masses --      2.2649                 1.9230                 1.8882
 Frc consts  --      0.2447                 0.2234                 0.2219
 IR Inten    --      0.4310                 0.1791                 0.6206

                     25                     26                     27
                      A                      A                      A
 Frequencies --    475.5475               501.3137               512.0491
 Red. masses --      2.1149                 2.8015                 2.4654
 Frc consts  --      0.2818                 0.4148                 0.3809
 IR Inten    --      3.0554                 1.9617                 1.4959

                     28                     29                     30
                      A                      A                      A
 Frequencies --    540.4076               641.0720               770.7219
 Red. masses --      3.3454                 1.8552                 3.1732
 Frc consts  --      0.5756                 0.4492                 1.1106
 IR Inten    --      2.1431                 7.7635                 0.5153

                     31                     32                     33
                      A                      A                      A
 Frequencies --    793.3609               818.2857               827.1193
 Red. masses --      3.7660                 3.1366                 2.6976
 Frc consts  --      1.3966                 1.2374                 1.0873
 IR Inten    --      7.9204                10.5551                 2.4448

                     34                     35                     36
                      A                      A                      A
 Frequencies --    852.6815               875.1468               896.3138
 Red. masses --      1.6418                 1.6386                 2.1000
 Frc consts  --      0.7033                 0.7394                 0.9940
 IR Inten    --      1.0410                 1.6303                 5.8854

                     37                     38                     39
                      A                      A                      A
 Frequencies --    924.3862               933.1922               941.7629
 Red. masses --      1.9048                 2.0223                 1.2241
 Frc consts  --      0.9590                 1.0376                 0.6397
 IR Inten    --      0.9948                 2.3889                 2.5791

                     40                     41                     42
                      A                      A                      A
 Frequencies --    956.9338               969.0971               984.5935
 Red. masses --      1.4702                 1.6291                 1.6108
 Frc consts  --      0.7932                 0.9014                 0.9201
 IR Inten    --      1.5056                 2.3964                 2.7206

                     43                     44                     45
                      A                      A                      A
 Frequencies --   1000.3604              1026.5600              1040.3117
 Red. masses --      2.3481                 1.7263                 1.3781
 Frc consts  --      1.3845                 1.0718                 0.8787
 IR Inten    --     10.9137                 2.9242                11.0122

                     46                     47                     48
                      A                      A                      A
 Frequencies --   1047.7420              1074.8553              1076.0319
 Red. masses --      2.2947                 1.6972                 2.1630
 Frc consts  --      1.4842                 1.1553                 1.4756
 IR Inten    --     41.9181                 6.4474                 9.4417

                     49                     50                     51
                      A                      A                      A
 Frequencies --   1092.5796              1117.6881              1130.1811
 Red. masses --      1.9015                 1.7481                 2.1655
 Frc consts  --      1.3374                 1.2866                 1.6297
 IR Inten    --     14.5590                 2.9312                 8.3956

                     52                     53                     54
                      A                      A                      A
 Frequencies --   1158.2154              1162.8649              1171.2086
 Red. masses --      2.3007                 2.1087                 1.5523
 Frc consts  --      1.8184                 1.6801                 1.2546
 IR Inten    --     45.4901                13.3304                23.3586

                     55                     56                     57
                      A                      A                      A
 Frequencies --   1196.2006              1207.2158              1216.0755
 Red. masses --      2.1401                 1.7627                 1.9518
 Frc consts  --      1.8043                 1.5136                 1.7006
 IR Inten    --     13.4964                 3.5640                 3.1732

                     58                     59                     60
                      A                      A                      A
 Frequencies --   1232.2655              1236.8861              1252.4199
 Red. masses --      1.4756                 1.5172                 2.0640
 Frc consts  --      1.3201                 1.3676                 1.9075
 IR Inten    --      5.7859                 3.6354                 1.7725

                     61                     62                     63
                      A                      A                      A
 Frequencies --   1283.1744              1320.5246              1327.9529
 Red. masses --      2.2745                 1.5442                 1.5803
 Frc consts  --      2.2066                 1.5866                 1.6419
 IR Inten    --      1.0490                 6.8035                 2.5204

                     64                     65                     66
                      A                      A                      A
 Frequencies --   1334.0243              1355.4079              1367.8610
 Red. masses --      1.3852                 1.3043                 1.3519
 Frc consts  --      1.4524                 1.4118                 1.4903
 IR Inten    --      7.8395                 9.3105                13.6451

                     67                     68                     69
                      A                      A                      A
 Frequencies --   1383.7734              1393.6946              1398.9153
 Red. masses --      1.3240                 1.4951                 1.3900
 Frc consts  --      1.4937                 1.7110                 1.6026
 IR Inten    --     11.7174                 6.3142                10.9703

                     70                     71                     72
                      A                      A                      A
 Frequencies --   1404.9695              1411.1839              1412.8431
 Red. masses --      1.4052                 1.3619                 1.3486
 Frc consts  --      1.6343                 1.5979                 1.5861
 IR Inten    --     13.0264                 8.3847                 2.9042

                     73                     74                     75
                      A                      A                      A
 Frequencies --   1415.5174              1422.6587              1430.5860
 Red. masses --      1.3395                 1.2741                 1.2856
 Frc consts  --      1.5813                 1.5193                 1.5501
 IR Inten    --     26.7447                 4.2379                 7.0388

                     76                     77                     78
                      A                      A                      A
 Frequencies --   1438.1596              1449.9799              1452.0085
 Red. masses --      1.3719                 1.2378                 1.2686
 Frc consts  --      1.6718                 1.5333                 1.5759
 IR Inten    --     10.9955                 2.4528                 9.0947

                     79                     80                     81
                      A                      A                      A
 Frequencies --   1480.0357              1496.5013              1509.5727
 Red. masses --      1.1406                 1.0852                 1.0882
 Frc consts  --      1.4721                 1.4319                 1.4610
 IR Inten    --      2.2479                 2.2811                 4.5234

                     82                     83                     84
                      A                      A                      A
 Frequencies --   1511.5666              1512.9272              1515.7924
 Red. masses --      1.0839                 1.0678                 1.0766
 Frc consts  --      1.4591                 1.4400                 1.4574
 IR Inten    --      2.9437                 3.6667                 6.3109

                     85                     86                     87
                      A                      A                      A
 Frequencies --   1518.4055              1521.4566              1525.2113
 Red. masses --      1.0690                 1.0511                 1.0537
 Frc consts  --      1.4522                 1.4335                 1.4442
 IR Inten    --      1.7242                 0.3834                 0.9745

                     88                     89                     90
                      A                      A                      A
 Frequencies --   1526.5789              1529.0548              1533.8850
 Red. masses --      1.0675                 1.0616                 1.0567
 Frc consts  --      1.4657                 1.4623                 1.4648
 IR Inten    --      3.1972                 8.3627                 5.0697

                     91                     92                     93
                      A                      A                      A
 Frequencies --   1539.2469              1541.6132              1545.0640
 Red. masses --      1.0633                 1.0880                 1.0530
 Frc consts  --      1.4843                 1.5234                 1.4811
 IR Inten    --      1.0600                 4.7293                16.4939

                     94                     95                     96
                      A                      A                      A
 Frequencies --   1548.6386              1552.0513              2919.6178
 Red. masses --      1.0509                 1.0595                 1.0738
 Frc consts  --      1.4849                 1.5038                 5.3931
 IR Inten    --      4.1495                11.7492                23.9999

                     97                     98                     99
                      A                      A                      A
 Frequencies --   2923.6641              2972.7059              2991.6252
 Red. masses --      1.0717                 1.0583                 1.0720
 Frc consts  --      5.3976                 5.5101                 5.6527
 IR Inten    --     83.4724                99.1413                59.4013

                    100                    101                    102
                      A                      A                      A
 Frequencies --   3023.9909              3026.4599              3036.4725
 Red. masses --      1.0601                 1.0821                 1.0360
 Frc consts  --      5.7117                 5.8397                 5.6281
 IR Inten    --     16.7243                 5.4525                30.0725

                    103                    104                    105
                      A                      A                      A
 Frequencies --   3037.2336              3037.8768              3042.4785
 Red. masses --      1.0581                 1.0404                 1.0626
 Frc consts  --      5.7508                 5.6569                 5.7955
 IR Inten    --     42.8522                28.2012                43.1159

                    106                    107                    108
                      A                      A                      A
 Frequencies --   3044.6119              3046.3832              3065.4297
 Red. masses --      1.0377                 1.0390                 1.0990
 Frc consts  --      5.6673                 5.6811                 6.0843
 IR Inten    --     46.1618                 5.5753                23.2228

                    109                    110                    111
                      A                      A                      A
 Frequencies --   3070.1850              3091.4539              3093.2024
 Red. masses --      1.0742                 1.1034                 1.0903
 Frc consts  --      5.9660                 6.2132                 6.1465
 IR Inten    --     54.9050                24.1270                 4.0352

                    112                    113                    114
                      A                      A                      A
 Frequencies --   3094.2022              3097.5984              3098.4013
 Red. masses --      1.1033                 1.1003                 1.1010
 Frc consts  --      6.2235                 6.2204                 6.2276
 IR Inten    --     70.4349                18.9694                12.1179

                    115                    116                    117
                      A                      A                      A
 Frequencies --   3102.2263              3105.4691              3108.2213
 Red. masses --      1.0962                 1.0989                 1.0939
 Frc consts  --      6.2155                 6.2441                 6.2264
 IR Inten    --     43.8723               117.6034                24.2987

                    118                    119                    120
                      A                      A                      A
 Frequencies --   3109.9297              3110.3813              3113.7338
 Red. masses --      1.0895                 1.1015                 1.1035
 Frc consts  --      6.2086                 6.2784                 6.3035
 IR Inten    --     52.0000                27.2755                35.3719

                    121                    122                    123
                      A                      A                      A
 Frequencies --   3114.7630              3124.9066              3131.1857
 Red. masses --      1.1011                 1.1005                 1.0972
 Frc consts  --      6.2938                 6.3318                 6.3380
 IR Inten    --     53.4530                26.2163                33.1406

 - Thermochemistry -
 -------------------
 Temperature   298.150 Kelvin.  Pressure   1.00000 Atm.
 Atom     1 has atomic number  6 and mass  12.00000

 Molecular mass:   212.22525 amu.
 Principal axes and moments of inertia in atomic units:
                           1         2         3
     Eigenvalues --  1904.027845518.448526405.32807
           X            0.99996  -0.00629  -0.00560
           Y            0.00625   0.99995  -0.00758
           Z            0.00564   0.00755   0.99996
 This molecule is an asymmetric top.
 Rotational symmetry number  1.
 Warning -- assumption of classical behavior for rotation
           may cause significant error
 Rotational temperatures (Kelvin)      0.04549     0.01570     0.01352
 Rotational constants (GHZ):           0.94785     0.32704     0.28176
 Zero-point vibrational energy    1061949.3 (Joules/Mol)
                                  253.81197 (Kcal/Mol)
 Warning -- explicit consideration of  28 degrees of freedom as
           vibrations may cause significant error
 Vibrational temperatures:     49.37    70.93    94.89   109.76   187.54
          (Kelvin)            217.10   279.77   321.74   330.34   351.92
                              360.56   376.51   389.57   403.90   428.37
                              451.31   476.37   482.58   534.78   577.06
                              593.47   616.06   638.90   642.59   684.21
                              721.28   736.72   777.53   922.36  1108.90
                             1141.47  1177.33  1190.04  1226.82  1259.14
                             1289.60  1329.99  1342.66  1354.99  1376.81
                             1394.31  1416.61  1439.30  1476.99  1496.78
                             1507.47  1546.48  1548.17  1571.98  1608.10
                             1626.08  1666.41  1673.10  1685.11  1721.07
                             1736.91  1749.66  1772.96  1779.60  1801.95
                             1846.20  1899.94  1910.63  1919.36  1950.13
                             1968.05  1990.94  2005.22  2012.73  2021.44
                             2030.38  2032.77  2036.61  2046.89  2058.29
                             2069.19  2086.20  2089.12  2129.44  2153.13
                             2171.94  2174.81  2176.76  2180.89  2184.65
                             2189.04  2194.44  2196.41  2199.97  2206.92
                             2214.63  2218.04  2223.00  2228.15  2233.06
                             4200.68  4206.50  4277.06  4304.28  4350.85
                             4354.40  4368.81  4369.90  4370.83  4377.45
                             4380.52  4383.07  4410.47  4417.31  4447.91
                             4450.43  4451.87  4456.75  4457.91  4463.41
                             4468.08  4472.04  4474.50  4475.15  4479.97
                             4481.45  4496.04  4505.08

 Zero-point correction=                           0.404475 (Hartree/Particle)
 Thermal correction to Energy=                    0.421626
 Thermal correction to Enthalpy=                  0.422571
 Thermal correction to Gibbs Free Energy=         0.360693
 Sum of electronic and zero-point Energies=           -621.406667
 Sum of electronic and thermal Energies=              -621.389515
 Sum of electronic and thermal Enthalpies=            -621.388571
 Sum of electronic and thermal Free Energies=         -621.450449

                     E (Thermal)             CV                S
                      KCal/Mol        Cal/Mol-Kelvin    Cal/Mol-Kelvin
 Total                  264.575             67.469            130.233
 Electronic               0.000              0.000              0.000
 Translational            0.889              2.981             41.961
 Rotational               0.889              2.981             32.576
 Vibrational            262.797             61.508             55.696
 Vibration     1          0.594              1.983              5.563
 Vibration     2          0.595              1.978              4.845
 Vibration     3          0.597              1.971              4.271
 Vibration     4          0.599              1.965              3.984
 Vibration     5          0.612              1.923              2.941
 Vibration     6          0.618              1.902              2.661
 Vibration     7          0.635              1.848              2.185
 Vibration     8          0.649              1.805              1.930
 Vibration     9          0.652              1.796              1.882
 Vibration    10          0.660              1.772              1.769
 Vibration    11          0.663              1.762              1.726
 Vibration    12          0.669              1.743              1.650
 Vibration    13          0.674              1.727              1.591
 Vibration    14          0.680              1.709              1.529
 Vibration    15          0.691              1.678              1.430
 Vibration    16          0.702              1.648              1.343
 Vibration    17          0.713              1.613              1.255
 Vibration    18          0.717              1.605              1.234
 Vibration    19          0.743              1.530              1.073
 Vibration    20          0.767              1.468              0.959
 Vibration    21          0.776              1.443              0.918
 Vibration    22          0.790              1.409              0.865
 Vibration    23          0.804              1.374              0.814
 Vibration    24          0.806              1.368              0.806
 Vibration    25          0.832              1.304              0.722
 Vibration    26          0.857              1.247              0.655
 Vibration    27          0.867              1.223              0.629
 Vibration    28          0.895              1.161              0.564

 Optimization completed.
    -- Stationary point found.
 Normal termination of Gaussian 16 at Mon Jan  4 10:32:59 2021.

 ----------------------------------------------------------------------
 # B3LYP/6-311++G(d,p) empiricaldispersion=gd3bj scf=xqc pop=npa geom=c
 heck
 ----------------------------------------------------------------------

 --------------------------------------
 CID_71052826_JID_5105_Energie_neutraal
 --------------------------------------
 Structure from the checkpoint file:  "JID_5105.chk"
 Charge =  0 Multiplicity = 1

 SCF Done:  E(RB3LYP) =  -621.981264562     A.U. after   13 cycles
 Normal termination of Gaussian 16 at Mon Jan  4 10:41:50 2021.

 ----------------------------------------------------------------------
 # B3LYP/6-311++G(d,p) empiricaldispersion=gd3bj scf=xqc pop=npa geom=c
 heck
 ----------------------------------------------------------------------

 ------------------------------------
 CID_71052826_JID_5105_Energie_kation
 ------------------------------------
 Structure from the checkpoint file:  "JID_5105.chk"
 Charge =  1 Multiplicity = 2

 SCF Done:  E(UB3LYP) =  -621.712461991     A.U. after   19 cycles
 Normal termination of Gaussian 16 at Mon Jan  4 10:58:30 2021.
 Gaussian 16:  ES64L-G16RevA.03 25-Dec-2016

 ----------------------------------------------------------------------
 # B3LYP/6-311++G(d,p) empiricaldispersion=gd3bj scf=xqc pop=npa geom=c
 heck
 ----------------------------------------------------------------------

 -----------------------------------
 CID_71052826_JID_5105_Energie_anion
 -----------------------------------
 Structure from the checkpoint file:  "JID_5105.chk"
 Charge = -1 Multiplicity = 2

                         Standard orientation:
 ---------------------------------------------------------------------
 Center     Atomic      Atomic             Coordinates (Angstroms)
 Number     Number       Type             X           Y           Z
 ---------------------------------------------------------------------
      1          6           0        2.549897   -1.724754    1.118666
      2          6           0        3.086192   -0.932403   -0.080258
      3          6           0        3.606512   -1.907890   -1.147202
      4          6           0        2.073971    0.030668   -0.734387
      5          6           0        1.523650    1.243282    0.064939
      6          6           0        2.592434    1.863441    0.978260
      7          6           0        1.078352    2.302394   -0.960255
      8          6           0        0.301515    0.852935    0.936898
      9          7           0       -0.826928    0.317857    0.170134
     10          6           0       -1.954272    1.243583    0.060414
     11          6           0       -2.994831    0.681769   -0.916066
     12          7           0       -3.471661   -0.655335   -0.561723
     13          6           0       -2.328285   -1.545099   -0.357888
     14          6           0       -1.283882   -0.995332    0.621848
     15          6           0       -4.423290   -0.663344    0.541338
     16          1           0        1.664760   -2.308846    0.837744
     17          1           0        2.275083   -1.081357    1.959246
     18          1           0        3.306878   -2.430591    1.480997
     19          1           0        3.944021   -0.340516    0.268102
     20          1           0        2.789581   -2.528636   -1.537565
     21          1           0        4.051422   -1.373855   -1.994738
     22          1           0        4.367435   -2.580146   -0.733712
     23          1           0        2.570520    0.432577   -1.628283
     24          1           0        1.211332   -0.538517   -1.106751
     25          1           0        3.488405    2.133175    0.407020
     26          1           0        2.213015    2.777722    1.450757
     27          1           0        2.899438    1.180944    1.778225
     28          1           0        0.345343    1.881582   -1.655865
     29          1           0        0.626143    3.170728   -0.464626
     30          1           0        1.934779    2.659880   -1.543895
     31          1           0       -0.015839    1.742384    1.505105
     32          1           0        0.607403    0.115517    1.685410
     33          1           0       -2.418251    1.431888    1.049475
     34          1           0       -1.591286    2.206131   -0.310601
     35          1           0       -2.531753    0.621462   -1.909789
     36          1           0       -3.854505    1.358044   -0.985255
     37          1           0       -1.838293   -1.690505   -1.329728
     38          1           0       -2.694003   -2.519824   -0.015101
     39          1           0       -0.426653   -1.674687    0.653948
     40          1           0       -1.703948   -0.953480    1.646817
     41          1           0       -4.030648   -0.301480    1.508046
     42          1           0       -5.282042   -0.036435    0.276157
     43          1           0       -4.785995   -1.686310    0.692143
 ---------------------------------------------------------------------

 SCF Done:  E(UB3LYP) =  -621.966321408     A.U. after   31 cycles

 The electronic state is 2-A.
 Alpha  occ. eigenvalues --  -14.20830 -14.20643 -10.09621 -10.09569 -10.09393
 Alpha  occ. eigenvalues --  -10.09385 -10.09144 -10.09135 -10.08399 -10.07587
 Alpha  occ. eigenvalues --  -10.06196 -10.06099 -10.06061 -10.06024 -10.05877
 Alpha  occ. eigenvalues --   -0.85045  -0.80847  -0.72999  -0.69089  -0.66701
 Alpha  occ. eigenvalues --   -0.63235  -0.59526  -0.58614  -0.58399  -0.57884
 Alpha  occ. eigenvalues --   -0.54763  -0.52640  -0.47469  -0.45824  -0.43680
 Alpha  occ. eigenvalues --   -0.40085  -0.38317  -0.37838  -0.37524  -0.36161
 Alpha  occ. eigenvalues --   -0.35712  -0.35314  -0.34272  -0.33505  -0.32675
 Alpha  occ. eigenvalues --   -0.30586  -0.30277  -0.30060  -0.29537  -0.29068
 Alpha  occ. eigenvalues --   -0.28758  -0.28147  -0.27390  -0.26576  -0.25763
 Alpha  occ. eigenvalues --   -0.25709  -0.25363  -0.24439  -0.23972  -0.23273
 Alpha  occ. eigenvalues --   -0.22063  -0.21598  -0.20569  -0.13124  -0.10966
 Alpha  occ. eigenvalues --    0.04234
 Alpha virt. eigenvalues --    0.05912   0.06663   0.07328   0.07902   0.07955
 Alpha virt. eigenvalues --    0.08492   0.09069   0.09408   0.10028   0.10139
 Alpha virt. eigenvalues --    0.10565   0.11104   0.11417   0.12014   0.12235

  Beta  occ. eigenvalues --  -14.20829 -14.20632 -10.09609 -10.09556 -10.09380
  Beta  occ. eigenvalues --  -10.09370 -10.09126 -10.09113 -10.08395 -10.07578
  Beta  occ. eigenvalues --  -10.06175 -10.06074 -10.06035 -10.06016 -10.05860
  Beta  occ. eigenvalues --   -0.85029  -0.80830  -0.72982  -0.69065  -0.66677
  Beta  occ. eigenvalues --   -0.63205  -0.59486  -0.58569  -0.58358  -0.57848
  Beta  occ. eigenvalues --   -0.54724  -0.52603  -0.47418  -0.45775  -0.43644
  Beta  occ. eigenvalues --   -0.40050  -0.38292  -0.37819  -0.37498  -0.36133
  Beta  occ. eigenvalues --   -0.35689  -0.35283  -0.34243  -0.33478  -0.32647
  Beta  occ. eigenvalues --   -0.30557  -0.30252  -0.30031  -0.29509  -0.29042
  Beta  occ. eigenvalues --   -0.28732  -0.28118  -0.27363  -0.26553  -0.25735
  Beta  occ. eigenvalues --   -0.25684  -0.25341  -0.24415  -0.23946  -0.23248
  Beta  occ. eigenvalues --   -0.22039  -0.21573  -0.20549  -0.13079  -0.10929
  Beta virt. eigenvalues --    0.06124   0.06723   0.07268   0.07702   0.08385
  Beta virt. eigenvalues --    0.08470   0.08839   0.09313   0.09792   0.10359
  Beta virt. eigenvalues --    0.10484   0.10889   0.11278   0.11669   0.12208

 Mulliken charges and spin densities:
               1          2
     1  C    0.397088  -1.039628
     2  C   -2.044969   2.498449
     3  C    0.598987  -1.312258
     4  C    0.979953  -1.914520
     5  C   -0.120126   1.647569
     6  C    0.888214  -1.502798
     7  C    0.137994  -0.705595
     8  C   -1.710853   0.189209
     9  N    0.455804   0.025674
    10  C   -0.001523  -0.037914
    11  C    0.181524  -0.810091
    12  N   -0.074906   0.213796
    13  C    0.035379  -0.716185
    14  C   -0.032044  -0.011353
    15  C    0.558206  -0.864601
    16  H   -0.088352   0.261131
    17  H    0.086669   0.013354
    18  H   -0.315502   0.468422
    19  H   -0.022484   0.187701
    20  H   -0.027659   0.155280
    21  H   -0.244907   0.371112
    22  H   -0.228067   0.375569
    23  H    0.272921  -0.113637
    24  H    0.373482  -0.173550
    25  H   -0.123919   0.284325
    26  H   -0.007702   0.149394
    27  H   -0.098741   0.241174
    28  H    0.022773   0.095240
    29  H   -0.014027   0.169810
    30  H   -0.126026   0.273142
    31  H   -0.174906   0.333210
    32  H   -0.072476   0.243297
    33  H    0.005935   0.131888
    34  H   -0.054856   0.182360
    35  H    0.107839   0.057820
    36  H   -0.067198   0.239380
    37  H    0.056161   0.105018
    38  H   -0.081745   0.267824
    39  H    0.163533  -0.110517
    40  H   -0.074938   0.221661
    41  H   -0.135044   0.240777
    42  H   -0.205633   0.352936
    43  H   -0.173857   0.316126
 Sum of Mulliken charges =  -1.00000   1.00000

 Dipole moment (field-independent basis, Debye):
    X=             -0.6664    Y=              1.0064    Z=             -1.0545  Tot=              1.6028
 Quadrupole moment (field-independent basis, Debye-Ang):
   XX=           -193.3486   YY=           -149.9023   ZZ=           -137.7169
   XY=              3.6527   XZ=              2.6598   YZ=              0.4709

 Summary of Natural Population Analysis:

                                       Natural Population
                Natural  -----------------------------------------------
    Atom  No    Charge         Core      Valence    Rydberg      Total
 -----------------------------------------------------------------------
      C    1   -0.28394      0.99964     2.27826    0.00603     3.28394
      C    2   -0.11563      0.99961     2.10677    0.00925     3.11563
      C    3   -0.28081      0.99965     2.27504    0.00611     3.28081
      C    4   -0.18824      0.99957     2.17752    0.01115     3.18824
      C    5   -0.04945      0.99957     2.03746    0.01242     3.04945
      C    6   -0.28789      0.99963     2.28084    0.00742     3.28789
      C    7   -0.28476      0.99963     2.27777    0.00737     3.28476
      C    8   -0.07799      0.99956     2.06648    0.01195     3.07799
      N    9   -0.29286      0.99970     2.78038    0.01278     3.79286
      C   10   -0.09204      0.99961     2.08240    0.01004     3.09204
      C   11   -0.08755      0.99961     2.07601    0.01193     3.08755
      N   12   -0.27958      0.99974     2.76612    0.01371     3.77958
      C   13   -0.08709      0.99961     2.07569    0.01179     3.08709
      C   14   -0.09132      0.99960     2.08215    0.00956     3.09132
      C   15   -0.17944      0.99964     2.17123    0.00858     3.17944
      H   16    0.09469      0.00000     0.40397    0.00135     0.40531
      H   17    0.09754      0.00000     0.40134    0.00112     0.40246
      H   18    0.09937      0.00000     0.39969    0.00094     0.40063
      H   19    0.09281      0.00000     0.40527    0.00192     0.40719
      H   20    0.09540      0.00000     0.40362    0.00098     0.40460
      H   21    0.09807      0.00000     0.40102    0.00091     0.40193
      H   22    0.09845      0.00000     0.40061    0.00094     0.40155
      H   23    0.09732      0.00000     0.40136    0.00132     0.40268
      H   24    0.10341      0.00000     0.39462    0.00197     0.39659
      H   25    0.10106      0.00000     0.39793    0.00101     0.39894
      H   26    0.09970      0.00000     0.39940    0.00090     0.40030
      H   27    0.10056      0.00000     0.39843    0.00101     0.39944
      H   28    0.10375      0.00000     0.39497    0.00128     0.39625
      H   29    0.09694      0.00000     0.40210    0.00096     0.40306
      H   30    0.09862      0.00000     0.40056    0.00082     0.40138
      H   31    0.09054      0.00000     0.40802    0.00143     0.40946
      H   32    0.09713      0.00000     0.40107    0.00180     0.40287
      H   33    0.08066      0.00000     0.41793    0.00141     0.41934
      H   34    0.10009      0.00000     0.39845    0.00145     0.39991
      H   35    0.09459      0.00000     0.40387    0.00154     0.40541
      H   36    0.09592      0.00000     0.40317    0.00091     0.40408
      H   37    0.09491      0.00000     0.40353    0.00156     0.40509
      H   38    0.09615      0.00000     0.40294    0.00091     0.40385
      H   39    0.09939      0.00000     0.39910    0.00152     0.40061
      H   40    0.08012      0.00000     0.41855    0.00133     0.41988
      H   41    0.08197      0.00000     0.41638    0.00166     0.41803
      H   42    0.09467      0.00000     0.40419    0.00114     0.40533
      H   43    0.09474      0.00000     0.40414    0.00112     0.40526
 =======================================================================
   * Total *    0.00000     14.99436    44.82034    0.18529    60.00000

 Normal termination of Gaussian 16 at Mon Jan  4 11:29:34 2021.
