 Gaussian 16, Revision A.03,

 -----------------------------------------------------------
 # opt freq B3LYP/6-31G(d) empiricaldispersion=gd3bj scf=xqc
 -----------------------------------------------------------

 ------------------------------
 CID_19650599_JID_1758_neutraal
 ------------------------------
 Symbolic Z-matrix:
 Charge =  0 Multiplicity = 1

 SCF Done:  E(RB3LYP) =  -859.318985066     A.U. after   14 cycles
 SCF Done:  E(RB3LYP) =  -859.322729294     A.U. after   12 cycles
 SCF Done:  E(RB3LYP) =  -859.322710993     A.U. after   12 cycles
 SCF Done:  E(RB3LYP) =  -859.324063332     A.U. after   11 cycles
 SCF Done:  E(RB3LYP) =  -859.324649157     A.U. after   12 cycles
 SCF Done:  E(RB3LYP) =  -859.325720797     A.U. after   13 cycles
 SCF Done:  E(RB3LYP) =  -859.325177739     A.U. after   15 cycles
 SCF Done:  E(RB3LYP) =  -859.327315828     A.U. after   12 cycles
 SCF Done:  E(RB3LYP) =  -859.328465458     A.U. after   12 cycles
 SCF Done:  E(RB3LYP) =  -859.329703761     A.U. after   12 cycles
 SCF Done:  E(RB3LYP) =  -859.336992576     A.U. after    9 cycles
 SCF Done:  E(RB3LYP) =  -859.336993436     A.U. after    8 cycles
 SCF Done:  E(RB3LYP) =  -859.336993628     A.U. after    7 cycles
 SCF Done:  E(RB3LYP) =  -859.336993671     A.U. after    7 cycles
 SCF Done:  E(RB3LYP) =  -859.336993666     A.U. after    7 cycles
 SCF Done:  E(RB3LYP) =  -859.336993674     A.U. after    6 cycles
 Optimization completed.
    -- Stationary point found.
 Normal termination of Gaussian 16 at Tue Dec  8 21:12:37 2020.

 --------------------------------------------------------------------
 #N Geom=AllCheck Guess=TCheck SCRF=Check GenChk RB3LYP/6-31G(d) Freq
 --------------------------------------------------------------------

 Structure from the checkpoint file:  "JID_1758.chk"
 ------------------------------
 CID_19650599_JID_1758_neutraal
 ------------------------------
 Charge =  0 Multiplicity = 1

 SCF Done:  E(RB3LYP) =  -859.336993674     A.U. after    1 cycles

  Exact polarizability: 101.603  -5.255 123.620  11.885  -4.552 105.235
 Approx polarizability: 135.730 -15.467 182.679  22.295 -14.278 156.786

                      1                      2                      3
                      A                      A                      A
 Frequencies --     27.8501                63.0967                96.7111
 Red. masses --      4.7373                 3.8243                 4.8404
 Frc consts  --      0.0022                 0.0090                 0.0267
 IR Inten    --      1.1791                 0.0856                 3.8722

                      4                      5                      6
                      A                      A                      A
 Frequencies --    102.2993               111.0057               125.3755
 Red. masses --      3.1265                 3.2269                 2.4079
 Frc consts  --      0.0193                 0.0234                 0.0223
 IR Inten    --      3.3712                 0.5153                 8.3669

                      7                      8                      9
                      A                      A                      A
 Frequencies --    169.2474               220.8692               232.6327
 Red. masses --      2.4480                 1.8613                 1.2012
 Frc consts  --      0.0413                 0.0535                 0.0383
 IR Inten    --      2.9271                 3.1499                 0.4355

                     10                     11                     12
                      A                      A                      A
 Frequencies --    251.5705               267.9782               311.9185
 Red. masses --      2.0606                 1.8682                 3.0793
 Frc consts  --      0.0768                 0.0790                 0.1765
 IR Inten    --      2.2459                 4.1235                 6.4938

                     13                     14                     15
                      A                      A                      A
 Frequencies --    329.2022               349.0530               411.4988
 Red. masses --      2.7239                 2.2006                 2.9626
 Frc consts  --      0.1739                 0.1580                 0.2956
 IR Inten    --      6.6691                 0.3814                 0.1807

                     16                     17                     18
                      A                      A                      A
 Frequencies --    442.4518               497.6170               556.4422
 Red. masses --      2.8749                 3.1169                 2.4745
 Frc consts  --      0.3316                 0.4547                 0.4514
 IR Inten    --      6.5496                11.9752                 3.0346

                     19                     20                     21
                      A                      A                      A
 Frequencies --    626.2889               649.7893               721.7703
 Red. masses --      1.5085                 4.5992                 1.4819
 Frc consts  --      0.3486                 1.1441                 0.4549
 IR Inten    --     45.0028                 4.1154               130.5968

                     22                     23                     24
                      A                      A                      A
 Frequencies --    784.7948               808.2273               860.0240
 Red. masses --      1.4366                 1.3510                 1.7452
 Frc consts  --      0.5213                 0.5200                 0.7605
 IR Inten    --     13.7310                11.8650                10.9025

                     25                     26                     27
                      A                      A                      A
 Frequencies --    882.7417               914.3207               953.1366
 Red. masses --      2.7593                 2.2334                 2.4590
 Frc consts  --      1.2668                 1.1001                 1.3162
 IR Inten    --      2.7531                25.4142                 4.7592

                     28                     29                     30
                      A                      A                      A
 Frequencies --   1000.6949              1057.9663              1074.1698
 Red. masses --      2.1904                 3.0135                 2.5072
 Frc consts  --      1.2923                 1.9873                 1.7044
 IR Inten    --     16.9482                 3.3895                 1.8904

                     31                     32                     33
                      A                      A                      A
 Frequencies --   1099.3235              1118.0275              1136.4459
 Red. masses --      2.1478                 1.8850                 2.2526
 Frc consts  --      1.5293                 1.3883                 1.7141
 IR Inten    --     24.2760                11.5205                 5.8753

                     34                     35                     36
                      A                      A                      A
 Frequencies --   1168.8546              1177.3977              1197.2298
 Red. masses --      4.2999                 1.8423                 1.3218
 Frc consts  --      3.4612                 1.5047                 1.1163
 IR Inten    --     89.7844                49.5048                10.9403

                     37                     38                     39
                      A                      A                      A
 Frequencies --   1215.0567              1236.9538              1270.4420
 Red. masses --      1.7301                 1.9184                 1.2251
 Frc consts  --      1.5050                 1.7294                 1.1650
 IR Inten    --    115.2948               130.7069                 6.1488

                     40                     41                     42
                      A                      A                      A
 Frequencies --   1282.2550              1323.5391              1338.8894
 Red. masses --      1.4203                 1.1698                 1.1287
 Frc consts  --      1.3759                 1.2073                 1.1921
 IR Inten    --     40.0805                24.3861                 4.9847

                     43                     44                     45
                      A                      A                      A
 Frequencies --   1387.2584              1401.8539              1403.0201
 Red. masses --      1.3735                 1.2624                 1.3956
 Frc consts  --      1.5574                 1.4617                 1.6186
 IR Inten    --     45.7184                 9.5730                 5.7090

                     46                     47                     48
                      A                      A                      A
 Frequencies --   1445.4843              1450.9329              1479.2396
 Red. masses --      1.2508                 1.3290                 1.4775
 Frc consts  --      1.5398                 1.6484                 1.9049
 IR Inten    --     15.3680                23.4986                17.6043

                     49                     50                     51
                      A                      A                      A
 Frequencies --   1497.2531              1507.2933              1508.8057
 Red. masses --      1.2216                 1.1752                 1.1274
 Frc consts  --      1.6134                 1.5731                 1.5122
 IR Inten    --     99.1131                 3.1340                22.1789

                     52                     53                     54
                      A                      A                      A
 Frequencies --   1515.7940              1521.1219              1528.8573
 Red. masses --      1.0507                 1.1941                 1.1509
 Frc consts  --      1.4224                 1.6279                 1.5850
 IR Inten    --      5.0308                34.7988                21.6966

                     55                     56                     57
                      A                      A                      A
 Frequencies --   1536.1134              1538.6770              1554.7602
 Red. masses --      1.0581                 1.1432                 1.2302
 Frc consts  --      1.4710                 1.5946                 1.7520
 IR Inten    --      4.2254                30.7506                44.4014

                     58                     59                     60
                      A                      A                      A
 Frequencies --   1562.8980              1605.1358              2990.7235
 Red. masses --      1.0853                 1.7240                 1.0592
 Frc consts  --      1.5619                 2.6171                 5.5816
 IR Inten    --      7.4001               245.3229                44.2894

                     61                     62                     63
                      A                      A                      A
 Frequencies --   3003.7300              3040.6202              3045.3766
 Red. masses --      1.0433                 1.0770                 1.0728
 Frc consts  --      5.5458                 5.8665                 5.8621
 IR Inten    --     89.6748                 7.7674                45.4219

                     64                     65                     66
                      A                      A                      A
 Frequencies --   3048.3179              3055.0034              3056.9973
 Red. masses --      1.0819                 1.0376                 1.1027
 Frc consts  --      5.9232                 5.7055                 6.0717
 IR Inten    --     38.0935                27.4813                35.2928

                     67                     68                     69
                      A                      A                      A
 Frequencies --   3071.2757              3086.7227              3114.6211
 Red. masses --      1.0749                 1.1031                 1.1007
 Frc consts  --      5.9737                 6.1924                 6.2911
 IR Inten    --     57.2511                34.8498                19.2155

                     70                     71                     72
                      A                      A                      A
 Frequencies --   3135.8539              3143.7577              3150.1644
 Red. masses --      1.0988                 1.0952                 1.1002
 Frc consts  --      6.3661                 6.3771                 6.4326
 IR Inten    --     29.3065                14.1255                22.4872

                     73                     74                     75
                      A                      A                      A
 Frequencies --   3221.1551              3572.6625              3610.4561
 Red. masses --      1.0889                 1.0751                 1.0764
 Frc consts  --      6.6569                 8.0850                 8.2674
 IR Inten    --      4.1442                24.3775                31.3126

 - Thermochemistry -
 -------------------
 Temperature   298.150 Kelvin.  Pressure   1.00000 Atm.
 Atom     1 has atomic number  6 and mass  12.00000

 Molecular mass:   176.09834 amu.
 Principal axes and moments of inertia in atomic units:
                           1         2         3
     Eigenvalues --  2021.542472255.079442743.23192
           X            0.96431   0.26410  -0.01921
           Y           -0.26341   0.96415   0.03205
           Z            0.02698  -0.02585   0.99930
 This molecule is an asymmetric top.
 Rotational symmetry number  1.
 Warning -- assumption of classical behavior for rotation
           may cause significant error
 Rotational temperatures (Kelvin)      0.04285     0.03841     0.03157
 Rotational constants (GHZ):           0.89275     0.80030     0.65789
 Zero-point vibrational energy     629577.2 (Joules/Mol)
                                  150.47257 (Kcal/Mol)
 Warning -- explicit consideration of  18 degrees of freedom as
           vibrations may cause significant error
 Vibrational temperatures:     40.07    90.78   139.15   147.19   159.71
          (Kelvin)            180.39   243.51   317.78   334.71   361.95
                              385.56   448.78   473.65   502.21   592.05
                              636.59   715.96   800.60   901.09   934.90
                             1038.47  1129.14  1162.86  1237.38  1270.07
                             1315.50  1371.35  1439.78  1522.18  1545.49
                             1581.68  1608.59  1635.09  1681.72  1694.01
                             1722.55  1748.20  1779.70  1827.88  1844.88
                             1904.28  1926.36  1995.96  2016.96  2018.63
                             2079.73  2087.57  2128.30  2154.21  2168.66
                             2170.83  2180.89  2188.56  2199.68  2210.12
                             2213.81  2236.95  2248.66  2309.43  4302.98
                             4321.70  4374.77  4381.62  4385.85  4395.47
                             4398.34  4418.88  4441.11  4481.25  4511.79
                             4523.17  4532.38  4634.52  5140.26  5194.64

 Zero-point correction=                           0.239793 (Hartree/Particle)
 Thermal correction to Energy=                    0.253056
 Thermal correction to Enthalpy=                  0.254001
 Thermal correction to Gibbs Free Energy=         0.199303
 Sum of electronic and zero-point Energies=           -859.097200
 Sum of electronic and thermal Energies=              -859.083937
 Sum of electronic and thermal Enthalpies=            -859.082993
 Sum of electronic and thermal Free Energies=         -859.137690

                     E (Thermal)             CV                S
                      KCal/Mol        Cal/Mol-Kelvin    Cal/Mol-Kelvin
 Total                  158.795             47.433            115.120
 Electronic               0.000              0.000              0.000
 Translational            0.889              2.981             41.405
 Rotational               0.889              2.981             30.904
 Vibrational            157.018             41.471             42.812
 Vibration     1          0.593              1.984              5.977
 Vibration     2          0.597              1.972              4.358
 Vibration     3          0.603              1.952              3.520
 Vibration     4          0.604              1.947              3.410
 Vibration     5          0.607              1.940              3.251
 Vibration     6          0.610              1.928              3.016
 Vibration     7          0.625              1.880              2.444
 Vibration     8          0.648              1.809              1.952
 Vibration     9          0.653              1.791              1.859
 Vibration    10          0.664              1.760              1.720
 Vibration    11          0.673              1.732              1.609
 Vibration    12          0.700              1.651              1.352
 Vibration    13          0.712              1.617              1.264
 Vibration    14          0.726              1.577              1.170
 Vibration    15          0.775              1.445              0.921
 Vibration    16          0.802              1.378              0.819
 Vibration    17          0.853              1.255              0.664
 Vibration    18          0.912              1.126              0.531

 Optimization completed.
    -- Stationary point found.
 Normal termination of Gaussian 16 at Tue Dec  8 21:19:26 2020.

 ----------------------------------------------------------------------
 # B3LYP/6-311++G(d,p) empiricaldispersion=gd3bj scf=xqc pop=npa geom=c
 heck
 ----------------------------------------------------------------------

 --------------------------------------
 CID_19650599_JID_1758_Energie_neutraal
 --------------------------------------
 Structure from the checkpoint file:  "JID_1758.chk"
 Charge =  0 Multiplicity = 1

 SCF Done:  E(RB3LYP) =  -859.502860204     A.U. after   14 cycles
 Normal termination of Gaussian 16 at Tue Dec  8 21:23:08 2020.

 ----------------------------------------------------------------------
 # B3LYP/6-311++G(d,p) empiricaldispersion=gd3bj scf=xqc pop=npa geom=c
 heck
 ----------------------------------------------------------------------

 ------------------------------------
 CID_19650599_JID_1758_Energie_kation
 ------------------------------------
 Structure from the checkpoint file:  "JID_1758.chk"
 Charge =  1 Multiplicity = 2

 SCF Done:  E(UB3LYP) =  -859.220712990     A.U. after   25 cycles
 Normal termination of Gaussian 16 at Tue Dec  8 21:29:32 2020.
 Gaussian 16:  ES64L-G16RevA.03 25-Dec-2016

 ----------------------------------------------------------------------
 # B3LYP/6-311++G(d,p) empiricaldispersion=gd3bj scf=xqc pop=npa geom=c
 heck
 ----------------------------------------------------------------------

 -----------------------------------
 CID_19650599_JID_1758_Energie_anion
 -----------------------------------
 Structure from the checkpoint file:  "JID_1758.chk"
 Charge = -1 Multiplicity = 2

                         Standard orientation:
 ---------------------------------------------------------------------
 Center     Atomic      Atomic             Coordinates (Angstroms)
 Number     Number       Type             X           Y           Z
 ---------------------------------------------------------------------
      1          6           0        0.206508    2.973830    0.047027
      2          6           0        1.321915    2.037299   -0.421212
      3          7           0        1.350819    0.785175    0.332645
      4          6           0        1.254357   -0.484999   -0.130302
      5         16           0        1.878716   -1.773756    0.771330
      6          7           0        0.665177   -0.701638   -1.352069
      7          6           0       -0.589413   -0.097562   -1.821508
      8          6           0       -1.831055   -0.896726   -1.402014
      9          6           0       -1.952155   -1.035297    0.109824
     10          8           0       -1.932199    0.264986    0.678753
     11          6           0       -1.716145    0.240303    2.076010
     12          1           0       -0.769429    2.485075   -0.019586
     13          1           0        0.196292    3.890100   -0.553776
     14          1           0        0.362196    3.259899    1.093537
     15          1           0        1.229464    1.796513   -1.481430
     16          1           0        2.297055    2.526864   -0.299313
     17          1           0        1.787928    0.822768    1.243787
     18          1           0        0.745180   -1.682910   -1.593819
     19          1           0       -0.674659    0.908885   -1.424158
     20          1           0       -0.542963   -0.021509   -2.913879
     21          1           0       -2.717065   -0.388061   -1.803279
     22          1           0       -1.806913   -1.900513   -1.846750
     23          1           0       -2.887749   -1.555032    0.374567
     24          1           0       -1.117065   -1.632550    0.503073
     25          1           0       -2.528346   -0.286016    2.601435
     26          1           0       -0.762232   -0.248233    2.322189
     27          1           0       -1.689603    1.279089    2.415118
 ---------------------------------------------------------------------

 SCF Done:  E(UB3LYP) =  -859.491060857     A.U. after   30 cycles

 The electronic state is 2-A.
 Alpha  occ. eigenvalues --  -88.68332 -19.02974 -14.24423 -14.23976 -10.18122
 Alpha  occ. eigenvalues --  -10.11732 -10.11420 -10.11168 -10.10896 -10.07684
 Alpha  occ. eigenvalues --  -10.06071  -7.77107  -5.73529  -5.72921  -5.72648
 Alpha  occ. eigenvalues --   -0.94227  -0.88472  -0.81425  -0.69755  -0.67015
 Alpha  occ. eigenvalues --   -0.62277  -0.59382  -0.55885  -0.53171  -0.51393
 Alpha  occ. eigenvalues --   -0.49812  -0.41787  -0.40134  -0.39512  -0.38789
 Alpha  occ. eigenvalues --   -0.38096  -0.36187  -0.34367  -0.33870  -0.32347
 Alpha  occ. eigenvalues --   -0.31241  -0.28929  -0.28257  -0.27166  -0.26258
 Alpha  occ. eigenvalues --   -0.25803  -0.25558  -0.24884  -0.22447  -0.16900
 Alpha  occ. eigenvalues --   -0.15824  -0.11980  -0.10669   0.04307
 Alpha virt. eigenvalues --    0.06386   0.06961   0.08124   0.08411   0.08842
 Alpha virt. eigenvalues --    0.09121   0.09710   0.11143   0.11595   0.11824
 Alpha virt. eigenvalues --    0.12175   0.12805   0.13384   0.13970   0.14656

  Beta  occ. eigenvalues --  -88.68329 -19.02966 -14.24417 -14.23960 -10.18076
  Beta  occ. eigenvalues --  -10.11721 -10.11403 -10.11139 -10.10871 -10.07658
  Beta  occ. eigenvalues --  -10.06026  -7.77105  -5.73527  -5.72914  -5.72646
  Beta  occ. eigenvalues --   -0.94216  -0.88421  -0.81391  -0.69701  -0.66964
  Beta  occ. eigenvalues --   -0.62231  -0.59336  -0.55833  -0.53088  -0.51336
  Beta  occ. eigenvalues --   -0.49757  -0.41749  -0.40085  -0.39460  -0.38740
  Beta  occ. eigenvalues --   -0.38057  -0.36149  -0.34311  -0.33832  -0.32275
  Beta  occ. eigenvalues --   -0.31203  -0.28877  -0.28206  -0.27129  -0.26189
  Beta  occ. eigenvalues --   -0.25732  -0.25505  -0.24832  -0.22398  -0.16885
  Beta  occ. eigenvalues --   -0.15791  -0.11948  -0.10645
  Beta virt. eigenvalues --    0.06659   0.07447   0.07720   0.08497   0.08892
  Beta virt. eigenvalues --    0.09535   0.09731   0.10341   0.11421   0.12008
  Beta virt. eigenvalues --    0.12190   0.12581   0.13142   0.13633   0.14239

 Mulliken charges and spin densities:
               1          2
     1  C    1.204098  -1.664336
     2  C   -0.291686   0.035472
     3  N   -0.028723  -0.034148
     4  C    0.148625  -0.141284
     5  S   -0.711025  -0.040161
     6  N    0.032877  -0.019874
     7  C   -0.575215   0.457773
     8  C    1.437298  -1.991968
     9  C   -0.314688   0.137665
    10  O   -0.055231   0.004526
    11  C    0.225276  -0.514488
    12  H   -0.137124   0.308892
    13  H   -0.504101   0.650126
    14  H   -0.151102   0.306983
    15  H   -0.162606   0.333765
    16  H   -0.712061   0.897269
    17  H    0.233410   0.052558
    18  H    0.198818   0.045049
    19  H    0.598660  -0.475833
    20  H   -0.869628   1.081614
    21  H   -0.312368   0.503923
    22  H   -0.122098   0.277730
    23  H   -0.182259   0.340485
    24  H    0.162088  -0.054341
    25  H   -0.021492   0.140160
    26  H   -0.014738   0.155806
    27  H   -0.075003   0.206638
 Sum of Mulliken charges =  -1.00000   1.00000

 Dipole moment (field-independent basis, Debye):
    X=             -1.1722    Y=             -3.0252    Z=              2.3673  Tot=              4.0162
 Quadrupole moment (field-independent basis, Debye-Ang):
   XX=           -124.6635   YY=           -133.2101   ZZ=           -119.6062
   XY=             -2.6786   XZ=             -7.0582   YZ=              3.6573

 Summary of Natural Population Analysis:

                                       Natural Population
                Natural  -----------------------------------------------
    Atom  No    Charge         Core      Valence    Rydberg      Total
 -----------------------------------------------------------------------
      C    1   -0.29172      0.99966     2.28618    0.00588     3.29172
      C    2   -0.08988      0.99962     2.07923    0.01104     3.08988
      N    3   -0.31143      0.99963     2.79782    0.01399     3.81143
      C    4    0.16721      0.99964     1.80964    0.02352     2.83279
      S    5   -0.16925      4.99958     3.15748    0.01219     8.16925
      N    6   -0.32316      0.99965     2.81096    0.01255     3.82316
      C    7   -0.09134      0.99959     2.07921    0.01254     3.09134
      C    8   -0.20143      0.99962     2.19238    0.00943     3.20143
      C    9   -0.01664      0.99958     2.00398    0.01307     3.01664
      O   10   -0.30285      0.99988     3.29324    0.00973     4.30285
      C   11   -0.09767      0.99962     2.08982    0.00823     3.09767
      H   12    0.10556      0.00000     0.39242    0.00202     0.39444
      H   13    0.10253      0.00000     0.39558    0.00190     0.39747
      H   14    0.09858      0.00000     0.39967    0.00175     0.40142
      H   15    0.10076      0.00000     0.39736    0.00188     0.39924
      H   16    0.09766      0.00000     0.40019    0.00214     0.40234
      H   17    0.19883      0.00000     0.29910    0.00207     0.30117
      H   18    0.19403      0.00000     0.30376    0.00221     0.30597
      H   19    0.10550      0.00000     0.39149    0.00301     0.39450
      H   20    0.09990      0.00000     0.39784    0.00226     0.40010
      H   21    0.10446      0.00000     0.39370    0.00184     0.39554
      H   22    0.09846      0.00000     0.40026    0.00129     0.40154
      H   23    0.08043      0.00000     0.41836    0.00121     0.41957
      H   24    0.09025      0.00000     0.40799    0.00176     0.40975
      H   25    0.07495      0.00000     0.42367    0.00138     0.42505
      H   26    0.08603      0.00000     0.41260    0.00137     0.41397
      H   27    0.09024      0.00000     0.40861    0.00115     0.40976
 =======================================================================
   * Total *   -0.00000     14.99606    32.84255    0.16140    48.00000

 Normal termination of Gaussian 16 at Tue Dec  8 21:38:41 2020.
