 Gaussian 16, Revision A.03,

 -----------------------------------------------------------
 # opt freq B3LYP/6-31G(d) empiricaldispersion=gd3bj scf=xqc
 -----------------------------------------------------------

 -------------------------------
 CID_130004900_JID_1288_neutraal
 -------------------------------
 Symbolic Z-matrix:
 Charge =  0 Multiplicity = 1

 SCF Done:  E(RB3LYP) =  -535.171606931     A.U. after   14 cycles
 SCF Done:  E(RB3LYP) =  -535.177517686     A.U. after   12 cycles
 SCF Done:  E(RB3LYP) =  -535.178043211     A.U. after   11 cycles
 SCF Done:  E(RB3LYP) =  -535.178329021     A.U. after   11 cycles
 SCF Done:  E(RB3LYP) =  -535.178550683     A.U. after   10 cycles
 SCF Done:  E(RB3LYP) =  -535.178700684     A.U. after   10 cycles
 SCF Done:  E(RB3LYP) =  -535.178818640     A.U. after   11 cycles
 SCF Done:  E(RB3LYP) =  -535.178870240     A.U. after   10 cycles
 SCF Done:  E(RB3LYP) =  -535.178887887     A.U. after    9 cycles
 SCF Done:  E(RB3LYP) =  -535.178900974     A.U. after    9 cycles
 SCF Done:  E(RB3LYP) =  -535.178906775     A.U. after    8 cycles
 SCF Done:  E(RB3LYP) =  -535.178908461     A.U. after    8 cycles
 SCF Done:  E(RB3LYP) =  -535.178909323     A.U. after    8 cycles
 SCF Done:  E(RB3LYP) =  -535.178909581     A.U. after    7 cycles
 SCF Done:  E(RB3LYP) =  -535.178909731     A.U. after    7 cycles
 SCF Done:  E(RB3LYP) =  -535.178909762     A.U. after    6 cycles
 Optimization completed.
    -- Stationary point found.
 Normal termination of Gaussian 16 at Tue Dec  8 19:39:20 2020.

 --------------------------------------------------------------------
 #N Geom=AllCheck Guess=TCheck SCRF=Check GenChk RB3LYP/6-31G(d) Freq
 --------------------------------------------------------------------

 Structure from the checkpoint file:  "JID_1288.chk"
 -------------------------------
 CID_130004900_JID_1288_neutraal
 -------------------------------
 Charge =  0 Multiplicity = 1

 SCF Done:  E(RB3LYP) =  -535.178909762     A.U. after    1 cycles

  Exact polarizability: 100.164   0.984  92.782  -1.700  -0.413  74.748
 Approx polarizability: 129.994  -4.484 137.510  -8.726   0.903 108.784

                      1                      2                      3
                      A                      A                      A
 Frequencies --     53.1963               100.8554               113.3031
 Red. masses --      3.4142                 2.9385                 1.4699
 Frc consts  --      0.0057                 0.0176                 0.0111
 IR Inten    --      1.1658                 0.7147                 1.0205

                      4                      5                      6
                      A                      A                      A
 Frequencies --    125.5922               169.3557               219.8614
 Red. masses --      2.9958                 2.0723                 2.6264
 Frc consts  --      0.0278                 0.0350                 0.0748
 IR Inten    --      0.2386                 5.1652                 3.9796

                      7                      8                      9
                      A                      A                      A
 Frequencies --    241.6255               252.2884               279.7694
 Red. masses --      1.5188                 1.2536                 2.8497
 Frc consts  --      0.0522                 0.0470                 0.1314
 IR Inten    --      0.1302                 0.0866                 2.5355

                     10                     11                     12
                      A                      A                      A
 Frequencies --    322.7038               345.8585               394.2289
 Red. masses --      3.0835                 2.2476                 3.6083
 Frc consts  --      0.1892                 0.1584                 0.3304
 IR Inten    --      4.7403                 3.1943                 1.1944

                     13                     14                     15
                      A                      A                      A
 Frequencies --    465.2744               513.3896               520.6233
 Red. masses --      3.0107                 3.1120                 3.9476
 Frc consts  --      0.3840                 0.4833                 0.6304
 IR Inten    --      4.1425                18.1998                 5.2509

                     16                     17                     18
                      A                      A                      A
 Frequencies --    527.4567               554.3381               631.0385
 Red. masses --      4.2642                 1.4000                 1.2196
 Frc consts  --      0.6990                 0.2535                 0.2861
 IR Inten    --      8.7632               100.7571               106.4517

                     19                     20                     21
                      A                      A                      A
 Frequencies --    669.4975               759.5313               801.9233
 Red. masses --      3.5781                 9.3001                 3.0637
 Frc consts  --      0.9449                 3.1610                 1.1608
 IR Inten    --      4.2756                48.1829                 3.0617

                     22                     23                     24
                      A                      A                      A
 Frequencies --    828.7590               869.5265               929.8437
 Red. masses --      2.3340                 2.7437                 3.1347
 Frc consts  --      0.9445                 1.2222                 1.5968
 IR Inten    --      4.8462                 6.5221                 7.1774

                     25                     26                     27
                      A                      A                      A
 Frequencies --    964.4161               991.6273              1037.9593
 Red. masses --      2.8428                 1.8734                 1.9667
 Frc consts  --      1.5578                 1.0853                 1.2484
 IR Inten    --     22.5673                 0.9669                13.4890

                     28                     29                     30
                      A                      A                      A
 Frequencies --   1049.6093              1065.0519              1108.9582
 Red. masses --      1.8412                 1.6469                 2.5049
 Frc consts  --      1.1951                 1.1007                 1.8150
 IR Inten    --     31.1153                18.5326                24.3279

                     31                     32                     33
                      A                      A                      A
 Frequencies --   1125.4125              1167.0750              1181.1017
 Red. masses --      2.3709                 2.5223                 1.5266
 Frc consts  --      1.7693                 2.0242                 1.2548
 IR Inten    --     67.3887               103.9502                34.2487

                     34                     35                     36
                      A                      A                      A
 Frequencies --   1188.2064              1221.1935              1230.2419
 Red. masses --      1.4226                 2.1798                 1.6433
 Frc consts  --      1.1833                 1.9153                 1.4654
 IR Inten    --     13.1610                18.7921                34.5379

                     37                     38                     39
                      A                      A                      A
 Frequencies --   1272.2019              1339.7453              1362.0100
 Red. masses --      2.1628                 1.3592                 1.4611
 Frc consts  --      2.0625                 1.4374                 1.5969
 IR Inten    --     45.0985                35.7956                52.4960

                     40                     41                     42
                      A                      A                      A
 Frequencies --   1377.9682              1409.6549              1426.9974
 Red. masses --      1.6350                 1.3150                 1.3022
 Frc consts  --      1.8291                 1.5396                 1.5623
 IR Inten    --     26.3680                22.5915                 6.8702

                     43                     44                     45
                      A                      A                      A
 Frequencies --   1440.1965              1441.4339              1456.3760
 Red. masses --      1.2640                 1.2556                 1.3459
 Frc consts  --      1.5447                 1.5370                 1.6819
 IR Inten    --     11.0662                 2.6789                 1.1679

                     46                     47                     48
                      A                      A                      A
 Frequencies --   1472.5479              1489.8179              1495.3137
 Red. masses --      1.5053                 2.2103                 1.1907
 Frc consts  --      1.9232                 2.8904                 1.5686
 IR Inten    --      1.9489               200.3861                 9.3018

                     49                     50                     51
                      A                      A                      A
 Frequencies --   1521.8974              1525.5357              1527.8135
 Red. masses --      1.0602                 1.0749                 1.0920
 Frc consts  --      1.4467                 1.4739                 1.5019
 IR Inten    --      1.4651                 1.2851                42.3535

                     52                     53                     54
                      A                      A                      A
 Frequencies --   1532.1888              1540.2756              1553.2704
 Red. masses --      1.0591                 1.0582                 1.0503
 Frc consts  --      1.4649                 1.4792                 1.4931
 IR Inten    --      1.4399                 4.8134                 5.1331

                     55                     56                     57
                      A                      A                      A
 Frequencies --   1816.9423              3030.9518              3048.8288
 Red. masses --      7.2285                 1.0836                 1.0317
 Frc consts  --     14.0598                 5.8649                 5.6501
 IR Inten    --    522.4575                49.7801                45.0035

                     58                     59                     60
                      A                      A                      A
 Frequencies --   3051.2610              3053.6478              3065.9064
 Red. masses --      1.0379                 1.0836                 1.0454
 Frc consts  --      5.6936                 5.9531                 5.7896
 IR Inten    --     15.7334                18.2833                36.6596

                     61                     62                     63
                      A                      A                      A
 Frequencies --   3072.6870              3112.3535              3118.3088
 Red. masses --      1.0812                 1.1040                 1.1025
 Frc consts  --      6.0143                 6.3009                 6.3166
 IR Inten    --     28.5987                45.8565                26.6218

                     64                     65                     66
                      A                      A                      A
 Frequencies --   3130.1558              3131.6270              3134.8405
 Red. masses --      1.1002                 1.0986                 1.1046
 Frc consts  --      6.3512                 6.3481                 6.3955
 IR Inten    --      8.6952                56.5450                14.4627

                     67                     68                     69
                      A                      A                      A
 Frequencies --   3160.8913              3607.1329              3611.6293
 Red. masses --      1.1030                 1.0758                 1.0767
 Frc consts  --      6.4931                 8.2470                 8.2745
 IR Inten    --     26.3911                34.6697                18.3356

 - Thermochemistry -
 -------------------
 Temperature   298.150 Kelvin.  Pressure   1.00000 Atm.
 Atom     1 has atomic number  6 and mass  12.00000

 Molecular mass:   158.10553 amu.
 Principal axes and moments of inertia in atomic units:
                           1         2         3
     Eigenvalues --  1250.376831839.238522359.77400
           X            0.99584   0.08413   0.03500
           Y           -0.08367   0.99639  -0.01430
           Z           -0.03608   0.01131   0.99928
 This molecule is an asymmetric top.
 Rotational symmetry number  1.
 Warning -- assumption of classical behavior for rotation
           may cause significant error
 Rotational temperatures (Kelvin)      0.06927     0.04709     0.03670
 Rotational constants (GHZ):           1.44336     0.98124     0.76479
 Zero-point vibrational energy     576319.5 (Joules/Mol)
                                  137.74368 (Kcal/Mol)
 Warning -- explicit consideration of  17 degrees of freedom as
           vibrations may cause significant error
 Vibrational temperatures:     76.54   145.11   163.02   180.70   243.67
          (Kelvin)            316.33   347.65   362.99   402.53   464.30
                              497.61   567.21   669.43   738.65   749.06
                              758.89   797.57   907.92   963.26  1092.80
                             1153.79  1192.40  1251.05  1337.84  1387.58
                             1426.73  1493.39  1510.15  1532.37  1595.54
                             1619.22  1679.16  1699.34  1709.56  1757.03
                             1770.04  1830.41  1927.59  1959.63  1982.59
                             2028.18  2053.13  2072.12  2073.90  2095.40
                             2118.67  2143.52  2151.42  2189.67  2194.91
                             2198.18  2204.48  2216.11  2234.81  2614.17
                             4360.86  4386.58  4390.08  4393.52  4411.16
                             4420.91  4477.98  4486.55  4503.60  4505.71
                             4510.34  4547.82  5189.86  5196.33

 Zero-point correction=                           0.219509 (Hartree/Particle)
 Thermal correction to Energy=                    0.231040
 Thermal correction to Enthalpy=                  0.231984
 Thermal correction to Gibbs Free Energy=         0.182462
 Sum of electronic and zero-point Energies=           -534.959401
 Sum of electronic and thermal Energies=              -534.947870
 Sum of electronic and thermal Enthalpies=            -534.946925
 Sum of electronic and thermal Free Energies=         -534.996448

                     E (Thermal)             CV                S
                      KCal/Mol        Cal/Mol-Kelvin    Cal/Mol-Kelvin
 Total                  144.980             43.291            104.229
 Electronic               0.000              0.000              0.000
 Translational            0.889              2.981             41.083
 Rotational               0.889              2.981             30.074
 Vibrational            143.202             37.330             33.071
 Vibration     1          0.596              1.976              4.695
 Vibration     2          0.604              1.948              3.438
 Vibration     3          0.607              1.938              3.212
 Vibration     4          0.611              1.927              3.012
 Vibration     5          0.625              1.880              2.443
 Vibration     6          0.647              1.811              1.960
 Vibration     7          0.658              1.777              1.791
 Vibration     8          0.664              1.759              1.715
 Vibration     9          0.680              1.711              1.535
 Vibration    10          0.708              1.630              1.296
 Vibration    11          0.724              1.584              1.185
 Vibration    12          0.761              1.483              0.984
 Vibration    13          0.823              1.327              0.751
 Vibration    14          0.868              1.220              0.625
 Vibration    15          0.876              1.204              0.609
 Vibration    16          0.882              1.189              0.593
 Vibration    17          0.910              1.130              0.535

 Optimization completed.
    -- Stationary point found.
 Normal termination of Gaussian 16 at Tue Dec  8 19:44:51 2020.

 ----------------------------------------------------------------------
 # B3LYP/6-311++G(d,p) empiricaldispersion=gd3bj scf=xqc pop=npa geom=c
 heck
 ----------------------------------------------------------------------

 ---------------------------------------
 CID_130004900_JID_1288_Energie_neutraal
 ---------------------------------------
 Structure from the checkpoint file:  "JID_1288.chk"
 Charge =  0 Multiplicity = 1

 SCF Done:  E(RB3LYP) =  -535.342939456     A.U. after   13 cycles
 Normal termination of Gaussian 16 at Tue Dec  8 19:46:41 2020.

 ----------------------------------------------------------------------
 # B3LYP/6-311++G(d,p) empiricaldispersion=gd3bj scf=xqc pop=npa geom=c
 heck
 ----------------------------------------------------------------------

 -------------------------------------
 CID_130004900_JID_1288_Energie_kation
 -------------------------------------
 Structure from the checkpoint file:  "JID_1288.chk"
 Charge =  1 Multiplicity = 2

 SCF Done:  E(UB3LYP) =  -535.013759504     A.U. after   26 cycles
 Normal termination of Gaussian 16 at Tue Dec  8 19:51:44 2020.
 Gaussian 16:  ES64L-G16RevA.03 25-Dec-2016

 ----------------------------------------------------------------------
 # B3LYP/6-311++G(d,p) empiricaldispersion=gd3bj scf=xqc pop=npa geom=c
 heck
 ----------------------------------------------------------------------

 ------------------------------------
 CID_130004900_JID_1288_Energie_anion
 ------------------------------------
 Structure from the checkpoint file:  "JID_1288.chk"
 Charge = -1 Multiplicity = 2

                         Standard orientation:
 ---------------------------------------------------------------------
 Center     Atomic      Atomic             Coordinates (Angstroms)
 Number     Number       Type             X           Y           Z
 ---------------------------------------------------------------------
      1          6           0        0.797791   -1.275077    1.544369
      2          6           0        0.188970   -1.266115    0.137545
      3          6           0       -1.343293   -1.101202    0.207404
      4          7           0       -1.624284    0.243904    0.711716
      5          6           0       -1.001358    1.360102    0.188543
      6          8           0       -1.457527    2.490954    0.297075
      7          7           0        0.216356    1.116884   -0.428890
      8          6           0        0.755025   -0.179535   -0.800393
      9          8           0        2.166478   -0.129003   -0.912687
     10          6           0        2.928771    0.503875    0.111986
     11          6           0       -2.066477   -1.389214   -1.116329
     12          1           0        0.254027   -1.984112    2.178670
     13          1           0        0.737267   -0.292207    2.018447
     14          1           0        1.842830   -1.590378    1.519016
     15          1           0        0.403470   -2.228092   -0.341761
     16          1           0       -1.713624   -1.806204    0.960956
     17          1           0       -2.568547    0.447747    1.012149
     18          1           0        0.545740    1.912962   -0.960159
     19          1           0        0.461173   -0.436886   -1.826203
     20          1           0        2.349661    1.271946    0.633532
     21          1           0        3.302349   -0.220021    0.844630
     22          1           0        3.784374    0.972897   -0.382921
     23          1           0       -1.837333   -2.398854   -1.476541
     24          1           0       -3.151093   -1.315472   -0.980754
     25          1           0       -1.782980   -0.671453   -1.892694
 ---------------------------------------------------------------------

 SCF Done:  E(UB3LYP) =  -535.331177989     A.U. after   29 cycles

 The electronic state is 2-A.
 Alpha  occ. eigenvalues --  -19.03362 -18.97788 -14.23113 -14.22344 -10.19268
 Alpha  occ. eigenvalues --  -10.16231 -10.11399 -10.11162 -10.08066 -10.05879
 Alpha  occ. eigenvalues --  -10.05771  -0.95443  -0.93970  -0.83881  -0.79679
 Alpha  occ. eigenvalues --   -0.70220  -0.63517  -0.62653  -0.55529  -0.53615
 Alpha  occ. eigenvalues --   -0.53082  -0.45971  -0.42873  -0.40994  -0.40343
 Alpha  occ. eigenvalues --   -0.38039  -0.35713  -0.34229  -0.33626  -0.32538
 Alpha  occ. eigenvalues --   -0.31623  -0.30709  -0.30189  -0.29010  -0.27484
 Alpha  occ. eigenvalues --   -0.25867  -0.24603  -0.23939  -0.22920  -0.17597
 Alpha  occ. eigenvalues --   -0.16802  -0.15679  -0.14930   0.04474
 Alpha virt. eigenvalues --    0.06645   0.07730   0.08332   0.09451   0.09631
 Alpha virt. eigenvalues --    0.10495   0.11010   0.11413   0.12326   0.13242
 Alpha virt. eigenvalues --    0.13361   0.13937   0.14715   0.15409   0.15652

  Beta  occ. eigenvalues --  -19.03357 -18.97784 -14.23097 -14.22324 -10.19269
  Beta  occ. eigenvalues --  -10.16219 -10.11371 -10.11137 -10.08053 -10.05829
  Beta  occ. eigenvalues --  -10.05742  -0.95429  -0.93959  -0.83856  -0.79641
  Beta  occ. eigenvalues --   -0.70177  -0.63457  -0.62609  -0.55466  -0.53538
  Beta  occ. eigenvalues --   -0.53037  -0.45913  -0.42832  -0.40957  -0.40307
  Beta  occ. eigenvalues --   -0.37984  -0.35668  -0.34190  -0.33596  -0.32503
  Beta  occ. eigenvalues --   -0.31588  -0.30668  -0.30154  -0.28961  -0.27436
  Beta  occ. eigenvalues --   -0.25814  -0.24557  -0.23889  -0.22893  -0.17576
  Beta  occ. eigenvalues --   -0.16789  -0.15658  -0.14902
  Beta virt. eigenvalues --    0.06801   0.07795   0.08479   0.09255   0.09966
  Beta virt. eigenvalues --    0.10229   0.11071   0.11574   0.11847   0.12973
  Beta virt. eigenvalues --    0.13568   0.13665   0.14162   0.14979   0.15691

 Mulliken charges and spin densities:
               1          2
     1  C    0.718875  -1.320842
     2  C    0.124324   0.285046
     3  C   -0.898383   0.943074
     4  N   -0.183922  -0.094455
     5  C    0.416033  -0.255608
     6  O   -0.409284   0.024756
     7  N   -0.410298   0.079595
     8  C    0.095768  -0.873919
     9  O   -0.131961   0.046094
    10  C    0.415441  -0.654545
    11  C    1.912207  -2.532082
    12  H   -0.207786   0.362716
    13  H    0.041927   0.143371
    14  H   -0.153901   0.261978
    15  H   -0.312580   0.570839
    16  H   -1.153360   1.384110
    17  H    0.143668   0.187230
    18  H    0.213132   0.106815
    19  H   -0.082954   0.293402
    20  H    0.100078   0.055762
    21  H   -0.093754   0.233551
    22  H   -0.277832   0.434103
    23  H   -0.285268   0.436867
    24  H   -0.440822   0.590847
    25  H   -0.139352   0.291295
 Sum of Mulliken charges =  -1.00000   1.00000

 Dipole moment (field-independent basis, Debye):
    X=              3.0709    Y=              3.3399    Z=             -0.5806  Tot=              4.5741
 Quadrupole moment (field-independent basis, Debye-Ang):
   XX=           -120.4894   YY=           -121.9160   ZZ=            -99.6181
   XY=             -3.7212   XZ=              2.9574   YZ=              0.6171

 Summary of Natural Population Analysis:

                                       Natural Population
                Natural  -----------------------------------------------
    Atom  No    Charge         Core      Valence    Rydberg      Total
 -----------------------------------------------------------------------
      C    1   -0.28881      0.99964     2.28149    0.00767     3.28881
      C    2   -0.12656      0.99956     2.11345    0.01355     3.12656
      C    3   -0.01043      0.99958     1.99630    0.01455     3.01043
      N    4   -0.33300      0.99967     2.82255    0.01078     3.83300
      C    5    0.40883      0.99969     1.56907    0.02242     2.59117
      O    6   -0.34198      0.99988     3.33653    0.00558     4.34198
      N    7   -0.34720      0.99966     2.83822    0.00932     3.84720
      C    8    0.16799      0.99952     1.81527    0.01721     2.83201
      O    9   -0.30295      0.99988     3.29325    0.00982     4.30295
      C   10   -0.10219      0.99959     2.09469    0.00791     3.10219
      C   11   -0.28977      0.99964     2.28399    0.00613     3.28977
      H   12    0.10478      0.00000     0.39388    0.00134     0.39522
      H   13    0.10155      0.00000     0.39682    0.00163     0.39845
      H   14    0.10052      0.00000     0.39833    0.00115     0.39948
      H   15    0.10956      0.00000     0.38824    0.00220     0.39044
      H   16    0.10375      0.00000     0.39118    0.00507     0.39625
      H   17    0.19800      0.00000     0.29980    0.00220     0.30200
      H   18    0.19737      0.00000     0.30051    0.00212     0.30263
      H   19    0.08782      0.00000     0.41013    0.00205     0.41218
      H   20    0.08889      0.00000     0.40960    0.00151     0.41111
      H   21    0.08121      0.00000     0.41720    0.00159     0.41879
      H   22    0.08643      0.00000     0.41211    0.00146     0.41357
      H   23    0.10543      0.00000     0.39251    0.00207     0.39457
      H   24    0.10379      0.00000     0.39450    0.00171     0.39621
      H   25    0.09697      0.00000     0.40167    0.00136     0.40303
 =======================================================================
   * Total *   -0.00000     10.99631    31.85129    0.15240    43.00000

 Normal termination of Gaussian 16 at Tue Dec  8 19:57:07 2020.
