 Gaussian 16, Revision A.03,

 -----------------------------------------------------------
 # opt freq B3LYP/6-31G(d) empiricaldispersion=gd3bj scf=xqc
 -----------------------------------------------------------

 ------------------------------
 CID_66164542_JID_8962_neutraal
 ------------------------------
 Symbolic Z-matrix:
 Charge =  0 Multiplicity = 1

 SCF Done:  E(RB3LYP) =  -780.665861075     A.U. after   14 cycles
 SCF Done:  E(RB3LYP) =  -780.671509613     A.U. after   12 cycles
 SCF Done:  E(RB3LYP) =  -780.673466521     A.U. after   12 cycles
 SCF Done:  E(RB3LYP) =  -780.675299258     A.U. after   13 cycles
 SCF Done:  E(RB3LYP) =  -780.675996429     A.U. after   12 cycles
 SCF Done:  E(RB3LYP) =  -780.676325160     A.U. after   11 cycles
 SCF Done:  E(RB3LYP) =  -780.676423166     A.U. after   11 cycles
 SCF Done:  E(RB3LYP) =  -780.676468930     A.U. after   10 cycles
 SCF Done:  E(RB3LYP) =  -780.676498616     A.U. after   11 cycles
 SCF Done:  E(RB3LYP) =  -780.676503774     A.U. after    9 cycles
 SCF Done:  E(RB3LYP) =  -780.676507199     A.U. after    8 cycles
 SCF Done:  E(RB3LYP) =  -780.676507766     A.U. after    8 cycles
 SCF Done:  E(RB3LYP) =  -780.676508013     A.U. after    8 cycles
 SCF Done:  E(RB3LYP) =  -780.676508054     A.U. after    7 cycles
 SCF Done:  E(RB3LYP) =  -780.676508071     A.U. after    6 cycles
 Optimization completed.
    -- Stationary point found.
 Normal termination of Gaussian 16 at Fri Dec 11 23:11:41 2020.

 --------------------------------------------------------------------
 #N Geom=AllCheck Guess=TCheck SCRF=Check GenChk RB3LYP/6-31G(d) Freq
 --------------------------------------------------------------------

 Structure from the checkpoint file:  "JID_8962.chk"
 ------------------------------
 CID_66164542_JID_8962_neutraal
 ------------------------------
 Charge =  0 Multiplicity = 1

 SCF Done:  E(RB3LYP) =  -780.676508071     A.U. after    1 cycles

  Exact polarizability: 244.447   2.978 185.015   5.480  -5.445  97.354
 Approx polarizability: 354.688  -0.517 283.465  13.128 -13.673 145.442

                      1                      2                      3
                      A                      A                      A
 Frequencies --     18.4437                39.3717                39.6346
 Red. masses --      4.0481                 3.0391                 3.8485
 Frc consts  --      0.0008                 0.0028                 0.0036
 IR Inten    --      0.5324                 0.8852                 0.2506

                      4                      5                      6
                      A                      A                      A
 Frequencies --     72.8450                74.4969               108.8981
 Red. masses --      2.9092                 3.1294                 4.6112
 Frc consts  --      0.0091                 0.0102                 0.0322
 IR Inten    --      0.6603                 0.1255                 0.5436

                      7                      8                      9
                      A                      A                      A
 Frequencies --    131.7730               149.7379               150.5692
 Red. masses --      3.6721                 2.5670                 2.3839
 Frc consts  --      0.0376                 0.0339                 0.0318
 IR Inten    --      0.3551                 2.7115                 0.6542

                     10                     11                     12
                      A                      A                      A
 Frequencies --    203.2984               219.3984               228.8521
 Red. masses --      2.4198                 2.4319                 1.8875
 Frc consts  --      0.0589                 0.0690                 0.0582
 IR Inten    --      1.3337                 1.9625                 2.4353

                     13                     14                     15
                      A                      A                      A
 Frequencies --    248.4053               267.0161               278.8261
 Red. masses --      1.8125                 4.9265                 1.6534
 Frc consts  --      0.0659                 0.2069                 0.0757
 IR Inten    --      1.3257                 1.8095                 1.2868

                     16                     17                     18
                      A                      A                      A
 Frequencies --    288.9287               312.7738               339.3368
 Red. masses --      1.2280                 2.5837                 3.8511
 Frc consts  --      0.0604                 0.1489                 0.2613
 IR Inten    --      0.9069                 2.7184                 2.2575

                     19                     20                     21
                      A                      A                      A
 Frequencies --    386.0596               424.2331               436.2661
 Red. masses --      3.0634                 2.1101                 2.5337
 Frc consts  --      0.2690                 0.2237                 0.2841
 IR Inten    --      8.9770                26.3992                 5.4260

                     22                     23                     24
                      A                      A                      A
 Frequencies --    445.9119               473.9721               493.4187
 Red. masses --      2.0413                 2.5748                 2.7028
 Frc consts  --      0.2391                 0.3408                 0.3877
 IR Inten    --     32.8755                27.7009                14.6375

                     25                     26                     27
                      A                      A                      A
 Frequencies --    578.0799               639.2721               645.1533
 Red. masses --      4.2133                 3.8603                 4.5735
 Frc consts  --      0.8296                 0.9295                 1.1216
 IR Inten    --      3.3777                 1.3253                 1.8018

                     28                     29                     30
                      A                      A                      A
 Frequencies --    656.1613               672.0752               717.6672
 Red. masses --      3.6596                 3.2964                 3.8848
 Frc consts  --      0.9283                 0.8772                 1.1789
 IR Inten    --      9.4567                16.9528                 0.8670

                     31                     32                     33
                      A                      A                      A
 Frequencies --    748.1058               788.2827               796.5869
 Red. masses --      6.1895                 1.2745                 1.7109
 Frc consts  --      2.0410                 0.4666                 0.6397
 IR Inten    --      8.4758                 4.8158                 2.5609

                     34                     35                     36
                      A                      A                      A
 Frequencies --    807.1118               815.8718               882.1182
 Red. masses --      1.8142                 2.7662                 1.4737
 Frc consts  --      0.6963                 1.0849                 0.6757
 IR Inten    --      2.9410                43.0574                 5.5082

                     37                     38                     39
                      A                      A                      A
 Frequencies --    888.8518               896.5646               913.1152
 Red. masses --      2.5684                 2.6220                 4.2687
 Frc consts  --      1.1956                 1.2418                 2.0970
 IR Inten    --      0.5602                 0.4829                15.7693

                     40                     41                     42
                      A                      A                      A
 Frequencies --    936.0806               945.0163               948.0617
 Red. masses --      1.2449                 3.1912                 1.2110
 Frc consts  --      0.6427                 1.6791                 0.6413
 IR Inten    --      1.1323                 9.6863                 4.9003

                     43                     44                     45
                      A                      A                      A
 Frequencies --    969.8249               992.7357               999.3537
 Red. masses --      1.5030                 1.3752                 8.4448
 Frc consts  --      0.8329                 0.7985                 4.9691
 IR Inten    --      1.2901                 0.2975                 5.6749

                     46                     47                     48
                      A                      A                      A
 Frequencies --   1036.7209              1094.5325              1105.4350
 Red. masses --      1.8525                 2.8589                 2.1629
 Frc consts  --      1.1731                 2.0180                 1.5572
 IR Inten    --     16.6334                42.6571                 3.7875

                     49                     50                     51
                      A                      A                      A
 Frequencies --   1130.4562              1143.7728              1154.0847
 Red. masses --      1.5944                 1.9577                 1.8517
 Frc consts  --      1.2005                 1.5090                 1.4531
 IR Inten    --     10.0915                 5.9024                42.6791

                     52                     53                     54
                      A                      A                      A
 Frequencies --   1158.6197              1172.6662              1198.6219
 Red. masses --      1.7209                 1.9457                 2.4583
 Frc consts  --      1.3611                 1.5765                 2.0809
 IR Inten    --      5.3665                24.0534                44.0662

                     55                     56                     57
                      A                      A                      A
 Frequencies --   1208.2031              1258.6906              1262.9032
 Red. masses --      2.1790                 1.4670                 3.1135
 Frc consts  --      1.8741                 1.3693                 2.9258
 IR Inten    --      1.6804                25.4775                58.6312

                     58                     59                     60
                      A                      A                      A
 Frequencies --   1283.3920              1292.6823              1314.8107
 Red. masses --      1.4206                 2.7174                 2.8433
 Frc consts  --      1.3787                 2.6754                 2.8960
 IR Inten    --     11.3870                 9.7945                19.7352

                     61                     62                     63
                      A                      A                      A
 Frequencies --   1325.4837              1349.4821              1369.3234
 Red. masses --      1.3270                 2.1666                 1.9111
 Frc consts  --      1.3736                 2.3246                 2.1113
 IR Inten    --     10.2142                 0.4647               115.7966

                     64                     65                     66
                      A                      A                      A
 Frequencies --   1373.1351              1396.4083              1398.9945
 Red. masses --      1.7612                 1.6513                 1.9485
 Frc consts  --      1.9565                 1.8972                 2.2469
 IR Inten    --     18.2151                25.2487                24.1711

                     67                     68                     69
                      A                      A                      A
 Frequencies --   1411.9735              1426.6627              1432.4786
 Red. masses --      2.7851                 1.2896                 1.9912
 Frc consts  --      3.2715                 1.5465                 2.4074
 IR Inten    --     80.0026                 9.0360                 8.9704

                     70                     71                     72
                      A                      A                      A
 Frequencies --   1439.2700              1448.7441              1453.0807
 Red. masses --      1.4150                 1.3264                 1.4067
 Frc consts  --      1.7270                 1.6402                 1.7500
 IR Inten    --      0.7786                27.0794                19.8376

                     73                     74                     75
                      A                      A                      A
 Frequencies --   1476.4989              1509.4761              1515.0163
 Red. masses --      3.2623                 1.8957                 1.0861
 Frc consts  --      4.1902                 2.5449                 1.4687
 IR Inten    --    251.3792                59.9280                 0.6297

                     76                     77                     78
                      A                      A                      A
 Frequencies --   1517.9271              1519.6059              1526.8447
 Red. masses --      1.1087                 1.1844                 1.0492
 Frc consts  --      1.5051                 1.6115                 1.4411
 IR Inten    --     12.0586                 3.6924                 4.9811

                     79                     80                     81
                      A                      A                      A
 Frequencies --   1536.2668              1536.8898              1542.6379
 Red. masses --      1.0684                 1.0722                 1.0726
 Frc consts  --      1.4856                 1.4921                 1.5038
 IR Inten    --     27.0333                15.6688                 2.6731

                     82                     83                     84
                      A                      A                      A
 Frequencies --   1550.0169              1562.8415              1606.5367
 Red. masses --      1.0991                 2.8174                 6.3159
 Frc consts  --      1.5558                 4.0544                 9.6043
 IR Inten    --     63.5057               172.6837               166.4534

                     85                     86                     87
                      A                      A                      A
 Frequencies --   1623.6272              1638.3241              2999.6232
 Red. masses --      5.3280                 5.2436                 1.0685
 Frc consts  --      8.2754                 8.2924                 5.6644
 IR Inten    --    162.0613               664.0826                51.7598

                     88                     89                     90
                      A                      A                      A
 Frequencies --   3032.7511              3052.6462              3054.1092
 Red. masses --      1.0697                 1.0366                 1.0414
 Frc consts  --      5.7966                 5.6915                 5.7232
 IR Inten    --     17.8205                16.8526                 9.9819

                     91                     92                     93
                      A                      A                      A
 Frequencies --   3058.1344              3059.0518              3083.8094
 Red. masses --      1.0860                 1.0364                 1.0966
 Frc consts  --      5.9840                 5.7143                 6.1441
 IR Inten    --     50.6127                22.3712                21.9809

                     94                     95                     96
                      A                      A                      A
 Frequencies --   3115.3975              3119.6156              3120.6903
 Red. masses --      1.0999                 1.1002                 1.1021
 Frc consts  --      6.2897                 6.3082                 6.3240
 IR Inten    --     19.3975                 6.3554                35.6297

                     97                     98                     99
                      A                      A                      A
 Frequencies --   3128.7886              3135.9526              3148.8478
 Red. masses --      1.1025                 1.1033                 1.0902
 Frc consts  --      6.3588                 6.3926                 6.3689
 IR Inten    --     50.0186                22.6081                23.8179

                    100                    101                    102
                      A                      A                      A
 Frequencies --   3154.5246              3167.4213              3238.8066
 Red. masses --      1.0993                 1.0904                 1.0928
 Frc consts  --      6.4453                 6.4456                 6.7542
 IR Inten    --     11.9327                38.2515                 9.5321

                    103                    104                    105
                      A                      A                      A
 Frequencies --   3284.1645              3287.0944              3604.5718
 Red. masses --      1.0933                 1.0987                 1.0759
 Frc consts  --      6.9479                 6.9943                 8.2360
 IR Inten    --      2.7423                 0.0680                20.8402

 - Thermochemistry -
 -------------------
 Temperature   298.150 Kelvin.  Pressure   1.00000 Atm.
 Atom     1 has atomic number  6 and mass  12.00000

 Molecular mass:   245.16405 amu.
 Principal axes and moments of inertia in atomic units:
                           1         2         3
     Eigenvalues --  2710.220267345.937269564.33467
           X            0.99998   0.00481  -0.00324
           Y           -0.00481   0.99999   0.00244
           Z            0.00325  -0.00242   0.99999
 This molecule is an asymmetric top.
 Rotational symmetry number  1.
 Warning -- assumption of classical behavior for rotation
           may cause significant error
 Rotational temperatures (Kelvin)      0.03196     0.01179     0.00906
 Rotational constants (GHZ):           0.66590     0.24568     0.18869
 Zero-point vibrational energy     832706.7 (Joules/Mol)
                                  199.02169 (Kcal/Mol)
 Warning -- explicit consideration of  25 degrees of freedom as
           vibrations may cause significant error
 Vibrational temperatures:     26.54    56.65    57.03   104.81   107.18
          (Kelvin)            156.68   189.59   215.44   216.64   292.50
                              315.67   329.27   357.40   384.18   401.17
                              415.70   450.01   488.23   555.45   610.38
                              627.69   641.57   681.94   709.92   831.73
                              919.77   928.23   944.07   966.97  1032.56
                             1076.36  1134.16  1146.11  1161.25  1173.86
                             1269.17  1278.86  1289.96  1313.77  1346.81
                             1359.67  1364.05  1395.36  1428.33  1437.85
                             1491.61  1574.79  1590.47  1626.47  1645.63
                             1660.47  1667.00  1687.21  1724.55  1738.33
                             1810.98  1817.04  1846.51  1859.88  1891.72
                             1907.08  1941.60  1970.15  1975.64  2009.12
                             2012.84  2031.51  2052.65  2061.02  2070.79
                             2084.42  2090.66  2124.35  2171.80  2179.77
                             2183.96  2186.37  2196.79  2210.35  2211.24
                             2219.51  2230.13  2248.58  2311.45  2336.04
                             2357.18  4315.79  4363.45  4392.08  4394.18
                             4399.97  4401.29  4436.91  4482.36  4488.43
                             4489.98  4501.63  4511.94  4530.49  4538.66
                             4557.21  4659.92  4725.18  4729.40  5186.17

 Zero-point correction=                           0.317161 (Hartree/Particle)
 Thermal correction to Energy=                    0.334817
 Thermal correction to Enthalpy=                  0.335762
 Thermal correction to Gibbs Free Energy=         0.269987
 Sum of electronic and zero-point Energies=           -780.359347
 Sum of electronic and thermal Energies=              -780.341691
 Sum of electronic and thermal Enthalpies=            -780.340746
 Sum of electronic and thermal Free Energies=         -780.406521

                     E (Thermal)             CV                S
                      KCal/Mol        Cal/Mol-Kelvin    Cal/Mol-Kelvin
 Total                  210.101             66.238            138.435
 Electronic               0.000              0.000              0.000
 Translational            0.889              2.981             42.391
 Rotational               0.889              2.981             33.609
 Vibrational            208.324             60.277             62.435
 Vibration     1          0.593              1.986              6.795
 Vibration     2          0.594              1.981              5.290
 Vibration     3          0.594              1.981              5.277
 Vibration     4          0.599              1.967              4.075
 Vibration     5          0.599              1.966              4.031
 Vibration     6          0.606              1.942              3.288
 Vibration     7          0.612              1.922              2.920
 Vibration     8          0.618              1.903              2.676
 Vibration     9          0.618              1.902              2.665
 Vibration    10          0.639              1.835              2.103
 Vibration    11          0.647              1.812              1.964
 Vibration    12          0.652              1.797              1.888
 Vibration    13          0.662              1.765              1.742
 Vibration    14          0.672              1.734              1.615
 Vibration    15          0.679              1.713              1.541
 Vibration    16          0.685              1.694              1.480
 Vibration    17          0.701              1.649              1.348
 Vibration    18          0.719              1.597              1.215
 Vibration    19          0.755              1.500              1.015
 Vibration    20          0.786              1.418              0.878
 Vibration    21          0.797              1.391              0.838
 Vibration    22          0.805              1.370              0.808
 Vibration    23          0.831              1.308              0.727
 Vibration    24          0.849              1.265              0.675
 Vibration    25          0.935              1.079              0.489

                           ! Non-Optimized Parameters !
 Normal termination of Gaussian 16 at Fri Dec 11 23:27:13 2020.

 ----------------------------------------------------------------------
 # B3LYP/6-311++G(d,p) empiricaldispersion=gd3bj scf=xqc pop=npa geom=c
 heck
 ----------------------------------------------------------------------

 --------------------------------------
 CID_66164542_JID_8962_Energie_neutraal
 --------------------------------------
 Structure from the checkpoint file:  "JID_8962.chk"
 Charge =  0 Multiplicity = 1

 SCF Done:  E(RB3LYP) =  -780.883302172     A.U. after   15 cycles
 Normal termination of Gaussian 16 at Fri Dec 11 23:34:16 2020.

 ----------------------------------------------------------------------
 # B3LYP/6-311++G(d,p) empiricaldispersion=gd3bj scf=xqc pop=npa geom=c
 heck
 ----------------------------------------------------------------------

 ------------------------------------
 CID_66164542_JID_8962_Energie_kation
 ------------------------------------
 Structure from the checkpoint file:  "JID_8962.chk"
 Charge =  1 Multiplicity = 2

 SCF Done:  E(UB3LYP) =  -780.607610904     A.U. after   22 cycles
 Normal termination of Gaussian 16 at Fri Dec 11 23:48:21 2020.
 Gaussian 16:  ES64L-G16RevA.03 25-Dec-2016

 ----------------------------------------------------------------------
 # B3LYP/6-311++G(d,p) empiricaldispersion=gd3bj scf=xqc pop=npa geom=c
 heck
 ----------------------------------------------------------------------

 -----------------------------------
 CID_66164542_JID_8962_Energie_anion
 -----------------------------------
 Structure from the checkpoint file:  "JID_8962.chk"
 Charge = -1 Multiplicity = 2

                         Standard orientation:
 ---------------------------------------------------------------------
 Center     Atomic      Atomic             Coordinates (Angstroms)
 Number     Number       Type             X           Y           Z
 ---------------------------------------------------------------------
      1          6           0        4.779408   -1.735740   -0.940028
      2          6           0        4.793397   -1.071662    0.439455
      3          6           0        3.948220    0.201313    0.510842
      4          7           0        2.547046   -0.099645    0.279532
      5          6           0        1.560493    0.832582    0.164843
      6          7           0        0.302157    0.350545    0.144646
      7          6           0       -0.700035    1.230150    0.000744
      8          7           0       -0.561396    2.568485   -0.121804
      9          6           0        0.693205    3.022882   -0.090167
     10          6           0        1.811725    2.213641    0.054116
     11          6           0       -2.075795    0.751487   -0.037504
     12          6           0       -3.224002    1.509411   -0.211858
     13          7           0       -4.341437    0.726347   -0.198117
     14          6           0       -3.888680   -0.504597   -0.016514
     15          7           0       -2.530735   -0.563456    0.096974
     16          6           0       -1.731081   -1.796301    0.232922
     17          6           0       -2.525003   -2.895198    0.940260
     18          6           0       -1.218835   -2.244249   -1.138222
     19          1           0        3.764543   -2.014759   -1.241792
     20          1           0        5.395345   -2.640971   -0.946409
     21          1           0        5.172849   -1.054614   -1.703584
     22          1           0        4.440358   -1.778385    1.204109
     23          1           0        5.820960   -0.810524    0.718637
     24          1           0        4.090420    0.694920    1.485302
     25          1           0        4.289639    0.905097   -0.259377
     26          1           0        2.215507   -1.029947    0.498367
     27          1           0        0.811476    4.101730   -0.182778
     28          1           0        2.811262    2.628284    0.081636
     29          1           0       -3.268715    2.580812   -0.340219
     30          1           0       -4.509165   -1.385791    0.048520
     31          1           0       -0.873418   -1.522793    0.846805
     32          1           0       -3.341974   -3.279242    0.319801
     33          1           0       -1.856102   -3.735099    1.153015
     34          1           0       -2.943075   -2.540196    1.887365
     35          1           0       -0.607644   -1.458990   -1.588984
     36          1           0       -0.603437   -3.145458   -1.035261
     37          1           0       -2.056372   -2.472318   -1.807102
 ---------------------------------------------------------------------

 SCF Done:  E(UB3LYP) =  -780.880789495     A.U. after   33 cycles
 SCF Done:  E(UB3LYP) =  -780.880789495     a.u. after    1 cycles

 The electronic state is 2-A.
 Alpha  occ. eigenvalues --  -14.25750 -14.22901 -14.18379 -14.18355 -14.18170
 Alpha  occ. eigenvalues --  -10.14336 -10.11977 -10.11931 -10.11399 -10.10916
 Alpha  occ. eigenvalues --  -10.09660 -10.08573 -10.08250 -10.08100 -10.06858
 Alpha  occ. eigenvalues --  -10.06570 -10.06487 -10.05692  -0.90750  -0.87750
 Alpha  occ. eigenvalues --   -0.83309  -0.78257  -0.75710  -0.69956  -0.68685
 Alpha  occ. eigenvalues --   -0.66873  -0.62669  -0.60316  -0.59967  -0.54877
 Alpha  occ. eigenvalues --   -0.53395  -0.52968  -0.50461  -0.48015  -0.45750
 Alpha  occ. eigenvalues --   -0.43445  -0.41253  -0.40204  -0.37708  -0.37423
 Alpha  occ. eigenvalues --   -0.36458  -0.35703  -0.34741  -0.34150  -0.33606
 Alpha  occ. eigenvalues --   -0.32661  -0.31873  -0.30988  -0.30822  -0.30141
 Alpha  occ. eigenvalues --   -0.29016  -0.28927  -0.27880  -0.27100  -0.26102
 Alpha  occ. eigenvalues --   -0.25817  -0.25607  -0.25250  -0.22667  -0.19240
 Alpha  occ. eigenvalues --   -0.18904  -0.16486  -0.16266  -0.13688  -0.12989
 Alpha  occ. eigenvalues --   -0.10617   0.03840
 Alpha virt. eigenvalues --    0.05428   0.06296   0.07354   0.07713   0.08238
 Alpha virt. eigenvalues --    0.08696   0.09158   0.09345   0.09867   0.10371
 Alpha virt. eigenvalues --    0.10719   0.11417   0.11528   0.11906   0.12084

  Beta  occ. eigenvalues --  -14.25672 -14.22895 -14.18427 -14.18411 -14.17992
  Beta  occ. eigenvalues --  -10.14361 -10.11935 -10.11760 -10.11388 -10.10828
  Beta  occ. eigenvalues --  -10.09558 -10.08597 -10.08222 -10.08090 -10.06828
  Beta  occ. eigenvalues --  -10.06550 -10.06377 -10.05582  -0.90644  -0.87590
  Beta  occ. eigenvalues --   -0.83223  -0.78199  -0.75526  -0.69823  -0.68651
  Beta  occ. eigenvalues --   -0.66699  -0.62509  -0.60280  -0.59913  -0.54580
  Beta  occ. eigenvalues --   -0.53329  -0.52877  -0.50349  -0.47915  -0.45626
  Beta  occ. eigenvalues --   -0.43374  -0.41191  -0.40136  -0.37649  -0.37343
  Beta  occ. eigenvalues --   -0.36390  -0.35564  -0.34610  -0.34083  -0.33460
  Beta  occ. eigenvalues --   -0.32591  -0.31672  -0.30932  -0.30619  -0.29997
  Beta  occ. eigenvalues --   -0.28941  -0.28819  -0.27831  -0.26973  -0.26041
  Beta  occ. eigenvalues --   -0.25780  -0.25568  -0.25206  -0.22443  -0.18795
  Beta  occ. eigenvalues --   -0.18390  -0.16500  -0.15948  -0.13610  -0.12577
  Beta  occ. eigenvalues --   -0.10139
  Beta virt. eigenvalues --    0.06091   0.06623   0.07478   0.07670   0.08005
  Beta virt. eigenvalues --    0.08461   0.08830   0.09302   0.09444   0.09975
  Beta virt. eigenvalues --    0.10547   0.10986   0.11416   0.11624   0.12029

 Mulliken charges and spin densities:
               1          2
     1  C    0.579563  -1.050399
     2  C   -0.359915  -0.038299
     3  C    0.306678  -0.331997
     4  N   -0.023806   0.026229
     5  C    0.025192  -0.175016
     6  N   -0.088504   0.062682
     7  C   -0.620192   0.031209
     8  N   -0.033547  -0.034461
     9  C   -0.163227   0.107223
    10  C    0.034448   0.229887
    11  C    0.616347  -0.041901
    12  C   -1.037735   0.052883
    13  N   -0.117274  -0.025148
    14  C    0.057152   0.030989
    15  N    0.193995   0.026823
    16  C   -0.470023   0.165398
    17  C   -0.222783  -0.268221
    18  C   -0.083221  -0.352808
    19  H   -0.068948   0.207928
    20  H   -0.358555   0.504981
    21  H   -0.003237   0.126329
    22  H   -0.330498   0.480517
    23  H   -0.365577   0.523589
    24  H   -0.044084   0.212668
    25  H    0.136056  -0.018747
    26  H    0.540744  -0.239393
    27  H    0.150502  -0.001461
    28  H    0.031013   0.093770
    29  H    0.146364  -0.004428
    30  H    0.123060   0.001634
    31  H    0.099934   0.148303
    32  H    0.108832   0.019899
    33  H   -0.090861   0.244084
    34  H    0.135352   0.025823
    35  H    0.167261   0.018594
    36  H   -0.096031   0.220577
    37  H    0.125526   0.020257
 Sum of Mulliken charges =  -1.00000   1.00000

 Dipole moment (field-independent basis, Debye):
    X=             -1.8907    Y=              0.5114    Z=             -0.1315  Tot=              1.9631
 Quadrupole moment (field-independent basis, Debye-Ang):
   XX=           -206.2767   YY=           -149.6716   ZZ=           -129.7001
   XY=             29.5302   XZ=             -4.3154   YZ=             -0.4804

 Summary of Natural Population Analysis:

                                       Natural Population
                Natural  -----------------------------------------------
    Atom  No    Charge         Core      Valence    Rydberg      Total
 -----------------------------------------------------------------------
      C    1   -0.28788      0.99967     2.28203    0.00618     3.28788
      C    2   -0.19328      0.99964     2.18522    0.00841     3.19328
      C    3   -0.08464      0.99962     2.07331    0.01171     3.08464
      N    4   -0.30820      0.99965     2.79903    0.00952     3.80820
      C    5    0.21763      0.99954     1.76825    0.01457     2.78237
      N    6   -0.26608      0.99965     2.75669    0.00975     3.76608
      C    7    0.23513      0.99956     1.74876    0.01655     2.76487
      N    8   -0.27400      0.99969     2.76535    0.00895     3.77400
      C    9    0.06407      0.99961     1.92201    0.01431     2.93593
      C   10   -0.16878      0.99952     2.16197    0.00729     3.16878
      C   11    0.02889      0.99949     1.95924    0.01238     2.97111
      C   12    0.01238      0.99955     1.97493    0.01314     2.98762
      N   13   -0.27050      0.99973     2.75983    0.01094     3.77050
      C   14    0.11457      0.99965     1.86788    0.01790     2.88543
      N   15   -0.19034      0.99962     2.68100    0.00972     3.69034
      C   16   -0.01265      0.99960     2.00246    0.01060     3.01265
      C   17   -0.29055      0.99965     2.28524    0.00566     3.29055
      C   18   -0.28731      0.99964     2.28168    0.00599     3.28731
      H   19    0.10071      0.00000     0.39803    0.00126     0.39929
      H   20    0.10122      0.00000     0.39747    0.00131     0.39878
      H   21    0.09489      0.00000     0.40422    0.00088     0.40511
      H   22    0.09620      0.00000     0.40179    0.00201     0.40380
      H   23    0.09982      0.00000     0.39882    0.00136     0.40018
      H   24    0.09018      0.00000     0.40854    0.00129     0.40982
      H   25    0.09131      0.00000     0.40714    0.00154     0.40869
      H   26    0.19191      0.00000     0.30502    0.00308     0.30809
      H   27    0.08184      0.00000     0.41695    0.00121     0.41816
      H   28    0.10211      0.00000     0.39687    0.00102     0.39789
      H   29    0.10039      0.00000     0.39865    0.00096     0.39961
      H   30    0.08713      0.00000     0.41078    0.00208     0.41287
      H   31    0.11586      0.00000     0.38168    0.00246     0.38414
      H   32    0.09468      0.00000     0.40449    0.00083     0.40532
      H   33    0.10428      0.00000     0.39505    0.00067     0.39572
      H   34    0.10321      0.00000     0.39598    0.00081     0.39679
      H   35    0.11276      0.00000     0.38635    0.00089     0.38724
      H   36    0.09923      0.00000     0.39978    0.00099     0.40077
      H   37    0.09380      0.00000     0.40533    0.00087     0.40620
 =======================================================================
   * Total *   -0.00000     17.99309    47.78782    0.21909    66.00000

 Normal termination of Gaussian 16 at Sat Dec 12 00:09:54 2020.
