 Gaussian 16, Revision A.03,

 -----------------------------------------------------------
 # opt freq B3LYP/6-31G(d) empiricaldispersion=gd3bj scf=xqc
 -----------------------------------------------------------

 -------------------------------
 CID_58817638_JID_10334_neutraal
 -------------------------------
 Symbolic Z-matrix:
 Charge =  0 Multiplicity = 1

 SCF Done:  E(RB3LYP) =  -953.407879746     A.U. after   15 cycles
 SCF Done:  E(RB3LYP) =  -953.417373756     A.U. after   13 cycles
 SCF Done:  E(RB3LYP) =  -953.417523541     A.U. after   13 cycles
 SCF Done:  E(RB3LYP) =  -953.418977977     A.U. after   12 cycles
 SCF Done:  E(RB3LYP) =  -953.419198959     A.U. after   12 cycles
 SCF Done:  E(RB3LYP) =  -953.419275812     A.U. after   12 cycles
 SCF Done:  E(RB3LYP) =  -953.419410634     A.U. after   12 cycles
 SCF Done:  E(RB3LYP) =  -953.419487722     A.U. after   10 cycles
 SCF Done:  E(RB3LYP) =  -953.419530599     A.U. after   11 cycles
 SCF Done:  E(RB3LYP) =  -953.419547955     A.U. after    9 cycles
 SCF Done:  E(RB3LYP) =  -953.419567294     A.U. after    8 cycles
 SCF Done:  E(RB3LYP) =  -953.419568209     A.U. after    9 cycles
 SCF Done:  E(RB3LYP) =  -953.419568278     A.U. after    7 cycles
 SCF Done:  E(RB3LYP) =  -953.419568300     A.U. after    7 cycles
 Optimization completed.
    -- Stationary point found.
 Normal termination of Gaussian 16 at Sun Dec 13 12:53:25 2020.

 --------------------------------------------------------------------
 #N Geom=AllCheck Guess=TCheck SCRF=Check GenChk RB3LYP/6-31G(d) Freq
 --------------------------------------------------------------------

 Structure from the checkpoint file:  "JID_10334.chk"
 -------------------------------
 CID_58817638_JID_10334_neutraal
 -------------------------------
 Charge =  0 Multiplicity = 1

 SCF Done:  E(RB3LYP) =  -953.419568300     A.U. after    1 cycles

  Exact polarizability: 212.604   0.094 147.664   7.063  -7.776 147.156
 Approx polarizability: 239.434   0.004 227.047  11.671 -28.744 251.490

                      1                      2                      3
                      A                      A                      A
 Frequencies --     23.6672                27.6601                51.2022
 Red. masses --      4.1223                 4.3565                 3.0637
 Frc consts  --      0.0014                 0.0020                 0.0047
 IR Inten    --      1.0663                 0.0462                 0.6872

                      4                      5                      6
                      A                      A                      A
 Frequencies --     61.8366                71.7372                77.3723
 Red. masses --      3.1754                 5.5746                 3.6188
 Frc consts  --      0.0072                 0.0169                 0.0128
 IR Inten    --      1.0719                 7.1900                 1.0555

                      7                      8                      9
                      A                      A                      A
 Frequencies --     99.2164               102.7815               131.8520
 Red. masses --      3.2940                 5.3332                 3.6590
 Frc consts  --      0.0191                 0.0332                 0.0375
 IR Inten    --      1.4171                 2.0868                 0.1314

                     10                     11                     12
                      A                      A                      A
 Frequencies --    147.8569               174.8897               188.1985
 Red. masses --      2.8652                 3.2448                 2.4963
 Frc consts  --      0.0369                 0.0585                 0.0521
 IR Inten    --      2.5882                 1.2486                 1.5862

                     13                     14                     15
                      A                      A                      A
 Frequencies --    224.4640               230.4889               253.8983
 Red. masses --      1.5722                 1.4012                 2.2130
 Frc consts  --      0.0467                 0.0439                 0.0841
 IR Inten    --      1.3287                 0.1402                 4.3926

                     16                     17                     18
                      A                      A                      A
 Frequencies --    266.3538               295.1273               318.3771
 Red. masses --      2.5674                 2.1547                 2.9211
 Frc consts  --      0.1073                 0.1106                 0.1745
 IR Inten    --      5.2627                 2.1783                 1.8687

                     19                     20                     21
                      A                      A                      A
 Frequencies --    339.7096               356.4076               363.2354
 Red. masses --      4.7017                 2.2894                 2.4275
 Frc consts  --      0.3197                 0.1713                 0.1887
 IR Inten    --      2.0876                 4.8116                 7.6394

                     22                     23                     24
                      A                      A                      A
 Frequencies --    393.3031               398.9003               433.9295
 Red. masses --      7.4826                 4.8986                 3.1311
 Frc consts  --      0.6820                 0.4593                 0.3474
 IR Inten    --      2.1533                 5.2398                 1.2345

                     25                     26                     27
                      A                      A                      A
 Frequencies --    476.3341               481.3873               482.2999
 Red. masses --      2.2254                 2.9516                 3.9295
 Frc consts  --      0.2975                 0.4030                 0.5385
 IR Inten    --      4.8713                 1.0658                 1.4110

                     28                     29                     30
                      A                      A                      A
 Frequencies --    504.5407               525.7917               535.5573
 Red. masses --      5.4291                 3.7355                 6.4762
 Frc consts  --      0.8143                 0.6085                 1.0944
 IR Inten    --      7.6179                11.7246                 7.2182

                     31                     32                     33
                      A                      A                      A
 Frequencies --    593.4556               643.9927               656.1718
 Red. masses --      3.6966                 3.3877                 4.0449
 Frc consts  --      0.7671                 0.8278                 1.0261
 IR Inten    --     20.7211                11.0366                 2.5876

                     34                     35                     36
                      A                      A                      A
 Frequencies --    686.0782               754.9466               766.4619
 Red. masses --      3.6785                 1.4983                 5.9979
 Frc consts  --      1.0202                 0.5031                 2.0760
 IR Inten    --      4.3150                83.6039                22.2280

                     37                     38                     39
                      A                      A                      A
 Frequencies --    791.6137               803.2579               810.7287
 Red. masses --      1.4650                 8.5659                 2.3207
 Frc consts  --      0.5409                 3.2564                 0.8987
 IR Inten    --      6.5473                 4.6577                 1.0633

                     40                     41                     42
                      A                      A                      A
 Frequencies --    823.0923               855.7272               889.5403
 Red. masses --      1.5765                 2.0387                 2.5818
 Frc consts  --      0.6293                 0.8796                 1.2037
 IR Inten    --      1.6582                16.2045                 8.5437

                     43                     44                     45
                      A                      A                      A
 Frequencies --    942.6435               971.9597               973.8675
 Red. masses --      2.4853                 2.0228                 1.7847
 Frc consts  --      1.3011                 1.1259                 0.9973
 IR Inten    --     21.2546                18.8817                 2.4070

                     46                     47                     48
                      A                      A                      A
 Frequencies --    991.3448               998.9055              1009.9731
 Red. masses --      2.0984                 1.8420                 2.5840
 Frc consts  --      1.2151                 1.0829                 1.5530
 IR Inten    --      1.5229                17.7255                20.9794

                     49                     50                     51
                      A                      A                      A
 Frequencies --   1033.8734              1045.4086              1061.3762
 Red. masses --      2.8934                 1.9432                 2.6973
 Frc consts  --      1.8222                 1.2512                 1.7903
 IR Inten    --     25.6117                37.6699                 1.8803

                     52                     53                     54
                      A                      A                      A
 Frequencies --   1107.6978              1114.3926              1120.7491
 Red. masses --      2.0791                 1.9242                 2.0278
 Frc consts  --      1.5030                 1.4079                 1.5007
 IR Inten    --     11.7598                 6.7357                 1.8497

                     55                     56                     57
                      A                      A                      A
 Frequencies --   1122.2842              1145.2567              1152.6746
 Red. masses --      2.3713                 1.8220                 2.1351
 Frc consts  --      1.7597                 1.4080                 1.6714
 IR Inten    --      1.7175                 4.7130                21.4501

                     58                     59                     60
                      A                      A                      A
 Frequencies --   1173.3640              1186.5213              1194.5212
 Red. masses --      1.8556                 2.0426                 1.3882
 Frc consts  --      1.5052                 1.6943                 1.1671
 IR Inten    --     30.7479                33.3859                 5.0686

                     61                     62                     63
                      A                      A                      A
 Frequencies --   1207.4825              1236.8797              1252.6943
 Red. masses --      2.3026                 2.0918                 2.5119
 Frc consts  --      1.9780                 1.8855                 2.3225
 IR Inten    --    271.4246                98.6130                69.4178

                     64                     65                     66
                      A                      A                      A
 Frequencies --   1260.9759              1283.3664              1290.6161
 Red. masses --      1.8052                 1.8105                 1.4901
 Frc consts  --      1.6912                 1.7569                 1.4624
 IR Inten    --     13.8112                32.4742               127.6606

                     67                     68                     69
                      A                      A                      A
 Frequencies --   1298.1775              1303.5504              1310.1772
 Red. masses --      1.3207                 2.0021                 1.8767
 Frc consts  --      1.3113                 2.0045                 1.8980
 IR Inten    --     27.9223                 8.4476                94.9467

                     70                     71                     72
                      A                      A                      A
 Frequencies --   1348.1905              1358.9991              1362.5917
 Red. masses --      1.3126                 1.3147                 1.6328
 Frc consts  --      1.4057                 1.4306                 1.7862
 IR Inten    --     18.8681                12.3932                76.5639

                     73                     74                     75
                      A                      A                      A
 Frequencies --   1388.8502              1395.2156              1400.5507
 Red. masses --      1.2628                 1.5831                 1.4168
 Frc consts  --      1.4351                 1.8157                 1.6375
 IR Inten    --      2.4437                69.5180                 7.2969

                     76                     77                     78
                      A                      A                      A
 Frequencies --   1410.1259              1418.0074              1421.5467
 Red. masses --      1.3419                 1.5572                 1.5345
 Frc consts  --      1.5721                 1.8448                 1.8271
 IR Inten    --     27.0892                40.2370                48.5474

                     79                     80                     81
                      A                      A                      A
 Frequencies --   1427.7217              1437.8673              1482.1148
 Red. masses --      1.3816                 1.2712                 1.9537
 Frc consts  --      1.6593                 1.5484                 2.5286
 IR Inten    --      8.7607                12.3508                56.3207

                     82                     83                     84
                      A                      A                      A
 Frequencies --   1482.9437              1485.1628              1503.2962
 Red. masses --      1.2300                 2.2360                 1.0970
 Frc consts  --      1.5938                 2.9058                 1.4607
 IR Inten    --      6.0014               181.2832                 2.2726

                     85                     86                     87
                      A                      A                      A
 Frequencies --   1510.2032              1511.5925              1512.7834
 Red. masses --      1.1181                 1.1742                 1.2110
 Frc consts  --      1.5024                 1.5808                 1.6329
 IR Inten    --      2.2832                 8.1925                10.6074

                     88                     89                     90
                      A                      A                      A
 Frequencies --   1517.0559              1520.8498              1522.3121
 Red. masses --      1.1018                 1.0535                 1.0713
 Frc consts  --      1.4940                 1.4357                 1.4627
 IR Inten    --     15.6073                 3.9714                13.3350

                     91                     92                     93
                      A                      A                      A
 Frequencies --   1526.1831              1532.9561              1534.7997
 Red. masses --      1.1155                 1.0827                 1.0987
 Frc consts  --      1.5308                 1.4991                 1.5248
 IR Inten    --      6.6495                13.2277                 3.0437

                     94                     95                     96
                      A                      A                      A
 Frequencies --   1540.3521              1550.5449              1774.9085
 Red. masses --      1.1340                 1.0493                11.2227
 Frc consts  --      1.5852                 1.4863                20.8305
 IR Inten    --     13.1093                12.0126               317.3493

                     97                     98                     99
                      A                      A                      A
 Frequencies --   1786.0689              1810.1365              2973.3947
 Red. masses --     11.1556                12.5837                 1.0583
 Frc consts  --     20.9671                24.2931                 5.5127
 IR Inten    --    339.5342               224.9398                72.9180

                    100                    101                    102
                      A                      A                      A
 Frequencies --   3008.8340              3017.5881              3024.5447
 Red. masses --      1.0820                 1.0700                 1.0724
 Frc consts  --      5.7713                 5.7404                 5.7798
 IR Inten    --      7.0944                37.8930                29.0238

                    103                    104                    105
                      A                      A                      A
 Frequencies --   3029.3769              3042.2513              3054.1345
 Red. masses --      1.0678                 1.0670                 1.0368
 Frc consts  --      5.7734                 5.8185                 5.6979
 IR Inten    --      9.0313                54.2494                19.8224

                    106                    107                    108
                      A                      A                      A
 Frequencies --   3064.1387              3065.0918              3069.8406
 Red. masses --      1.0686                 1.0719                 1.0700
 Frc consts  --      5.9111                 5.9334                 5.9412
 IR Inten    --     25.6296                16.0324                24.2552

                    109                    110                    111
                      A                      A                      A
 Frequencies --   3074.8224              3094.2893              3096.0710
 Red. masses --      1.0752                 1.0966                 1.0937
 Frc consts  --      5.9896                 6.1860                 6.1772
 IR Inten    --     51.7424                44.0736                31.5059

                    112                    113                    114
                      A                      A                      A
 Frequencies --   3106.5624              3115.7950              3119.5434
 Red. masses --      1.0975                 1.1010                 1.1026
 Frc consts  --      6.2406                 6.2976                 6.3221
 IR Inten    --     34.9457                22.6902                33.9058

                    115                    116                    117
                      A                      A                      A
 Frequencies --   3139.8543              3150.5231              3160.4814
 Red. masses --      1.0980                 1.1029                 1.0964
 Frc consts  --      6.3778                 6.4501                 6.4522
 IR Inten    --     18.4717                15.1907                 7.8454

                    118                    119                    120
                      A                      A                      A
 Frequencies --   3173.4310              3179.5956              3479.3803
 Red. masses --      1.0917                 1.0928                 1.0734
 Frc consts  --      6.4778                 6.5090                 7.6566
 IR Inten    --      2.7769                14.0185                 1.3260

 - Thermochemistry -
 -------------------
 Temperature   298.150 Kelvin.  Pressure   1.00000 Atm.
 Atom     1 has atomic number  6 and mass  12.00000

 Molecular mass:   282.16919 amu.
 Principal axes and moments of inertia in atomic units:
                           1         2         3
     Eigenvalues --  2270.16489********************
           X            0.99993  -0.00902   0.00720
           Y            0.00865   0.99873   0.04963
           Z           -0.00764  -0.04956   0.99874
 This molecule is an asymmetric top.
 Rotational symmetry number  1.
 Warning -- assumption of classical behavior for rotation
           may cause significant error
 Rotational temperatures (Kelvin)      0.03815     0.00720     0.00691
 Rotational constants (GHZ):           0.79498     0.15001     0.14402
 Zero-point vibrational energy     954725.6 (Joules/Mol)
                                  228.18489 (Kcal/Mol)
 Warning -- explicit consideration of  31 degrees of freedom as
           vibrations may cause significant error
 Vibrational temperatures:     34.05    39.80    73.67    88.97   103.21
          (Kelvin)            111.32   142.75   147.88   189.71   212.73
                              251.63   270.78   322.95   331.62   365.30
                              383.22   424.62   458.07   488.77   512.79
                              522.61   565.88   573.93   624.33   685.34
                              692.61   693.92   725.92   756.50   770.55
                              853.85   926.56   944.08   987.11  1086.20
                             1102.77  1138.96  1155.71  1166.46  1184.25
                             1231.20  1279.85  1356.25  1398.43  1401.18
                             1426.32  1437.20  1453.13  1487.51  1504.11
                             1527.08  1593.73  1603.36  1612.51  1614.72
                             1647.77  1658.44  1688.21  1707.14  1718.65
                             1737.30  1779.59  1802.35  1814.26  1846.48
                             1856.91  1867.79  1875.52  1885.05  1939.75
                             1955.30  1960.47  1998.25  2007.40  2015.08
                             2028.86  2040.20  2045.29  2054.17  2068.77
                             2132.43  2133.63  2136.82  2162.91  2172.85
                             2174.84  2176.56  2182.71  2188.16  2190.27
                             2195.84  2205.58  2208.23  2216.22  2230.89
                             2553.70  2569.75  2604.38  4278.05  4329.04
                             4341.64  4351.65  4358.60  4377.12  4394.22
                             4408.61  4409.98  4416.82  4423.98  4451.99
                             4454.56  4469.65  4482.93  4488.33  4517.55
                             4532.90  4547.23  4565.86  4574.73  5006.05

 Zero-point correction=                           0.363636 (Hartree/Particle)
 Thermal correction to Energy=                    0.383498
 Thermal correction to Enthalpy=                  0.384442
 Thermal correction to Gibbs Free Energy=         0.313731
 Sum of electronic and zero-point Energies=           -953.055933
 Sum of electronic and thermal Energies=              -953.036070
 Sum of electronic and thermal Enthalpies=            -953.035126
 Sum of electronic and thermal Free Energies=         -953.105837

                     E (Thermal)             CV                S
                      KCal/Mol        Cal/Mol-Kelvin    Cal/Mol-Kelvin
 Total                  240.649             74.419            148.824
 Electronic               0.000              0.000              0.000
 Translational            0.889              2.981             42.810
 Rotational               0.889              2.981             34.192
 Vibrational            238.871             68.457             71.822
 Vibration     1          0.593              1.985              6.300
 Vibration     2          0.593              1.984              5.991
 Vibration     3          0.595              1.977              4.770
 Vibration     4          0.597              1.973              4.398
 Vibration     5          0.598              1.967              4.105
 Vibration     6          0.599              1.964              3.956
 Vibration     7          0.604              1.950              3.470
 Vibration     8          0.605              1.947              3.401
 Vibration     9          0.612              1.921              2.919
 Vibration    10          0.617              1.905              2.700
 Vibration    11          0.627              1.873              2.382
 Vibration    12          0.633              1.856              2.245
 Vibration    13          0.649              1.804              1.923
 Vibration    14          0.652              1.794              1.875
 Vibration    15          0.665              1.756              1.703
 Vibration    16          0.672              1.735              1.620
 Vibration    17          0.689              1.683              1.444
 Vibration    18          0.705              1.638              1.318
 Vibration    19          0.720              1.596              1.214
 Vibration    20          0.732              1.562              1.138
 Vibration    21          0.737              1.548              1.108
 Vibration    22          0.761              1.484              0.988
 Vibration    23          0.765              1.472              0.967
 Vibration    24          0.795              1.396              0.846
 Vibration    25          0.833              1.303              0.720
 Vibration    26          0.838              1.291              0.706
 Vibration    27          0.839              1.289              0.704
 Vibration    28          0.860              1.240              0.647
 Vibration    29          0.881              1.193              0.597
 Vibration    30          0.891              1.171              0.575
 Vibration    31          0.951              1.046              0.461

 Optimization completed.
    -- Stationary point found.
 Normal termination of Gaussian 16 at Sun Dec 13 13:12:54 2020.

 ----------------------------------------------------------------------
 # B3LYP/6-311++G(d,p) empiricaldispersion=gd3bj scf=xqc pop=npa geom=c
 heck
 ----------------------------------------------------------------------

 ---------------------------------------
 CID_58817638_JID_10334_Energie_neutraal
 ---------------------------------------
 Structure from the checkpoint file:  "JID_10334.chk"
 Charge =  0 Multiplicity = 1

 SCF Done:  E(RB3LYP) =  -953.692074667     A.U. after   15 cycles
 Normal termination of Gaussian 16 at Sun Dec 13 13:21:04 2020.

 ----------------------------------------------------------------------
 # B3LYP/6-311++G(d,p) empiricaldispersion=gd3bj scf=xqc pop=npa geom=c
 heck
 ----------------------------------------------------------------------

 -------------------------------------
 CID_58817638_JID_10334_Energie_kation
 -------------------------------------
 Structure from the checkpoint file:  "JID_10334.chk"
 Charge =  1 Multiplicity = 2

 SCF Done:  E(UB3LYP) =  -953.392148874     A.U. after   33 cycles
 SCF Done:  E(UB3LYP) =  -953.392148874     a.u. after    1 cycles
 Normal termination of Gaussian 16 at Sun Dec 13 13:45:50 2020.
 Gaussian 16:  ES64L-G16RevA.03 25-Dec-2016

 ----------------------------------------------------------------------
 # B3LYP/6-311++G(d,p) empiricaldispersion=gd3bj scf=xqc pop=npa geom=c
 heck
 ----------------------------------------------------------------------

 ------------------------------------
 CID_58817638_JID_10334_Energie_anion
 ------------------------------------
 Structure from the checkpoint file:  "JID_10334.chk"
 Charge = -1 Multiplicity = 2

                         Standard orientation:
 ---------------------------------------------------------------------
 Center     Atomic      Atomic             Coordinates (Angstroms)
 Number     Number       Type             X           Y           Z
 ---------------------------------------------------------------------
      1          6           0       -5.903269   -0.200374   -0.511734
      2          6           0       -4.754677   -1.184488   -0.734373
      3          7           0       -3.446789   -0.570460   -0.500838
      4          6           0       -2.768641    0.087520   -1.608213
      5          6           0       -1.876454    1.198922   -1.094298
      6          7           0       -0.928557    0.640013   -0.119647
      7          6           0       -1.458541   -0.101812    0.933861
      8          8           0       -0.853201   -0.370383    1.950436
      9          6           0       -2.905010   -0.638639    0.750472
     10          8           0       -3.475695   -1.137559    1.707008
     11          6           0        0.265977    1.429385    0.066077
     12          8           0        0.217909    2.631655   -0.164516
     13          7           0        1.379475    0.758095    0.446569
     14          6           0        2.546953    1.529115    0.879518
     15          6           0        3.781411    1.185294    0.045286
     16          6           0        4.058236   -0.321157    0.055674
     17          6           0        2.790208   -1.071196   -0.396590
     18          6           0        1.559487   -0.691731    0.437186
     19          7           0        5.263445   -0.602561   -0.720854
     20          6           0        5.741413   -1.978267   -0.646746
     21          1           0       -5.900879    0.143732    0.526293
     22          1           0       -6.865461   -0.682761   -0.715655
     23          1           0       -5.815560    0.672727   -1.168807
     24          1           0       -4.844243   -2.029161   -0.048528
     25          1           0       -4.760524   -1.571873   -1.759752
     26          1           0       -3.525541    0.516622   -2.273049
     27          1           0       -2.181409   -0.636984   -2.192242
     28          1           0       -2.474534    1.997763   -0.640489
     29          1           0       -1.302467    1.640380   -1.908941
     30          1           0        2.734394    1.292458    1.936985
     31          1           0        2.292343    2.585028    0.802433
     32          1           0        4.655651    1.721529    0.428757
     33          1           0        3.618140    1.519243   -0.989184
     34          1           0        4.277954   -0.620106    1.092448
     35          1           0        2.596951   -0.830258   -1.452058
     36          1           0        2.933972   -2.155598   -0.329935
     37          1           0        0.669521   -1.158704    0.021181
     38          1           0        1.662555   -1.045957    1.469820
     39          1           0        5.098650   -0.348062   -1.693978
     40          1           0        5.035027   -2.746728   -1.006725
     41          1           0        6.662889   -2.068932   -1.230930
     42          1           0        5.984899   -2.215087    0.395605
 ---------------------------------------------------------------------

 SCF Done:  E(UB3LYP) =  -953.696730954     A.U. after   33 cycles
 SCF Done:  E(UB3LYP) =  -953.696730954     a.u. after    1 cycles

 The electronic state is 2-A.
 Alpha  occ. eigenvalues --  -18.98127 -18.95621 -18.95062 -14.23989 -14.23253
 Alpha  occ. eigenvalues --  -14.22469 -14.21504 -10.18850 -10.13212 -10.13098
 Alpha  occ. eigenvalues --  -10.11592 -10.11308 -10.11033 -10.10809 -10.10527
 Alpha  occ. eigenvalues --  -10.10480 -10.10427 -10.08067 -10.07719 -10.07051
 Alpha  occ. eigenvalues --   -0.95224  -0.92286  -0.89580  -0.84579  -0.83948
 Alpha  occ. eigenvalues --   -0.82285  -0.80333  -0.70081  -0.67629  -0.67045
 Alpha  occ. eigenvalues --   -0.64437  -0.60667  -0.57310  -0.55658  -0.54854
 Alpha  occ. eigenvalues --   -0.54086  -0.51297  -0.49667  -0.45389  -0.43387
 Alpha  occ. eigenvalues --   -0.41950  -0.41429  -0.39334  -0.38104  -0.37994
 Alpha  occ. eigenvalues --   -0.37552  -0.36306  -0.35667  -0.35298  -0.34362
 Alpha  occ. eigenvalues --   -0.33285  -0.32994  -0.32743  -0.31257  -0.30792
 Alpha  occ. eigenvalues --   -0.30522  -0.29908  -0.29568  -0.29216  -0.28632
 Alpha  occ. eigenvalues --   -0.27990  -0.27915  -0.27095  -0.26678  -0.25740
 Alpha  occ. eigenvalues --   -0.25309  -0.24611  -0.23868  -0.23139  -0.18270
 Alpha  occ. eigenvalues --   -0.15291  -0.14838  -0.14246  -0.14114  -0.13266
 Alpha  occ. eigenvalues --   -0.11821   0.03721
 Alpha virt. eigenvalues --    0.05303   0.06098   0.06968   0.07470   0.07714
 Alpha virt. eigenvalues --    0.08391   0.08560   0.09826   0.10108   0.10336
 Alpha virt. eigenvalues --    0.10715   0.10967   0.11456   0.11669   0.12515

  Beta  occ. eigenvalues --  -18.98076 -18.95286 -18.94810 -14.23982 -14.23238
  Beta  occ. eigenvalues --  -14.22403 -14.21495 -10.18782 -10.12971 -10.12943
  Beta  occ. eigenvalues --  -10.11587 -10.11305 -10.11025 -10.10806 -10.10504
  Beta  occ. eigenvalues --  -10.10482 -10.10428 -10.08062 -10.07703 -10.07030
  Beta  occ. eigenvalues --   -0.95072  -0.91839  -0.89120  -0.84532  -0.83750
  Beta  occ. eigenvalues --   -0.82263  -0.80144  -0.70057  -0.67596  -0.67024
  Beta  occ. eigenvalues --   -0.64298  -0.60575  -0.57053  -0.55559  -0.54797
  Beta  occ. eigenvalues --   -0.54000  -0.51164  -0.49549  -0.45320  -0.43147
  Beta  occ. eigenvalues --   -0.41820  -0.41248  -0.39278  -0.38069  -0.37878
  Beta  occ. eigenvalues --   -0.37479  -0.36269  -0.35591  -0.35188  -0.34210
  Beta  occ. eigenvalues --   -0.33220  -0.32939  -0.32565  -0.31070  -0.30683
  Beta  occ. eigenvalues --   -0.30354  -0.29762  -0.29337  -0.29046  -0.28354
  Beta  occ. eigenvalues --   -0.27770  -0.27432  -0.26917  -0.26651  -0.25519
  Beta  occ. eigenvalues --   -0.25209  -0.24548  -0.23849  -0.22092  -0.18052
  Beta  occ. eigenvalues --   -0.15031  -0.14372  -0.14006  -0.13930  -0.12509
  Beta  occ. eigenvalues --   -0.11486
  Beta virt. eigenvalues --    0.05643   0.06136   0.07079   0.07630   0.07695
  Beta virt. eigenvalues --    0.08217   0.08603   0.09399   0.09875   0.10159
  Beta virt. eigenvalues --    0.10412   0.10687   0.10936   0.11458   0.11595

 Mulliken charges and spin densities:
               1          2
     1  C   -0.025439  -0.376132
     2  C   -0.253430   0.143143
     3  N    0.094074   0.037240
     4  C   -0.483644  -0.194477
     5  C    0.045275  -0.101857
     6  N    0.034176   0.012393
     7  C   -0.135830  -0.014634
     8  O   -0.266120   0.112314
     9  C    0.025570   0.262270
    10  O   -0.377240   0.088244
    11  C   -0.107426  -0.011836
    12  O   -0.325532   0.017400
    13  N    0.203744   0.028555
    14  C   -0.233888  -0.027966
    15  C    0.100771  -0.189440
    16  C   -0.960637   0.168172
    17  C    0.333925  -0.480540
    18  C   -0.606834   0.068912
    19  N   -0.012533   0.078558
    20  C    0.298467  -0.618986
    21  H    0.139317   0.050916
    22  H   -0.056998   0.180056
    23  H    0.078280   0.032423
    24  H    0.185145  -0.002977
    25  H   -0.133769   0.271330
    26  H    0.134586   0.023197
    27  H   -0.011661   0.169232
    28  H    0.209040  -0.008130
    29  H    0.155255   0.019312
    30  H    0.112367   0.046214
    31  H    0.209669  -0.001645
    32  H    0.134634   0.041866
    33  H    0.090138   0.062351
    34  H    0.113420   0.033409
    35  H   -0.029451   0.181164
    36  H    0.142058  -0.005038
    37  H    0.162709   0.094867
    38  H    0.205225   0.002683
    39  H    0.148346   0.078393
    40  H   -0.159623   0.292623
    41  H   -0.160660   0.293673
    42  H   -0.015473   0.142747
 Sum of Mulliken charges =  -1.00000   1.00000

 Dipole moment (field-independent basis, Debye):
    X=              1.7742    Y=              1.7848    Z=             -3.8742  Tot=              4.6198
 Quadrupole moment (field-independent basis, Debye-Ang):
   XX=           -209.5726   YY=           -153.0947   ZZ=           -150.8114
   XY=             -2.2118   XZ=             18.0459   YZ=              1.3596

 Summary of Natural Population Analysis:

                                       Natural Population
                Natural  -----------------------------------------------
    Atom  No    Charge         Core      Valence    Rydberg      Total
 -----------------------------------------------------------------------
      C    1   -0.29208      0.99966     2.28663    0.00578     3.29208
      C    2   -0.08770      0.99963     2.07662    0.01145     3.08770
      N    3   -0.25409      0.99964     2.74401    0.01044     3.75409
      C    4   -0.08144      0.99961     2.07130    0.01053     3.08144
      C    5   -0.08525      0.99962     2.07461    0.01102     3.08525
      N    6   -0.28443      0.99962     2.77587    0.00894     3.78443
      C    7    0.34221      0.99965     1.63505    0.02308     2.65779
      O    8   -0.26391      0.99988     3.25830    0.00573     4.26391
      C    9    0.32413      0.99962     1.65289    0.02336     2.67587
      O   10   -0.29056      0.99988     3.28491    0.00577     4.29056
      C   11    0.43570      0.99963     1.54137    0.02330     2.56430
      O   12   -0.33343      0.99988     3.32902    0.00453     4.33343
      N   13   -0.25026      0.99962     2.74002    0.01062     3.75026
      C   14   -0.08400      0.99962     2.07526    0.00913     3.08400
      C   15   -0.19415      0.99961     2.18666    0.00788     3.19415
      C   16   -0.01106      0.99958     1.99815    0.01333     3.01106
      C   17   -0.20438      0.99960     2.19502    0.00976     3.20438
      C   18   -0.08443      0.99961     2.07295    0.01186     3.08443
      N   19   -0.33863      0.99974     2.82701    0.01188     3.83863
      C   20   -0.17740      0.99966     2.17087    0.00687     3.17740
      H   21    0.10712      0.00000     0.39192    0.00096     0.39288
      H   22    0.09529      0.00000     0.40365    0.00106     0.40471
      H   23    0.09260      0.00000     0.40655    0.00085     0.40740
      H   24    0.10958      0.00000     0.38906    0.00136     0.39042
      H   25    0.08830      0.00000     0.41047    0.00122     0.41170
      H   26    0.09470      0.00000     0.40424    0.00106     0.40530
      H   27    0.09092      0.00000     0.40751    0.00156     0.40908
      H   28    0.09494      0.00000     0.40380    0.00126     0.40506
      H   29    0.10567      0.00000     0.39338    0.00095     0.39433
      H   30    0.08988      0.00000     0.40890    0.00121     0.41012
      H   31    0.11640      0.00000     0.38235    0.00125     0.38360
      H   32    0.10331      0.00000     0.39549    0.00120     0.39669
      H   33    0.09617      0.00000     0.40246    0.00137     0.40383
      H   34    0.08751      0.00000     0.41043    0.00206     0.41249
      H   35    0.09421      0.00000     0.40423    0.00157     0.40579
      H   36    0.10191      0.00000     0.39696    0.00112     0.39809
      H   37    0.11343      0.00000     0.38525    0.00132     0.38657
      H   38    0.09991      0.00000     0.39892    0.00116     0.40009
      H   39    0.16888      0.00000     0.32814    0.00298     0.33112
      H   40    0.08011      0.00000     0.41796    0.00194     0.41989
      H   41    0.09389      0.00000     0.40506    0.00105     0.40611
      H   42    0.09043      0.00000     0.40836    0.00121     0.40957
 =======================================================================
   * Total *   -0.00000     19.99336    55.75162    0.25502    76.00000

 Normal termination of Gaussian 16 at Sun Dec 13 14:10:05 2020.
