 Gaussian 16, Revision A.03,

 -----------------------------------------------------------
 # opt freq B3LYP/6-31G(d) empiricaldispersion=gd3bj scf=xqc
 -----------------------------------------------------------

 ------------------------------
 CID_80135664_JID_8046_neutraal
 ------------------------------
 Symbolic Z-matrix:
 Charge =  0 Multiplicity = 1

 SCF Done:  E(RB3LYP) =  -874.640182606     A.U. after   15 cycles
 SCF Done:  E(RB3LYP) =  -874.649445939     A.U. after   15 cycles
 SCF Done:  E(RB3LYP) =  -874.647709082     A.U. after   15 cycles
 SCF Done:  E(RB3LYP) =  -874.650655411     A.U. after   15 cycles
 SCF Done:  E(RB3LYP) =  -874.653164122     A.U. after   13 cycles
 SCF Done:  E(RB3LYP) =  -874.655020466     A.U. after   15 cycles
 SCF Done:  E(RB3LYP) =  -874.654429743     A.U. after   17 cycles
 SCF Done:  E(RB3LYP) =  -874.656227133     A.U. after   14 cycles
 SCF Done:  E(RB3LYP) =  -874.656542793     A.U. after   14 cycles
 SCF Done:  E(RB3LYP) =  -874.656715917     A.U. after   12 cycles
 SCF Done:  E(RB3LYP) =  -874.656984915     A.U. after   10 cycles
 SCF Done:  E(RB3LYP) =  -874.656988367     A.U. after   11 cycles
 SCF Done:  E(RB3LYP) =  -874.656989744     A.U. after   10 cycles
 SCF Done:  E(RB3LYP) =  -874.656990660     A.U. after   10 cycles
 SCF Done:  E(RB3LYP) =  -874.656990822     A.U. after    8 cycles
 SCF Done:  E(RB3LYP) =  -874.656990857     A.U. after    8 cycles
 Optimization completed.
    -- Stationary point found.
 Normal termination of Gaussian 16 at Fri Dec 11 18:46:46 2020.

 --------------------------------------------------------------------
 #N Geom=AllCheck Guess=TCheck SCRF=Check GenChk RB3LYP/6-31G(d) Freq
 --------------------------------------------------------------------

 Structure from the checkpoint file:  "JID_8046.chk"
 ------------------------------
 CID_80135664_JID_8046_neutraal
 ------------------------------
 Charge =  0 Multiplicity = 1

 SCF Done:  E(RB3LYP) =  -874.656990857     A.U. after    1 cycles

  Exact polarizability: 209.818   2.862 155.021  -6.491   6.334 106.343
 Approx polarizability: 281.181  11.907 251.948   1.783  20.076 173.024

                      1                      2                      3
                      A                      A                      A
 Frequencies --     18.4692                28.8549                43.1395
 Red. masses --      4.3609                 5.2516                 3.4131
 Frc consts  --      0.0009                 0.0026                 0.0037
 IR Inten    --      0.3545                 1.1620                 0.2700

                      4                      5                      6
                      A                      A                      A
 Frequencies --     58.3874                71.2229                92.8908
 Red. masses --      5.2052                 3.7994                 3.4045
 Frc consts  --      0.0105                 0.0114                 0.0173
 IR Inten    --      1.8451                 0.9397                 1.0813

                      7                      8                      9
                      A                      A                      A
 Frequencies --    110.9146               131.7251               144.8552
 Red. masses --      3.4162                 4.3401                 2.4313
 Frc consts  --      0.0248                 0.0444                 0.0301
 IR Inten    --      2.6444                 0.9466                 1.3115

                     10                     11                     12
                      A                      A                      A
 Frequencies --    165.7177               183.4278               205.2193
 Red. masses --      1.2193                 5.5063                 2.1584
 Frc consts  --      0.0197                 0.1092                 0.0536
 IR Inten    --      1.1737                 2.7145                 1.1847

                     13                     14                     15
                      A                      A                      A
 Frequencies --    221.1865               233.8341               247.9478
 Red. masses --      5.9358                 5.7105                 1.8749
 Frc consts  --      0.1711                 0.1840                 0.0679
 IR Inten    --      2.4719                 3.5121                 5.3590

                     16                     17                     18
                      A                      A                      A
 Frequencies --    261.9593               279.7468               306.9965
 Red. masses --      3.7157                 2.4697                 1.7912
 Frc consts  --      0.1502                 0.1139                 0.0995
 IR Inten    --      7.7498                 0.1870                 1.1991

                     19                     20                     21
                      A                      A                      A
 Frequencies --    355.3121               376.2208               427.7632
 Red. masses --      5.6985                 2.1093                 2.4195
 Frc consts  --      0.4239                 0.1759                 0.2608
 IR Inten    --      3.8047                 0.8865                 1.9978

                     22                     23                     24
                      A                      A                      A
 Frequencies --    439.4937               459.8558               516.0430
 Red. masses --      4.1823                 3.7727                 3.5892
 Frc consts  --      0.4760                 0.4700                 0.5631
 IR Inten    --      2.0246                 5.1923                11.7446

                     25                     26                     27
                      A                      A                      A
 Frequencies --    529.9136               589.4410               600.7737
 Red. masses --      2.6601                 7.5398                 1.7933
 Frc consts  --      0.4401                 1.5434                 0.3813
 IR Inten    --      1.0517                 7.3635                61.2463

                     28                     29                     30
                      A                      A                      A
 Frequencies --    646.9137               688.7631               697.0503
 Red. masses --      2.3172                 7.1842                 9.3744
 Frc consts  --      0.5714                 2.0080                 2.6836
 IR Inten    --     45.5442                 3.1976                 9.1592

                     31                     32                     33
                      A                      A                      A
 Frequencies --    731.3528               755.1727               766.2401
 Red. masses --      1.2786                 4.9047                 1.9966
 Frc consts  --      0.4029                 1.6480                 0.6907
 IR Inten    --      8.3842                 2.4523                 1.5060

                     34                     35                     36
                      A                      A                      A
 Frequencies --    802.3644               821.8864               836.0321
 Red. masses --     10.9393                 8.1080                 1.6776
 Frc consts  --      4.1494                 3.2269                 0.6909
 IR Inten    --     31.7548                12.0128                 1.1111

                     37                     38                     39
                      A                      A                      A
 Frequencies --    862.2706               892.3992               923.4726
 Red. masses --      2.0828                 7.5284                 1.6055
 Frc consts  --      0.9124                 3.5324                 0.8067
 IR Inten    --      4.6835                45.1751                 1.5992

                     40                     41                     42
                      A                      A                      A
 Frequencies --    961.2041               971.0583               994.6091
 Red. masses --      1.6509                 2.5972                 1.4547
 Frc consts  --      0.8987                 1.4429                 0.8478
 IR Inten    --      1.0156                 7.0738                 2.4100

                     43                     44                     45
                      A                      A                      A
 Frequencies --   1009.9767              1045.2262              1058.1196
 Red. masses --      3.1305                 1.4202                 1.5793
 Frc consts  --      1.8815                 0.9142                 1.0418
 IR Inten    --      6.4211                 6.0630                 0.8723

                     46                     47                     48
                      A                      A                      A
 Frequencies --   1079.9550              1113.3913              1120.6706
 Red. masses --      2.5375                 6.2338                 2.7128
 Frc consts  --      1.7437                 4.5530                 2.0074
 IR Inten    --     11.5549                 2.9619                26.9245

                     49                     50                     51
                      A                      A                      A
 Frequencies --   1154.1357              1162.5080              1183.2065
 Red. masses --      2.1780                 2.3300                 1.4332
 Frc consts  --      1.7093                 1.8552                 1.1821
 IR Inten    --     20.1919                22.2113                22.2678

                     52                     53                     54
                      A                      A                      A
 Frequencies --   1183.9852              1208.1371              1233.8905
 Red. masses --      2.7915                 1.5085                 1.4296
 Frc consts  --      2.3055                 1.2972                 1.2824
 IR Inten    --    103.6304                22.1651                18.0034

                     55                     56                     57
                      A                      A                      A
 Frequencies --   1245.1209              1275.0780              1298.2069
 Red. masses --      1.4292                 2.7786                 1.2334
 Frc consts  --      1.3055                 2.6617                 1.2248
 IR Inten    --      1.8931                90.9150                32.0427

                     58                     59                     60
                      A                      A                      A
 Frequencies --   1321.3914              1347.7185              1350.7831
 Red. masses --      1.2147                 3.3675                 1.1760
 Frc consts  --      1.2497                 3.6038                 1.2643
 IR Inten    --     12.7819               114.3668                 7.2405

                     61                     62                     63
                      A                      A                      A
 Frequencies --   1378.7252              1385.8647              1392.0043
 Red. masses --      1.7067                 2.7821                 2.4783
 Frc consts  --      1.9115                 3.1482                 2.8293
 IR Inten    --      5.1904                36.0981                88.1520

                     64                     65                     66
                      A                      A                      A
 Frequencies --   1394.2346              1415.3578              1422.2217
 Red. masses --      1.5392                 1.5135                 1.4382
 Frc consts  --      1.7629                 1.7863                 1.7140
 IR Inten    --      4.6460                33.4383                 8.7471

                     67                     68                     69
                      A                      A                      A
 Frequencies --   1429.2988              1444.4759              1454.5605
 Red. masses --      1.4514                 1.2760                 1.7332
 Frc consts  --      1.7469                 1.5686                 2.1605
 IR Inten    --     42.7958                 4.4318               194.3697

                     70                     71                     72
                      A                      A                      A
 Frequencies --   1477.9281              1509.6617              1510.6911
 Red. masses --      1.7088                 1.0774                 1.0490
 Frc consts  --      2.1991                 1.4467                 1.4105
 IR Inten    --     14.1890                 3.5333                 6.3449

                     73                     74                     75
                      A                      A                      A
 Frequencies --   1519.3839              1521.5326              1527.4567
 Red. masses --      1.0915                 1.0612                 1.0872
 Frc consts  --      1.4846                 1.4475                 1.4945
 IR Inten    --      3.8459                55.6699                23.6471

                     76                     77                     78
                      A                      A                      A
 Frequencies --   1529.1858              1534.7743              1536.3339
 Red. masses --      1.0849                 1.0793                 1.8588
 Frc consts  --      1.4947                 1.4978                 2.5849
 IR Inten    --     11.1039                 7.9719                80.5036

                     79                     80                     81
                      A                      A                      A
 Frequencies --   1542.5934              1556.3214              1580.5444
 Red. masses --      1.0942                 1.1482                 5.0074
 Frc consts  --      1.5341                 1.6386                 7.3702
 IR Inten    --      6.4518                50.4976                86.0920

                     82                     83                     84
                      A                      A                      A
 Frequencies --   1608.2519              1618.2368              1653.7599
 Red. masses --      2.8877                 8.6869                 9.2919
 Frc consts  --      4.4005                13.4029                14.9726
 IR Inten    --    197.9117               151.0188               994.5900

                     85                     86                     87
                      A                      A                      A
 Frequencies --   3020.3475              3033.0750              3035.0069
 Red. masses --      1.0734                 1.0681                 1.0676
 Frc consts  --      5.7691                 5.7892                 5.7939
 IR Inten    --     21.5024                 3.7979                58.0073

                     88                     89                     90
                      A                      A                      A
 Frequencies --   3041.0969              3043.8506              3050.3453
 Red. masses --      1.0564                 1.0429                 1.0629
 Frc consts  --      5.7564                 5.6927                 5.8269
 IR Inten    --     17.7630                30.1351                33.2288

                     91                     92                     93
                      A                      A                      A
 Frequencies --   3070.1685              3071.3650              3080.3143
 Red. masses --      1.1018                 1.0963                 1.0291
 Frc consts  --      6.1192                 6.0932                 5.7531
 IR Inten    --     14.7697                17.5530                41.8748

                     94                     95                     96
                      A                      A                      A
 Frequencies --   3088.0479              3093.4310              3108.7009
 Red. masses --      1.0968                 1.0977                 1.1020
 Frc consts  --      6.1622                 6.1890                 6.2748
 IR Inten    --     34.0260                83.8110                60.9786

                     97                     98                     99
                      A                      A                      A
 Frequencies --   3114.1377              3155.8685              3157.9279
 Red. masses --      1.1016                 1.0889                 1.1078
 Frc consts  --      6.2941                 6.3895                 6.5090
 IR Inten    --     42.3126                 9.9823                18.1562

                    100                    101                    102
                      A                      A                      A
 Frequencies --   3188.5117              3189.6712              3575.4725
 Red. masses --      1.1059                 1.0927                 1.0751
 Frc consts  --      6.6245                 6.5500                 8.0976
 IR Inten    --     26.2277                21.6048                44.4032

 - Thermochemistry -
 -------------------
 Temperature   298.150 Kelvin.  Pressure   1.00000 Atm.
 Atom     1 has atomic number  6 and mass  12.00000

 Molecular mass:   254.13789 amu.
 Principal axes and moments of inertia in atomic units:
                           1         2         3
     Eigenvalues --  2072.484888562.191489884.46281
           X            1.00000   0.00009  -0.00080
           Y           -0.00010   0.99992  -0.01291
           Z            0.00080   0.01291   0.99992
 This molecule is an asymmetric top.
 Rotational symmetry number  1.
 Warning -- assumption of classical behavior for rotation
           may cause significant error
 Rotational temperatures (Kelvin)      0.04179     0.01012     0.00876
 Rotational constants (GHZ):           0.87081     0.21078     0.18258
 Zero-point vibrational energy     794944.5 (Joules/Mol)
                                  189.99630 (Kcal/Mol)
 Warning -- explicit consideration of  27 degrees of freedom as
           vibrations may cause significant error
 Vibrational temperatures:     26.57    41.52    62.07    84.01   102.47
          (Kelvin)            133.65   159.58   189.52   208.41   238.43
                              263.91   295.26   318.24   336.44   356.74
                              376.90   402.49   441.70   511.21   541.30
                              615.46   632.33   661.63   742.47   762.43
                              848.07   864.38   930.76   990.98  1002.90
                             1052.25  1086.53  1102.45  1154.42  1182.51
                             1202.86  1240.62  1283.96  1328.67  1382.96
                             1397.14  1431.02  1453.13  1503.85  1522.40
                             1553.81  1601.92  1612.40  1660.54  1672.59
                             1702.37  1703.49  1738.24  1775.29  1791.45
                             1834.55  1867.83  1901.19  1939.07  1943.48
                             1983.68  1993.95  2002.78  2005.99  2036.38
                             2046.26  2056.44  2078.28  2092.79  2126.41
                             2172.07  2173.55  2186.05  2189.15  2197.67
                             2200.16  2208.20  2210.44  2219.45  2239.20
                             2274.05  2313.92  2328.28  2379.39  4345.61
                             4363.92  4366.70  4375.46  4379.42  4388.77
                             4417.29  4419.01  4431.89  4443.01  4450.76
                             4472.73  4480.55  4540.59  4543.55  4587.56
                             4589.23  5144.31

 Zero-point correction=                           0.302778 (Hartree/Particle)
 Thermal correction to Energy=                    0.321117
 Thermal correction to Enthalpy=                  0.322061
 Thermal correction to Gibbs Free Energy=         0.254140
 Sum of electronic and zero-point Energies=           -874.354212
 Sum of electronic and thermal Energies=              -874.335874
 Sum of electronic and thermal Enthalpies=            -874.334930
 Sum of electronic and thermal Free Energies=         -874.402851

                     E (Thermal)             CV                S
                      KCal/Mol        Cal/Mol-Kelvin    Cal/Mol-Kelvin
 Total                  201.504             66.642            142.953
 Electronic               0.000              0.000              0.000
 Translational            0.889              2.981             42.498
 Rotational               0.889              2.981             33.528
 Vibrational            199.727             60.681             66.927
 Vibration     1          0.593              1.986              6.792
 Vibration     2          0.593              1.984              5.907
 Vibration     3          0.595              1.980              5.109
 Vibration     4          0.596              1.974              4.511
 Vibration     5          0.598              1.968              4.119
 Vibration     6          0.602              1.954              3.598
 Vibration     7          0.607              1.940              3.253
 Vibration     8          0.612              1.922              2.921
 Vibration     9          0.616              1.908              2.739
 Vibration    10          0.624              1.885              2.483
 Vibration    11          0.631              1.862              2.293
 Vibration    12          0.640              1.832              2.086
 Vibration    13          0.648              1.809              1.949
 Vibration    14          0.654              1.789              1.849
 Vibration    15          0.662              1.766              1.745
 Vibration    16          0.669              1.742              1.649
 Vibration    17          0.680              1.711              1.535
 Vibration    18          0.697              1.660              1.378
 Vibration    19          0.731              1.564              1.143
 Vibration    20          0.747              1.521              1.054
 Vibration    21          0.789              1.410              0.866
 Vibration    22          0.800              1.384              0.828
 Vibration    23          0.818              1.339              0.767
 Vibration    24          0.871              1.214              0.619
 Vibration    25          0.885              1.184              0.587
 Vibration    26          0.947              1.054              0.468
 Vibration    27          0.959              1.030              0.448

 Optimization completed.
    -- Stationary point found.
 Normal termination of Gaussian 16 at Fri Dec 11 19:00:14 2020.

 ----------------------------------------------------------------------
 # B3LYP/6-311++G(d,p) empiricaldispersion=gd3bj scf=xqc pop=npa geom=c
 heck
 ----------------------------------------------------------------------

 --------------------------------------
 CID_80135664_JID_8046_Energie_neutraal
 --------------------------------------
 Structure from the checkpoint file:  "JID_8046.chk"
 Charge =  0 Multiplicity = 1

 SCF Done:  E(RB3LYP) =  -874.906073079     A.U. after   16 cycles
 Normal termination of Gaussian 16 at Fri Dec 11 19:06:41 2020.

 ----------------------------------------------------------------------
 # B3LYP/6-311++G(d,p) empiricaldispersion=gd3bj scf=xqc pop=npa geom=c
 heck
 ----------------------------------------------------------------------

 ------------------------------------
 CID_80135664_JID_8046_Energie_kation
 ------------------------------------
 Structure from the checkpoint file:  "JID_8046.chk"
 Charge =  1 Multiplicity = 2

 SCF Done:  E(UB3LYP) =  -874.588186013     A.U. after   30 cycles
 Normal termination of Gaussian 16 at Fri Dec 11 19:23:58 2020.
 Gaussian 16:  ES64L-G16RevA.03 25-Dec-2016

 ----------------------------------------------------------------------
 # B3LYP/6-311++G(d,p) empiricaldispersion=gd3bj scf=xqc pop=npa geom=c
 heck
 ----------------------------------------------------------------------

 -----------------------------------
 CID_80135664_JID_8046_Energie_anion
 -----------------------------------
 Structure from the checkpoint file:  "JID_8046.chk"
 Charge = -1 Multiplicity = 2

                         Standard orientation:
 ---------------------------------------------------------------------
 Center     Atomic      Atomic             Coordinates (Angstroms)
 Number     Number       Type             X           Y           Z
 ---------------------------------------------------------------------
      1          6           0        5.654066   -0.928466    0.210833
      2          6           0        4.180254   -1.198507    0.528135
      3          6           0        3.441566    0.003596    1.135485
      4          6           0        3.417403    1.266859    0.260024
      5          6           0        2.805706    1.069923   -1.136952
      6          6           0        1.409631    0.446664   -1.120725
      7          7           0        0.495555    1.295196   -0.360556
      8          6           0       -0.817053    1.110350   -0.090857
      9          6           0       -1.526684   -0.111431   -0.112999
     10          6           0       -2.922115   -0.058161    0.090748
     11          7           0       -3.559050    1.083587    0.340087
     12          6           0       -2.785701    2.176805    0.398061
     13          7           0       -1.484932    2.261657    0.195544
     14          8           0       -3.601730   -1.203172    0.081837
     15          6           0       -5.010096   -1.134394    0.356235
     16          7           0       -0.877537   -1.404405   -0.236075
     17          8           0       -1.319130   -2.206253   -1.054256
     18          8           0        0.084088   -1.622656    0.512803
     19          1           0        5.770699   -0.158514   -0.560643
     20          1           0        6.153308   -1.833910   -0.151414
     21          1           0        6.191747   -0.584379    1.103126
     22          1           0        3.665957   -1.533284   -0.382582
     23          1           0        4.108748   -2.037403    1.231682
     24          1           0        2.412432   -0.291906    1.373007
     25          1           0        3.913393    0.262156    2.093371
     26          1           0        2.859508    2.045361    0.796188
     27          1           0        4.434198    1.659409    0.136564
     28          1           0        2.773899    2.034643   -1.663026
     29          1           0        3.446011    0.416590   -1.740666
     30          1           0        1.036650    0.317301   -2.147431
     31          1           0        1.455710   -0.539554   -0.660204
     32          1           0        0.729411    2.281168   -0.328140
     33          1           0       -3.297305    3.107896    0.633810
     34          1           0       -5.517211   -0.517274   -0.388939
     35          1           0       -5.353258   -2.167373    0.301856
     36          1           0       -5.189844   -0.715951    1.349445
 ---------------------------------------------------------------------

 SCF Done:  E(UB3LYP) =  -874.933822987     A.U. after   23 cycles

 The electronic state is 2-A.
 Alpha  occ. eigenvalues --  -19.03455 -18.93358 -18.93321 -14.30494 -14.20660
 Alpha  occ. eigenvalues --  -14.17193 -14.17153 -10.13599 -10.12106 -10.11149
 Alpha  occ. eigenvalues --  -10.09317 -10.08097 -10.07592 -10.07267 -10.07025
 Alpha  occ. eigenvalues --  -10.07014 -10.06721 -10.06153  -1.01513  -0.96242
 Alpha  occ. eigenvalues --   -0.85936  -0.84170  -0.81226  -0.74061  -0.71106
 Alpha  occ. eigenvalues --   -0.67684  -0.66141  -0.61259  -0.60301  -0.56801
 Alpha  occ. eigenvalues --   -0.54599  -0.50961  -0.49604  -0.46685  -0.45284
 Alpha  occ. eigenvalues --   -0.43296  -0.41306  -0.38327  -0.37879  -0.36314
 Alpha  occ. eigenvalues --   -0.36149  -0.35460  -0.34799  -0.34080  -0.33509
 Alpha  occ. eigenvalues --   -0.31804  -0.31765  -0.30645  -0.30394  -0.30062
 Alpha  occ. eigenvalues --   -0.29227  -0.28454  -0.26630  -0.25804  -0.25392
 Alpha  occ. eigenvalues --   -0.23804  -0.23307  -0.22490  -0.22338  -0.21726
 Alpha  occ. eigenvalues --   -0.19513  -0.18314  -0.13749  -0.13231  -0.12705
 Alpha  occ. eigenvalues --   -0.11067  -0.10975  -0.08170   0.03900
 Alpha virt. eigenvalues --    0.06349   0.08163   0.08420   0.08592   0.09533
 Alpha virt. eigenvalues --    0.10080   0.10743   0.11248   0.11500   0.11974
 Alpha virt. eigenvalues --    0.12151   0.12392   0.12564   0.12812   0.13351

  Beta  occ. eigenvalues --  -19.03434 -18.92862 -18.92728 -14.29671 -14.20616
  Beta  occ. eigenvalues --  -14.17255 -14.17179 -10.13454 -10.11988 -10.11149
  Beta  occ. eigenvalues --  -10.09053 -10.08089 -10.07591 -10.07266 -10.07023
  Beta  occ. eigenvalues --  -10.07013 -10.06742 -10.06151  -1.00254  -0.96144
  Beta  occ. eigenvalues --   -0.85761  -0.83157  -0.81098  -0.74002  -0.71091
  Beta  occ. eigenvalues --   -0.67458  -0.66004  -0.61234  -0.60133  -0.56607
  Beta  occ. eigenvalues --   -0.54120  -0.50859  -0.49359  -0.46127  -0.45087
  Beta  occ. eigenvalues --   -0.43177  -0.41155  -0.38288  -0.37808  -0.36143
  Beta  occ. eigenvalues --   -0.35939  -0.34839  -0.34588  -0.33917  -0.31829
  Beta  occ. eigenvalues --   -0.31465  -0.31233  -0.30280  -0.30167  -0.29975
  Beta  occ. eigenvalues --   -0.28574  -0.27811  -0.26583  -0.25634  -0.25154
  Beta  occ. eigenvalues --   -0.23554  -0.23232  -0.22463  -0.22263  -0.21667
  Beta  occ. eigenvalues --   -0.19030  -0.18250  -0.13711  -0.12951  -0.10794
  Beta  occ. eigenvalues --   -0.10637  -0.08907  -0.07502
  Beta virt. eigenvalues --    0.06298   0.08114   0.08386   0.08526   0.09453
  Beta virt. eigenvalues --    0.10039   0.10601   0.10954   0.11214   0.11830
  Beta virt. eigenvalues --    0.12192   0.12374   0.12543   0.12842   0.13327

 Mulliken charges and spin densities:
               1          2
     1  C   -0.596855  -0.023573
     2  C   -0.202176   0.009038
     3  C   -0.184796   0.022489
     4  C   -0.241034  -0.022881
     5  C   -0.540703  -0.027056
     6  C   -0.112800  -0.060946
     7  N   -0.091590   0.028147
     8  C    0.146441   0.047788
     9  C   -0.383048   0.036147
    10  C    0.003835   0.068414
    11  N   -0.207223  -0.039592
    12  C   -0.054149   0.191024
    13  N   -0.167576  -0.027721
    14  O   -0.090456   0.006086
    15  C   -0.302363   0.000342
    16  N   -0.467239   0.260358
    17  O   -0.094913   0.226044
    18  O   -0.145620   0.186701
    19  H    0.124177   0.005535
    20  H    0.119128   0.007264
    21  H    0.119060   0.004032
    22  H    0.146856   0.006482
    23  H    0.143828   0.000356
    24  H    0.230279  -0.011658
    25  H    0.141018   0.002773
    26  H    0.112466   0.007150
    27  H    0.139202  -0.003901
    28  H    0.143740  -0.002327
    29  H    0.138880   0.015643
    30  H    0.124175   0.072439
    31  H    0.147428   0.027435
    32  H    0.278575  -0.005542
    33  H    0.165238  -0.014973
    34  H    0.164776  -0.000204
    35  H    0.132331   0.004527
    36  H    0.161107   0.004160
 Sum of Mulliken charges =  -1.00000   1.00000

 Dipole moment (field-independent basis, Debye):
    X=              4.4174    Y=              3.8715    Z=              0.3143  Tot=              5.8823
 Quadrupole moment (field-independent basis, Debye-Ang):
   XX=           -133.4797   YY=           -138.9021   ZZ=           -118.5932
   XY=              3.8444   XZ=             -3.4415   YZ=             -5.1739

 Summary of Natural Population Analysis:

                                       Natural Population
                Natural  -----------------------------------------------
    Atom  No    Charge         Core      Valence    Rydberg      Total
 -----------------------------------------------------------------------
      C    1   -0.28770      0.99967     2.28384    0.00419     3.28770
      C    2   -0.19287      0.99965     2.18624    0.00698     3.19287
      C    3   -0.19717      0.99963     2.18994    0.00760     3.19717
      C    4   -0.19056      0.99963     2.18378    0.00716     3.19056
      C    5   -0.19328      0.99963     2.18599    0.00765     3.19328
      C    6   -0.09625      0.99961     2.08721    0.00944     3.09625
      N    7   -0.30194      0.99965     2.78790    0.01439     3.80194
      C    8    0.23299      0.99952     1.75388    0.01360     2.76701
      C    9   -0.03460      0.99936     2.01972    0.01552     3.03460
      C   10    0.30659      0.99945     1.67899    0.01497     2.69341
      N   11   -0.31480      0.99967     2.80548    0.00965     3.81480
      C   12    0.19154      0.99969     1.78937    0.01940     2.80846
      N   13   -0.29186      0.99968     2.78275    0.00943     3.79186
      O   14   -0.25551      0.99984     3.24617    0.00949     4.25551
      C   15   -0.10179      0.99960     2.09387    0.00832     3.10179
      N   16    0.32645      0.99972     2.14776    0.02607     3.17355
      O   17   -0.16783      0.99990     3.16007    0.00786     4.16783
      O   18   -0.21423      0.99990     3.20511    0.00922     4.21423
      H   19    0.09354      0.00000     0.40557    0.00089     0.40646
      H   20    0.09527      0.00000     0.40389    0.00084     0.40473
      H   21    0.09158      0.00000     0.40741    0.00100     0.40842
      H   22    0.09761      0.00000     0.40026    0.00212     0.40239
      H   23    0.09645      0.00000     0.40247    0.00108     0.40355
      H   24    0.11856      0.00000     0.38031    0.00113     0.38144
      H   25    0.08904      0.00000     0.40991    0.00105     0.41096
      H   26    0.09830      0.00000     0.40059    0.00111     0.40170
      H   27    0.08946      0.00000     0.40941    0.00112     0.41054
      H   28    0.09064      0.00000     0.40808    0.00128     0.40936
      H   29    0.09751      0.00000     0.40129    0.00120     0.40249
      H   30    0.08860      0.00000     0.40928    0.00212     0.41140
      H   31    0.11968      0.00000     0.37717    0.00315     0.38032
      H   32    0.18606      0.00000     0.31199    0.00195     0.31394
      H   33    0.07009      0.00000     0.42869    0.00123     0.42991
      H   34    0.08736      0.00000     0.41146    0.00118     0.41264
      H   35    0.08594      0.00000     0.41326    0.00080     0.41406
      H   36    0.08712      0.00000     0.41168    0.00120     0.41288
 =======================================================================
   * Total *    0.00000     17.99381    49.78080    0.22540    68.00000

 Normal termination of Gaussian 16 at Fri Dec 11 19:38:38 2020.
