 Gaussian 16, Revision A.03,

 -----------------------------------------------------------
 # opt freq B3LYP/6-31G(d) empiricaldispersion=gd3bj scf=xqc
 -----------------------------------------------------------

 ------------------------------
 CID_65635394_JID_7287_neutraal
 ------------------------------
 Symbolic Z-matrix:
 Charge =  0 Multiplicity = 1

 SCF Done:  E(RB3LYP) =  -781.040660533     A.U. after   16 cycles
 SCF Done:  E(RB3LYP) =  -781.029513123     A.U. after   14 cycles
 SCF Done:  E(RB3LYP) =  -781.047604424     A.U. after   12 cycles
 SCF Done:  E(RB3LYP) =  -781.048681975     A.U. after   12 cycles
 SCF Done:  E(RB3LYP) =  -781.049462049     A.U. after   13 cycles
 SCF Done:  E(RB3LYP) =  -781.049900043     A.U. after   13 cycles
 SCF Done:  E(RB3LYP) =  -781.050934407     A.U. after   12 cycles
 SCF Done:  E(RB3LYP) =  -781.051426822     A.U. after   13 cycles
 SCF Done:  E(RB3LYP) =  -781.051727444     A.U. after   12 cycles
 SCF Done:  E(RB3LYP) =  -781.051845863     A.U. after   10 cycles
 SCF Done:  E(RB3LYP) =  -781.051928866     A.U. after   10 cycles
 SCF Done:  E(RB3LYP) =  -781.051929352     A.U. after    8 cycles
 SCF Done:  E(RB3LYP) =  -781.051929918     A.U. after    9 cycles
 SCF Done:  E(RB3LYP) =  -781.051930126     A.U. after    8 cycles
 SCF Done:  E(RB3LYP) =  -781.051930173     A.U. after    7 cycles
 Optimization completed.
    -- Stationary point found.
 Normal termination of Gaussian 16 at Sun Dec 13 12:41:47 2020.

 --------------------------------------------------------------------
 #N Geom=AllCheck Guess=TCheck SCRF=Check GenChk RB3LYP/6-31G(d) Freq
 --------------------------------------------------------------------

 Structure from the checkpoint file:  "JID_7287.chk"
 ------------------------------
 CID_65635394_JID_7287_neutraal
 ------------------------------
 Charge =  0 Multiplicity = 1

 SCF Done:  E(RB3LYP) =  -781.051930173     A.U. after    1 cycles

  Exact polarizability: 170.782  -8.028 150.600  -8.005 -19.218 109.236
 Approx polarizability: 246.220 -20.869 236.925 -11.916 -45.626 188.361

                      1                      2                      3
                      A                      A                      A
 Frequencies --     16.7506                34.4423                52.6980
 Red. masses --      6.6645                 6.6203                 4.4164
 Frc consts  --      0.0011                 0.0046                 0.0072
 IR Inten    --      2.7515                 3.5938                 0.8295

                      4                      5                      6
                      A                      A                      A
 Frequencies --     66.9743                88.4507               102.4527
 Red. masses --      2.9851                 3.5072                 1.4179
 Frc consts  --      0.0079                 0.0162                 0.0088
 IR Inten    --      3.4088                 4.2601                 0.5033

                      7                      8                      9
                      A                      A                      A
 Frequencies --    118.6007               141.8466               152.2234
 Red. masses --      4.9203                 3.5241                 3.3238
 Frc consts  --      0.0408                 0.0418                 0.0454
 IR Inten    --      5.5076                 1.2012                 2.1842

                     10                     11                     12
                      A                      A                      A
 Frequencies --    185.1461               202.4385               223.9546
 Red. masses --      1.1476                 3.5839                 3.7625
 Frc consts  --      0.0232                 0.0865                 0.1112
 IR Inten    --      0.4643                 0.4877                 2.3892

                     13                     14                     15
                      A                      A                      A
 Frequencies --    268.5197               301.7003               308.6207
 Red. masses --      3.7705                 3.1375                 4.4084
 Frc consts  --      0.1602                 0.1683                 0.2474
 IR Inten    --      1.4014                 3.7048                 8.3056

                     16                     17                     18
                      A                      A                      A
 Frequencies --    330.4203               352.0987               366.4060
 Red. masses --      3.4279                 3.6643                 3.5766
 Frc consts  --      0.2205                 0.2677                 0.2829
 IR Inten    --     10.9084                13.9359                 7.6885

                     19                     20                     21
                      A                      A                      A
 Frequencies --    391.5857               405.8137               415.7943
 Red. masses --      2.9909                 2.7960                 1.4409
 Frc consts  --      0.2702                 0.2713                 0.1468
 IR Inten    --      0.9860                 9.2877                 9.8224

                     22                     23                     24
                      A                      A                      A
 Frequencies --    445.0674               501.7243               546.2844
 Red. masses --      3.0928                 4.9146                 5.0404
 Frc consts  --      0.3610                 0.7289                 0.8862
 IR Inten    --      0.3887                 4.3729                 2.6968

                     25                     26                     27
                      A                      A                      A
 Frequencies --    557.2995               589.2028               621.4361
 Red. masses --      3.5824                 4.3443                 4.8409
 Frc consts  --      0.6556                 0.8886                 1.1015
 IR Inten    --      7.1421                 2.8827                12.5953

                     28                     29                     30
                      A                      A                      A
 Frequencies --    642.7320               647.5262               682.4470
 Red. masses --      3.9828                 1.4835                 4.0198
 Frc consts  --      0.9694                 0.3665                 1.1030
 IR Inten    --     40.3796               270.8686                 8.0897

                     31                     32                     33
                      A                      A                      A
 Frequencies --    737.7939               765.8298               806.1805
 Red. masses --      2.6812                 2.9850                 2.7766
 Frc consts  --      0.8599                 1.0315                 1.0632
 IR Inten    --     24.0250                33.2399                 8.8186

                     34                     35                     36
                      A                      A                      A
 Frequencies --    834.6455               844.4751               865.8706
 Red. masses --      3.0885                 3.8562                 4.3461
 Frc consts  --      1.2677                 1.6202                 1.9198
 IR Inten    --      4.0169                 0.8674                18.6504

                     37                     38                     39
                      A                      A                      A
 Frequencies --    913.9567               920.0075               944.6242
 Red. masses --      1.9846                 1.6661                 1.2502
 Frc consts  --      0.9767                 0.8309                 0.6573
 IR Inten    --      4.7316                 6.4580                 0.8977

                     40                     41                     42
                      A                      A                      A
 Frequencies --    974.6383              1019.7766              1049.4165
 Red. masses --      2.8015                 2.3130                 4.8484
 Frc consts  --      1.5679                 1.4172                 3.1459
 IR Inten    --      7.7145                 6.1639                64.5654

                     43                     44                     45
                      A                      A                      A
 Frequencies --   1068.6026              1084.1772              1104.9745
 Red. masses --      2.6516                 1.9686                 1.8055
 Frc consts  --      1.7840                 1.3633                 1.2989
 IR Inten    --     36.3320               107.2682                 7.0916

                     46                     47                     48
                      A                      A                      A
 Frequencies --   1161.0007              1166.1176              1186.9742
 Red. masses --      1.3328                 1.4519                 1.4540
 Frc consts  --      1.0585                 1.1633                 1.2069
 IR Inten    --      6.3368                29.7353                14.1414

                     49                     50                     51
                      A                      A                      A
 Frequencies --   1191.6488              1211.5520              1233.9955
 Red. masses --      1.2551                 1.5152                 1.6857
 Frc consts  --      1.0501                 1.3104                 1.5123
 IR Inten    --      2.0766                22.9448                80.8306

                     52                     53                     54
                      A                      A                      A
 Frequencies --   1266.8065              1273.7096              1290.2407
 Red. masses --      2.1277                 3.1181                 1.7784
 Frc consts  --      2.0118                 2.9804                 1.7443
 IR Inten    --     49.9480               102.8935                 8.7450

                     55                     56                     57
                      A                      A                      A
 Frequencies --   1302.5146              1321.2769              1363.6814
 Red. masses --      1.8894                 2.5582                 2.0169
 Frc consts  --      1.8886                 2.6313                 2.2098
 IR Inten    --     96.9903                27.6981                55.8243

                     58                     59                     60
                      A                      A                      A
 Frequencies --   1379.2519              1407.0351              1423.2595
 Red. masses --      3.4944                 1.5473                 1.3127
 Frc consts  --      3.9166                 1.8049                 1.5667
 IR Inten    --      4.7196                61.2373                31.0669

                     61                     62                     63
                      A                      A                      A
 Frequencies --   1472.0434              1495.5604              1497.2807
 Red. masses --      1.1814                 1.2310                 1.1068
 Frc consts  --      1.5082                 1.6223                 1.4619
 IR Inten    --     20.3234                15.4103                 9.1084

                     64                     65                     66
                      A                      A                      A
 Frequencies --   1511.3857              1515.4637              1518.8214
 Red. masses --      2.3604                 1.2117                 1.0545
 Frc consts  --      3.1767                 1.6396                 1.4333
 IR Inten    --     34.5737                11.4003                 5.4320

                     67                     68                     69
                      A                      A                      A
 Frequencies --   1524.0797              1529.0328              1535.4563
 Red. masses --      1.1856                 1.9295                 1.1233
 Frc consts  --      1.6226                 2.6578                 1.5604
 IR Inten    --     40.1650                33.4724                22.3187

                     70                     71                     72
                      A                      A                      A
 Frequencies --   1536.7607              1631.8754              1650.8785
 Red. masses --      1.0613                 4.0477                 2.4953
 Frc consts  --      1.4768                 6.3509                 4.0069
 IR Inten    --     13.1887                15.2863                10.1449

                     73                     74                     75
                      A                      A                      A
 Frequencies --   1679.0276              1773.6976              2370.6761
 Red. masses --      1.9355                11.3637                12.5936
 Frc consts  --      3.2149                21.0634                41.7009
 IR Inten    --    114.5267               259.7430                 9.0210

                     76                     77                     78
                      A                      A                      A
 Frequencies --   3005.2298              3026.0328              3030.3509
 Red. masses --      1.0737                 1.0329                 1.0511
 Frc consts  --      5.7131                 5.5728                 5.6870
 IR Inten    --     44.1878                46.2174                56.9375

                     79                     80                     81
                      A                      A                      A
 Frequencies --   3069.9519              3088.0176              3106.5436
 Red. masses --      1.0613                 1.1070                 1.1003
 Frc consts  --      5.8932                 6.2198                 6.2563
 IR Inten    --      8.5782                31.1709                 4.2789

                     82                     83                     84
                      A                      A                      A
 Frequencies --   3115.0061              3151.1356              3159.8967
 Red. masses --      1.0905                 1.1012                 1.0902
 Frc consts  --      6.2344                 6.4425                 6.4137
 IR Inten    --     30.5940                34.6322                 4.2342

                     85                     86                     87
                      A                      A                      A
 Frequencies --   3194.2834              3194.8668              3202.5138
 Red. masses --      1.0860                 1.0974                 1.0909
 Frc consts  --      6.5290                 6.5998                 6.5919
 IR Inten    --      0.3490                 1.4613                11.4228

                     88                     89                     90
                      A                      A                      A
 Frequencies --   3217.7582              3581.7008              3686.2209
 Red. masses --      1.0967                 1.0471                 1.0990
 Frc consts  --      6.6903                 7.9142                 8.7988
 IR Inten    --     18.4256                32.9660                38.9795

 - Thermochemistry -
 -------------------
 Temperature   298.150 Kelvin.  Pressure   1.00000 Atm.
 Atom     1 has atomic number  6 and mass  12.00000

 Molecular mass:   233.11643 amu.
 Principal axes and moments of inertia in atomic units:
                           1         2         3
     Eigenvalues --  2943.978464248.818876044.22145
           X            0.99990  -0.01408  -0.00256
           Y            0.01406   0.99987  -0.00734
           Z            0.00267   0.00731   0.99997
 This molecule is an asymmetric top.
 Rotational symmetry number  1.
 Warning -- assumption of classical behavior for rotation
           may cause significant error
 Rotational temperatures (Kelvin)      0.02942     0.02039     0.01433
 Rotational constants (GHZ):           0.61303     0.42476     0.29859
 Zero-point vibrational energy     687531.2 (Joules/Mol)
                                  164.32390 (Kcal/Mol)
 Warning -- explicit consideration of  26 degrees of freedom as
           vibrations may cause significant error
 Vibrational temperatures:     24.10    49.55    75.82    96.36   127.26
          (Kelvin)            147.41   170.64   204.09   219.02   266.38
                              291.26   322.22   386.34   434.08   444.04
                              475.40   506.59   527.18   563.40   583.88
                              598.24   640.35   721.87   785.98   801.83
                              847.73   894.11   924.75   931.65   981.89
                             1061.52  1101.86  1159.91  1200.87  1215.01
                             1245.79  1314.98  1323.69  1359.10  1402.29
                             1467.23  1509.88  1537.48  1559.89  1589.81
                             1670.42  1677.78  1707.79  1714.52  1743.15
                             1775.44  1822.65  1832.58  1856.37  1874.03
                             1901.02  1962.03  1984.44  2024.41  2047.75
                             2117.94  2151.78  2154.25  2174.55  2180.41
                             2185.25  2192.81  2199.94  2209.18  2211.06
                             2347.90  2375.25  2415.75  2551.96  3410.87
                             4323.86  4353.79  4360.00  4416.98  4442.97
                             4469.62  4481.80  4533.78  4546.39  4595.86
                             4596.70  4607.70  4629.64  5153.27  5303.65

 Zero-point correction=                           0.261867 (Hartree/Particle)
 Thermal correction to Energy=                    0.279159
 Thermal correction to Enthalpy=                  0.280103
 Thermal correction to Gibbs Free Energy=         0.215340
 Sum of electronic and zero-point Energies=           -780.790063
 Sum of electronic and thermal Energies=              -780.772771
 Sum of electronic and thermal Enthalpies=            -780.771827
 Sum of electronic and thermal Free Energies=         -780.836590

                     E (Thermal)             CV                S
                      KCal/Mol        Cal/Mol-Kelvin    Cal/Mol-Kelvin
 Total                  175.175             63.401            136.306
 Electronic               0.000              0.000              0.000
 Translational            0.889              2.981             42.241
 Rotational               0.889              2.981             32.691
 Vibrational            173.398             57.439             61.373
 Vibration     1          0.593              1.986              6.986
 Vibration     2          0.594              1.983              5.556
 Vibration     3          0.596              1.977              4.713
 Vibration     4          0.598              1.970              4.240
 Vibration     5          0.601              1.957              3.694
 Vibration     6          0.605              1.947              3.407
 Vibration     7          0.609              1.934              3.123
 Vibration     8          0.615              1.911              2.779
 Vibration     9          0.619              1.900              2.644
 Vibration    10          0.631              1.860              2.276
 Vibration    11          0.639              1.836              2.111
 Vibration    12          0.649              1.805              1.927
 Vibration    13          0.673              1.731              1.606
 Vibration    14          0.694              1.670              1.407
 Vibration    15          0.698              1.657              1.370
 Vibration    16          0.713              1.615              1.258
 Vibration    17          0.729              1.571              1.157
 Vibration    18          0.739              1.541              1.095
 Vibration    19          0.759              1.488              0.994
 Vibration    20          0.771              1.458              0.942
 Vibration    21          0.779              1.436              0.906
 Vibration    22          0.804              1.372              0.811
 Vibration    23          0.857              1.246              0.654
 Vibration    24          0.901              1.148              0.552
 Vibration    25          0.913              1.124              0.529
 Vibration    26          0.946              1.055              0.469

                           ! Non-Optimized Parameters !
 Normal termination of Gaussian 16 at Sun Dec 13 12:55:10 2020.

 ----------------------------------------------------------------------
 # B3LYP/6-311++G(d,p) empiricaldispersion=gd3bj scf=xqc pop=npa geom=c
 heck
 ----------------------------------------------------------------------

 --------------------------------------
 CID_65635394_JID_7287_Energie_neutraal
 --------------------------------------
 Structure from the checkpoint file:  "JID_7287.chk"
 Charge =  0 Multiplicity = 1

 SCF Done:  E(RB3LYP) =  -781.274791252     A.U. after   15 cycles
 Normal termination of Gaussian 16 at Sun Dec 13 13:00:58 2020.

 ----------------------------------------------------------------------
 # B3LYP/6-311++G(d,p) empiricaldispersion=gd3bj scf=xqc pop=npa geom=c
 heck
 ----------------------------------------------------------------------

 ------------------------------------
 CID_65635394_JID_7287_Energie_kation
 ------------------------------------
 Structure from the checkpoint file:  "JID_7287.chk"
 Charge =  1 Multiplicity = 2

 SCF Done:  E(UB3LYP) =  -780.995201992     A.U. after   24 cycles
 Normal termination of Gaussian 16 at Sun Dec 13 13:14:21 2020.
 Gaussian 16:  ES64L-G16RevA.03 25-Dec-2016

 ----------------------------------------------------------------------
 # B3LYP/6-311++G(d,p) empiricaldispersion=gd3bj scf=xqc pop=npa geom=c
 heck
 ----------------------------------------------------------------------

 -----------------------------------
 CID_65635394_JID_7287_Energie_anion
 -----------------------------------
 Structure from the checkpoint file:  "JID_7287.chk"
 Charge = -1 Multiplicity = 2

                         Standard orientation:
 ---------------------------------------------------------------------
 Center     Atomic      Atomic             Coordinates (Angstroms)
 Number     Number       Type             X           Y           Z
 ---------------------------------------------------------------------
      1          6           0        3.546364   -0.472132   -0.439462
      2          7           0        2.137752   -0.356595   -0.069875
      3          6           0        1.884170    0.308535    1.205653
      4          6           0        2.215319    1.815254    1.221589
      5          6           0        1.334450    2.618077    0.373601
      6          7           0        0.615644    3.242412   -0.290072
      7          6           0        1.323896   -1.442080   -0.443652
      8          8           0        1.782642   -2.399376   -1.046464
      9          6           0       -0.128390   -1.325668   -0.096264
     10          6           0       -0.914030   -0.282587   -0.633726
     11          6           0       -2.267938   -0.210253   -0.238749
     12          6           0       -2.825601   -1.161494    0.603931
     13          6           0       -2.050827   -2.221291    1.086641
     14          6           0       -0.708345   -2.295436    0.729690
     15          8           0       -3.026148    0.835444   -0.737542
     16          6           0       -3.130105    1.940524    0.164095
     17          7           0       -0.432862    0.605507   -1.574435
     18          1           0        3.989551    0.522526   -0.540009
     19          1           0        3.614751   -0.995276   -1.391552
     20          1           0        4.115407   -1.042375    0.308968
     21          1           0        0.836901    0.164683    1.470669
     22          1           0        2.494396   -0.159859    1.993995
     23          1           0        2.121957    2.177230    2.252502
     24          1           0        3.253269    1.994051    0.921358
     25          1           0       -3.875504   -1.067115    0.865642
     26          1           0       -2.492725   -2.975327    1.729765
     27          1           0       -0.083811   -3.106424    1.092435
     28          1           0       -3.605684    1.637806    1.105896
     29          1           0       -2.143577    2.371443    0.381096
     30          1           0       -3.751205    2.688811   -0.333225
     31          1           0       -1.000700    1.431368   -1.705501
     32          1           0        0.557510    0.801955   -1.539393
 ---------------------------------------------------------------------

 SCF Done:  E(UB3LYP) =  -781.272826002     A.U. after   33 cycles
 SCF Done:  E(UB3LYP) =  -781.272826002     a.u. after    1 cycles

 The electronic state is 2-A.
 Alpha  occ. eigenvalues --  -19.05444 -18.99208 -14.24416 -14.21935 -14.21545
 Alpha  occ. eigenvalues --  -10.16958 -10.13441 -10.13058 -10.12490 -10.11879
 Alpha  occ. eigenvalues --  -10.11716 -10.11385 -10.09523 -10.08506 -10.08461
 Alpha  occ. eigenvalues --  -10.08267 -10.07831  -0.96965  -0.94379  -0.84129
 Alpha  occ. eigenvalues --   -0.82541  -0.81379  -0.75115  -0.69726  -0.67230
 Alpha  occ. eigenvalues --   -0.64821  -0.61131  -0.60069  -0.57237  -0.53079
 Alpha  occ. eigenvalues --   -0.50821  -0.46378  -0.44224  -0.43565  -0.42448
 Alpha  occ. eigenvalues --   -0.41527  -0.38935  -0.37802  -0.37610  -0.36542
 Alpha  occ. eigenvalues --   -0.36331  -0.36175  -0.34792  -0.34224  -0.31943
 Alpha  occ. eigenvalues --   -0.31813  -0.30216  -0.29583  -0.28815  -0.28761
 Alpha  occ. eigenvalues --   -0.27621  -0.27272  -0.26807  -0.25513  -0.24085
 Alpha  occ. eigenvalues --   -0.23476  -0.22255  -0.19766  -0.17645  -0.15520
 Alpha  occ. eigenvalues --   -0.14661  -0.11544   0.04011
 Alpha virt. eigenvalues --    0.06163   0.06631   0.07666   0.08073   0.08504
 Alpha virt. eigenvalues --    0.09250   0.09545   0.09892   0.10338   0.10949
 Alpha virt. eigenvalues --    0.11211   0.11685   0.11901   0.12349   0.12511

  Beta  occ. eigenvalues --  -19.05441 -18.99093 -14.24443 -14.21931 -14.21505
  Beta  occ. eigenvalues --  -10.16864 -10.13436 -10.13056 -10.12463 -10.11821
  Beta  occ. eigenvalues --  -10.11706 -10.11313 -10.09484 -10.08499 -10.08428
  Beta  occ. eigenvalues --  -10.08243 -10.07830  -0.96958  -0.94189  -0.84083
  Beta  occ. eigenvalues --   -0.82517  -0.81305  -0.75075  -0.69609  -0.67160
  Beta  occ. eigenvalues --   -0.64779  -0.61043  -0.60038  -0.57063  -0.52999
  Beta  occ. eigenvalues --   -0.50791  -0.46289  -0.44183  -0.43527  -0.42344
  Beta  occ. eigenvalues --   -0.41479  -0.38883  -0.37778  -0.37513  -0.36518
  Beta  occ. eigenvalues --   -0.36235  -0.36154  -0.34687  -0.34174  -0.31853
  Beta  occ. eigenvalues --   -0.31713  -0.30091  -0.29503  -0.28729  -0.28688
  Beta  occ. eigenvalues --   -0.27510  -0.27189  -0.26632  -0.25385  -0.23935
  Beta  occ. eigenvalues --   -0.23422  -0.22150  -0.19752  -0.17540  -0.15432
  Beta  occ. eigenvalues --   -0.14475  -0.11461
  Beta virt. eigenvalues --    0.06386   0.06787   0.07368   0.07624   0.08759
  Beta virt. eigenvalues --    0.09002   0.09484   0.09737   0.10107   0.10725
  Beta virt. eigenvalues --    0.11235   0.11536   0.11854   0.12203   0.12538

 Mulliken charges and spin densities:
               1          2
     1  C    0.755194  -1.115121
     2  N    0.111199  -0.044688
     3  C   -0.666086   0.460723
     4  C    1.459346  -1.803154
     5  C    0.556912  -0.560969
     6  N   -0.384870   0.097030
     7  C   -0.260898  -0.316662
     8  O   -0.277775   0.032202
     9  C    0.422987   0.300976
    10  C    0.028153   0.163449
    11  C   -0.550599   0.136867
    12  C    0.323908  -0.189281
    13  C   -0.388837  -0.039887
    14  C   -0.249558   0.032680
    15  O   -0.193025   0.003611
    16  C   -0.131000  -0.163157
    17  N   -0.356891   0.013609
    18  H   -0.058605   0.190823
    19  H    0.139556   0.036578
    20  H   -0.194330   0.371547
    21  H    0.278659  -0.100313
    22  H   -1.079118   1.315692
    23  H   -0.942694   1.174060
    24  H   -0.395054   0.585021
    25  H    0.165207  -0.003021
    26  H    0.083896   0.065265
    27  H    0.091361   0.097873
    28  H    0.003641   0.114763
    29  H    0.093799   0.072053
    30  H    0.141580   0.001999
    31  H    0.269151   0.009749
    32  H    0.204791   0.059683
 Sum of Mulliken charges =  -1.00000   1.00000

 Dipole moment (field-independent basis, Debye):
    X=             -7.7927    Y=             -1.5661    Z=             -3.2546  Tot=              8.5890
 Quadrupole moment (field-independent basis, Debye-Ang):
   XX=           -154.5965   YY=           -148.3891   ZZ=           -144.6925
   XY=             -5.6246   XZ=            -20.8512   YZ=            -12.4277

 Summary of Natural Population Analysis:

                                       Natural Population
                Natural  -----------------------------------------------
    Atom  No    Charge         Core      Valence    Rydberg      Total
 -----------------------------------------------------------------------
      C    1   -0.18026      0.99963     2.17191    0.00872     3.18026
      N    2   -0.27746      0.99966     2.76593    0.01186     3.77746
      C    3   -0.08178      0.99959     2.06721    0.01499     3.08178
      C    4   -0.25532      0.99953     2.24415    0.01164     3.25532
      C    5    0.17278      0.99965     1.81099    0.01657     2.82722
      N    6   -0.19866      0.99978     2.68754    0.01134     3.69866
      C    7    0.34974      0.99963     1.62156    0.02908     2.65026
      O    8   -0.29578      0.99988     3.29046    0.00544     4.29578
      C    9   -0.05726      0.99946     2.04978    0.00801     3.05726
      C   10    0.07076      0.99947     1.91419    0.01559     2.92924
      C   11    0.12857      0.99930     1.85837    0.01375     2.87143
      C   12   -0.10653      0.99947     2.09663    0.01043     3.10653
      C   13   -0.13548      0.99962     2.12213    0.01373     3.13548
      C   14   -0.06572      0.99957     2.05954    0.00662     3.06572
      O   15   -0.29616      0.99987     3.28682    0.00947     4.29616
      C   16   -0.10168      0.99960     2.09266    0.00942     3.10168
      N   17   -0.39036      0.99970     2.88202    0.00864     3.89036
      H   18    0.09428      0.00000     0.40455    0.00117     0.40572
      H   19    0.11032      0.00000     0.38876    0.00093     0.38968
      H   20    0.09566      0.00000     0.40305    0.00129     0.40434
      H   21    0.10883      0.00000     0.38830    0.00287     0.39117
      H   22    0.10321      0.00000     0.38993    0.00685     0.39679
      H   23    0.13397      0.00000     0.35650    0.00953     0.36603
      H   24    0.12400      0.00000     0.37229    0.00371     0.37600
      H   25    0.10083      0.00000     0.39813    0.00104     0.39917
      H   26    0.09879      0.00000     0.40034    0.00086     0.40121
      H   27    0.10128      0.00000     0.39712    0.00159     0.39872
      H   28    0.08125      0.00000     0.41759    0.00116     0.41875
      H   29    0.09144      0.00000     0.40721    0.00134     0.40856
      H   30    0.08703      0.00000     0.41224    0.00073     0.41297
      H   31    0.19426      0.00000     0.30385    0.00189     0.30574
      H   32    0.19564      0.00000     0.30177    0.00259     0.30436
 =======================================================================
   * Total *    0.00021     16.99342    44.76353    0.24285    61.99979

 Normal termination of Gaussian 16 at Sun Dec 13 13:33:17 2020.
