 Gaussian 16, Revision A.03,

 -----------------------------------------------------------
 # opt freq B3LYP/6-31G(d) empiricaldispersion=gd3bj scf=xqc
 -----------------------------------------------------------

 -------------------------------
 CID_152940034_JID_1362_neutraal
 -------------------------------
 Symbolic Z-matrix:
 Charge =  0 Multiplicity = 1

 SCF Done:  E(RB3LYP) =  -448.501371052     A.U. after   13 cycles
 SCF Done:  E(RB3LYP) =  -448.504411060     A.U. after   11 cycles
 SCF Done:  E(RB3LYP) =  -448.504675751     A.U. after   11 cycles
 SCF Done:  E(RB3LYP) =  -448.504981245     A.U. after   11 cycles
 SCF Done:  E(RB3LYP) =  -448.505227856     A.U. after   10 cycles
 SCF Done:  E(RB3LYP) =  -448.505316527     A.U. after   10 cycles
 SCF Done:  E(RB3LYP) =  -448.505410063     A.U. after   10 cycles
 SCF Done:  E(RB3LYP) =  -448.505479127     A.U. after   11 cycles
 SCF Done:  E(RB3LYP) =  -448.505526323     A.U. after    9 cycles
 SCF Done:  E(RB3LYP) =  -448.505567003     A.U. after    9 cycles
 SCF Done:  E(RB3LYP) =  -448.505587246     A.U. after    9 cycles
 SCF Done:  E(RB3LYP) =  -448.505591200     A.U. after   10 cycles
 SCF Done:  E(RB3LYP) =  -448.505593895     A.U. after    8 cycles
 SCF Done:  E(RB3LYP) =  -448.505594588     A.U. after    7 cycles
 SCF Done:  E(RB3LYP) =  -448.505594572     A.U. after    6 cycles
 Optimization completed.
    -- Stationary point found.
 Normal termination of Gaussian 16 at Tue Dec  8 19:54:37 2020.

 --------------------------------------------------------------------
 #N Geom=AllCheck Guess=TCheck SCRF=Check GenChk RB3LYP/6-31G(d) Freq
 --------------------------------------------------------------------

 Structure from the checkpoint file:  "JID_1362.chk"
 -------------------------------
 CID_152940034_JID_1362_neutraal
 -------------------------------
 Charge =  0 Multiplicity = 1

 SCF Done:  E(RB3LYP) =  -448.505594572     A.U. after    1 cycles

  Exact polarizability: 125.249  -6.575 107.092   6.890   0.061 106.209
 Approx polarizability: 175.747 -12.798 140.806  17.557  -0.908 161.141

                      1                      2                      3
                      A                      A                      A
 Frequencies --     39.3942                93.3923               100.0000
 Red. masses --      2.8777                 2.5684                 2.6415
 Frc consts  --      0.0026                 0.0132                 0.0156
 IR Inten    --      0.2228                 0.3592                 0.3946

                      4                      5                      6
                      A                      A                      A
 Frequencies --    166.3609               177.4237               185.8942
 Red. masses --      1.4365                 2.9541                 1.9110
 Frc consts  --      0.0234                 0.0548                 0.0389
 IR Inten    --      1.2211                 0.1957                 1.8324

                      7                      8                      9
                      A                      A                      A
 Frequencies --    202.0582               225.6861               237.0097
 Red. masses --      2.1739                 1.0552                 1.1942
 Frc consts  --      0.0523                 0.0317                 0.0395
 IR Inten    --      0.3331                 0.0178                 6.6029

                     10                     11                     12
                      A                      A                      A
 Frequencies --    260.4881               269.7166               275.9154
 Red. masses --      2.1393                 1.2201                 1.2419
 Frc consts  --      0.0855                 0.0523                 0.0557
 IR Inten    --      2.6669                 0.2386                 9.4360

                     13                     14                     15
                      A                      A                      A
 Frequencies --    293.8261               325.8222               334.6758
 Red. masses --      1.3525                 2.2239                 2.2657
 Frc consts  --      0.0688                 0.1391                 0.1495
 IR Inten    --      9.2337                 0.2551                 0.5477

                     16                     17                     18
                      A                      A                      A
 Frequencies --    360.0686               405.9080               424.1272
 Red. masses --      1.8138                 2.1777                 2.4228
 Frc consts  --      0.1386                 0.2114                 0.2568
 IR Inten    --     38.7217                 0.3918                14.0457

                     19                     20                     21
                      A                      A                      A
 Frequencies --    437.1185               465.6472               525.9441
 Red. masses --      2.2653                 2.6790                 2.9506
 Frc consts  --      0.2550                 0.3422                 0.4809
 IR Inten    --      4.2890                 2.7336                 6.4407

                     22                     23                     24
                      A                      A                      A
 Frequencies --    576.8286               617.4885               716.2646
 Red. masses --      3.2137                 2.6928                 1.4025
 Frc consts  --      0.6300                 0.6049                 0.4239
 IR Inten    --      0.5331                10.9948               303.9877

                     25                     26                     27
                      A                      A                      A
 Frequencies --    775.4348               854.7058               870.6383
 Red. masses --      3.0603                 2.4984                 2.1757
 Frc consts  --      1.0842                 1.0753                 0.9717
 IR Inten    --      2.8927                 1.4486                 2.7936

                     28                     29                     30
                      A                      A                      A
 Frequencies --    898.4841               940.3461               946.9623
 Red. masses --      1.3995                 1.2065                 1.4422
 Frc consts  --      0.6656                 0.6285                 0.7620
 IR Inten    --      9.4902                 2.2700                 0.3702

                     31                     32                     33
                      A                      A                      A
 Frequencies --    951.3453               978.0618               981.6034
 Red. masses --      1.5244                 1.4705                 1.4657
 Frc consts  --      0.8129                 0.8288                 0.8321
 IR Inten    --      2.2560                 1.0882                 0.0180

                     34                     35                     36
                      A                      A                      A
 Frequencies --   1007.2729              1021.7554              1080.8027
 Red. masses --      1.7898                 1.4868                 1.4134
 Frc consts  --      1.0699                 0.9145                 0.9728
 IR Inten    --      8.4756                 4.7066                 4.4776

                     37                     38                     39
                      A                      A                      A
 Frequencies --   1094.8359              1118.3873              1136.6784
 Red. masses --      2.0127                 1.8697                 1.8288
 Frc consts  --      1.4214                 1.3779                 1.3922
 IR Inten    --      0.8136                 2.1077                 8.7458

                     40                     41                     42
                      A                      A                      A
 Frequencies --   1149.9967              1199.4681              1201.9603
 Red. masses --      1.5486                 2.2905                 2.2426
 Frc consts  --      1.2067                 1.9416                 1.9089
 IR Inten    --      4.1656                28.4692                15.7175

                     43                     44                     45
                      A                      A                      A
 Frequencies --   1211.3832              1221.9900              1302.5693
 Red. masses --      2.1280                 2.0889                 2.5106
 Frc consts  --      1.8398                 1.8378                 2.5097
 IR Inten    --      4.1851                 3.4682                11.5991

                     46                     47                     48
                      A                      A                      A
 Frequencies --   1310.8969              1333.6581              1371.0727
 Red. masses --      1.3231                 1.3382                 1.2970
 Frc consts  --      1.3396                 1.4024                 1.4365
 IR Inten    --      1.3500                 4.8737                 3.7287

                     49                     50                     51
                      A                      A                      A
 Frequencies --   1373.4825              1393.8998              1400.5431
 Red. masses --      1.3467                 1.3204                 1.3083
 Frc consts  --      1.4968                 1.5115                 1.5120
 IR Inten    --      2.1017                 2.6473                 1.3815

                     52                     53                     54
                      A                      A                      A
 Frequencies --   1424.6736              1432.8902              1435.6241
 Red. masses --      1.2820                 1.2733                 1.3998
 Frc consts  --      1.5331                 1.5403                 1.6997
 IR Inten    --      3.3817                 4.8920                 0.8362

                     55                     56                     57
                      A                      A                      A
 Frequencies --   1448.5297              1448.8350              1457.8150
 Red. masses --      1.2294                 1.2560                 1.2420
 Frc consts  --      1.5199                 1.5533                 1.5552
 IR Inten    --     10.8143                 3.4740                 6.5504

                     58                     59                     60
                      A                      A                      A
 Frequencies --   1508.2944              1516.9347              1520.5579
 Red. masses --      1.0478                 1.0440                 1.0474
 Frc consts  --      1.4044                 1.4154                 1.4268
 IR Inten    --      1.4826                 0.9565                 1.4877

                     61                     62                     63
                      A                      A                      A
 Frequencies --   1521.6915              1527.4163              1532.2100
 Red. masses --      1.0456                 1.0528                 1.0502
 Frc consts  --      1.4265                 1.4472                 1.4526
 IR Inten    --      5.1218                 1.3564                 9.7096

                     64                     65                     66
                      A                      A                      A
 Frequencies --   1535.8776              1541.3612              1544.5294
 Red. masses --      1.0514                 1.0474                 1.0524
 Frc consts  --      1.4613                 1.4661                 1.4791
 IR Inten    --      2.6840                 3.3745                 6.3910

                     67                     68                     69
                      A                      A                      A
 Frequencies --   1546.7121              1678.8761              1752.2515
 Red. masses --      1.0513                 1.1799                 4.4405
 Frc consts  --      1.4819                 1.9595                 8.0330
 IR Inten    --      5.6887                34.9732                85.4238

                     70                     71                     72
                      A                      A                      A
 Frequencies --   2967.6474              3033.3199              3035.5516
 Red. masses --      1.0807                 1.0523                 1.0607
 Frc consts  --      5.6075                 5.7046                 5.7585
 IR Inten    --     32.2624                18.9494                 8.7999

                     73                     74                     75
                      A                      A                      A
 Frequencies --   3038.5179              3040.5935              3045.8252
 Red. masses --      1.0516                 1.0584                 1.0422
 Frc consts  --      5.7205                 5.7654                 5.6963
 IR Inten    --     24.2418                21.7343                34.9573

                     76                     77                     78
                      A                      A                      A
 Frequencies --   3048.5610              3052.7866              3084.7987
 Red. masses --      1.0518                 1.0400                 1.0936
 Frc consts  --      5.7593                 5.7103                 6.1317
 IR Inten    --     71.8291                25.1177                28.1027

                     79                     80                     81
                      A                      A                      A
 Frequencies --   3096.7327              3104.6435              3107.2866
 Red. masses --      1.1001                 1.0994                 1.1014
 Frc consts  --      6.2158                 6.2434                 6.2655
 IR Inten    --      1.8600                64.1572                22.1709

                     82                     83                     84
                      A                      A                      A
 Frequencies --   3109.7875              3114.2932              3124.5471
 Red. masses --      1.1014                 1.1004                 1.1000
 Frc consts  --      6.2757                 6.2879                 6.3275
 IR Inten    --     78.7018                35.9434                38.0258

                     85                     86                     87
                      A                      A                      A
 Frequencies --   3126.3546              3130.5405              3132.6301
 Red. masses --      1.1009                 1.1000                 1.0995
 Frc consts  --      6.3400                 6.3515                 6.3570
 IR Inten    --     11.9247                35.6251                39.7738

                     88                     89                     90
                      A                      A                      A
 Frequencies --   3167.3051              3524.6963              3623.6449
 Red. masses --      1.0892                 1.0478                 1.0965
 Frc consts  --      6.4377                 7.6696                 8.4828
 IR Inten    --     26.3285                 1.9778                 2.6208

 - Thermochemistry -
 -------------------
 Temperature   298.150 Kelvin.  Pressure   1.00000 Atm.
 Atom     1 has atomic number  6 and mass  12.00000

 Molecular mass:   155.16740 amu.
 Principal axes and moments of inertia in atomic units:
                           1         2         3
     Eigenvalues --  1638.659491976.382182524.93106
           X            0.99960   0.02749  -0.00686
           Y           -0.02750   0.99962  -0.00193
           Z            0.00680   0.00211   0.99997
 This molecule is an asymmetric top.
 Rotational symmetry number  1.
 Warning -- assumption of classical behavior for rotation
           may cause significant error
 Rotational temperatures (Kelvin)      0.05286     0.04382     0.03430
 Rotational constants (GHZ):           1.10135     0.91315     0.71477
 Zero-point vibrational energy     783137.9 (Joules/Mol)
                                  187.17446 (Kcal/Mol)
 Warning -- explicit consideration of  23 degrees of freedom as
           vibrations may cause significant error
 Vibrational temperatures:     56.68   134.37   143.88   239.36   255.27
          (Kelvin)            267.46   290.72   324.71   341.00   374.78
                              388.06   396.98   422.75   468.79   481.52
                              518.06   584.01   610.22   628.92   669.96
                              756.72   829.93   888.43  1030.54  1115.68
                             1229.73  1252.65  1292.72  1352.95  1362.47
                             1368.77  1407.21  1412.31  1449.24  1470.08
                             1555.03  1575.22  1609.11  1635.43  1654.59
                             1725.77  1729.35  1742.91  1758.17  1874.11
                             1886.09  1918.84  1972.67  1976.13  2005.51
                             2015.07  2049.79  2061.61  2065.54  2084.11
                             2084.55  2097.47  2170.10  2182.53  2187.74
                             2189.37  2197.61  2204.51  2209.79  2217.68
                             2222.23  2225.37  2415.53  2521.10  4269.78
                             4364.27  4367.48  4371.75  4374.74  4382.26
                             4386.20  4392.28  4438.34  4455.51  4466.89
                             4470.69  4474.29  4480.77  4495.53  4498.13
                             4504.15  4507.16  4557.05  5071.25  5213.62

 Zero-point correction=                           0.298281 (Hartree/Particle)
 Thermal correction to Energy=                    0.312393
 Thermal correction to Enthalpy=                  0.313337
 Thermal correction to Gibbs Free Energy=         0.259110
 Sum of electronic and zero-point Energies=           -448.207313
 Sum of electronic and thermal Energies=              -448.193201
 Sum of electronic and thermal Enthalpies=            -448.192257
 Sum of electronic and thermal Free Energies=         -448.246485

                     E (Thermal)             CV                S
                      KCal/Mol        Cal/Mol-Kelvin    Cal/Mol-Kelvin
 Total                  196.030             53.646            114.132
 Electronic               0.000              0.000              0.000
 Translational            0.889              2.981             41.028
 Rotational               0.889              2.981             30.481
 Vibrational            194.252             47.684             42.623
 Vibration     1          0.594              1.981              5.289
 Vibration     2          0.602              1.954              3.588
 Vibration     3          0.604              1.949              3.454
 Vibration     4          0.624              1.884              2.476
 Vibration     5          0.628              1.870              2.355
 Vibration     6          0.632              1.859              2.268
 Vibration     7          0.639              1.837              2.114
 Vibration     8          0.650              1.802              1.913
 Vibration     9          0.656              1.784              1.825
 Vibration    10          0.669              1.745              1.658
 Vibration    11          0.674              1.729              1.598
 Vibration    12          0.678              1.718              1.559
 Vibration    13          0.689              1.685              1.452
 Vibration    14          0.710              1.624              1.281
 Vibration    15          0.716              1.606              1.237
 Vibration    16          0.735              1.555              1.122
 Vibration    17          0.771              1.457              0.941
 Vibration    18          0.786              1.418              0.878
 Vibration    19          0.797              1.389              0.836
 Vibration    20          0.823              1.326              0.750
 Vibration    21          0.881              1.193              0.596
 Vibration    22          0.933              1.081              0.491
 Vibration    23          0.977              0.995              0.421

 Optimization completed.
    -- Stationary point found.
 Normal termination of Gaussian 16 at Tue Dec  8 20:03:29 2020.

 ----------------------------------------------------------------------
 # B3LYP/6-311++G(d,p) empiricaldispersion=gd3bj scf=xqc pop=npa geom=c
 heck
 ----------------------------------------------------------------------

 ---------------------------------------
 CID_152940034_JID_1362_Energie_neutraal
 ---------------------------------------
 Structure from the checkpoint file:  "JID_1362.chk"
 Charge =  0 Multiplicity = 1

 SCF Done:  E(RB3LYP) =  -448.639492819     A.U. after   14 cycles
 Normal termination of Gaussian 16 at Tue Dec  8 20:07:46 2020.

 ----------------------------------------------------------------------
 # B3LYP/6-311++G(d,p) empiricaldispersion=gd3bj scf=xqc pop=npa geom=c
 heck
 ----------------------------------------------------------------------

 -------------------------------------
 CID_152940034_JID_1362_Energie_kation
 -------------------------------------
 Structure from the checkpoint file:  "JID_1362.chk"
 Charge =  1 Multiplicity = 2

 SCF Done:  E(UB3LYP) =  -448.366260310     A.U. after   19 cycles
 Normal termination of Gaussian 16 at Tue Dec  8 20:15:47 2020.
 Gaussian 16:  ES64L-G16RevA.03 25-Dec-2016

 ----------------------------------------------------------------------
 # B3LYP/6-311++G(d,p) empiricaldispersion=gd3bj scf=xqc pop=npa geom=c
 heck
 ----------------------------------------------------------------------

 ------------------------------------
 CID_152940034_JID_1362_Energie_anion
 ------------------------------------
 Structure from the checkpoint file:  "JID_1362.chk"
 Charge = -1 Multiplicity = 2

                         Standard orientation:
 ---------------------------------------------------------------------
 Center     Atomic      Atomic             Coordinates (Angstroms)
 Number     Number       Type             X           Y           Z
 ---------------------------------------------------------------------
      1          6           0        2.716002    0.096563   -0.847343
      2          6           0        1.570010    0.683268   -0.011860
      3          6           0        1.469272    2.193599   -0.269713
      4          6           0        0.202793   -0.000395   -0.293009
      5          6           0        0.266503   -1.559098   -0.294846
      6          6           0        0.706836   -2.182268    1.036911
      7          6           0       -1.060263   -2.177569   -0.751184
      8          6           0       -0.902794    0.571105    0.586348
      9          6           0       -2.099020    0.937724    0.088694
     10          7           0       -2.584295    0.784688   -1.218019
     11          6           0       -0.651680    0.771323    2.063979
     12          1           0        2.474294    0.121858   -1.918155
     13          1           0        2.943325   -0.939369   -0.579433
     14          1           0        3.631175    0.682327   -0.702407
     15          1           0        1.823140    0.536410    1.046167
     16          1           0        1.277561    2.386193   -1.333711
     17          1           0        0.654113    2.651199    0.298020
     18          1           0        2.403459    2.701496   -0.004011
     19          1           0       -0.030944    0.266162   -1.337560
     20          1           0        1.019578   -1.830726   -1.045791
     21          1           0       -0.074042   -2.085872    1.798074
     22          1           0        0.901997   -3.253139    0.906024
     23          1           0        1.620440   -1.724023    1.430469
     24          1           0       -1.356071   -1.814173   -1.741765
     25          1           0       -0.977003   -3.269461   -0.806507
     26          1           0       -1.869459   -1.930340   -0.056763
     27          1           0       -2.847694    1.351776    0.761995
     28          1           0       -3.183103    1.547878   -1.513684
     29          1           0       -1.866409    0.612519   -1.912824
     30          1           0       -0.373867   -0.155768    2.577903
     31          1           0        0.161299    1.484668    2.254080
     32          1           0       -1.547670    1.162064    2.558157
 ---------------------------------------------------------------------

 SCF Done:  E(UB3LYP) =  -448.623574227     A.U. after   33 cycles
 SCF Done:  E(UB3LYP) =  -448.623574227     a.u. after    1 cycles

 The electronic state is 2-A.
 Alpha  occ. eigenvalues --  -14.20089 -10.08267 -10.06717 -10.06616 -10.06592
 Alpha  occ. eigenvalues --  -10.05761 -10.05390 -10.05217 -10.05088 -10.04800
 Alpha  occ. eigenvalues --  -10.04588  -0.79477  -0.72599  -0.67250  -0.66132
 Alpha  occ. eigenvalues --   -0.58484  -0.57640  -0.57179  -0.55432  -0.47548
 Alpha  occ. eigenvalues --   -0.46619  -0.41391  -0.39897  -0.38292  -0.35650
 Alpha  occ. eigenvalues --   -0.34728  -0.32972  -0.31988  -0.30114  -0.29746
 Alpha  occ. eigenvalues --   -0.29192  -0.28412  -0.28153  -0.27765  -0.27152
 Alpha  occ. eigenvalues --   -0.24980  -0.24605  -0.23859  -0.22961  -0.22249
 Alpha  occ. eigenvalues --   -0.20733  -0.20272  -0.20011  -0.09222   0.04670
 Alpha virt. eigenvalues --    0.06753   0.07478   0.07627   0.09200   0.09323
 Alpha virt. eigenvalues --    0.09608   0.10124   0.10400   0.11978   0.12265
 Alpha virt. eigenvalues --    0.12513   0.12717   0.12979   0.13464   0.13678

  Beta  occ. eigenvalues --  -14.20034 -10.08252 -10.06710 -10.06607 -10.06577
  Beta  occ. eigenvalues --  -10.05750 -10.05371 -10.05189 -10.05091 -10.04775
  Beta  occ. eigenvalues --  -10.04570  -0.79390  -0.72571  -0.67223  -0.66103
  Beta  occ. eigenvalues --   -0.58445  -0.57586  -0.57140  -0.55370  -0.47501
  Beta  occ. eigenvalues --   -0.46564  -0.41344  -0.39829  -0.38236  -0.35617
  Beta  occ. eigenvalues --   -0.34694  -0.32931  -0.31956  -0.30080  -0.29721
  Beta  occ. eigenvalues --   -0.29158  -0.28386  -0.28130  -0.27734  -0.27127
  Beta  occ. eigenvalues --   -0.24950  -0.24575  -0.23833  -0.22928  -0.22209
  Beta  occ. eigenvalues --   -0.20696  -0.20239  -0.19982  -0.09191
  Beta virt. eigenvalues --    0.06791   0.07923   0.08045   0.08095   0.09665
  Beta virt. eigenvalues --    0.09876   0.10110   0.10408   0.10639   0.12474
  Beta virt. eigenvalues --    0.12543   0.12906   0.13163   0.13220   0.13529

 Mulliken charges and spin densities:
               1          2
     1  C    1.121594  -1.714109
     2  C   -2.324211   2.448890
     3  C    0.661144  -1.437461
     4  C    3.790639  -3.020121
     5  C   -1.542409   1.666977
     6  C    0.157166  -0.816744
     7  C    0.017310  -0.824877
     8  C   -0.554527   0.656844
     9  C   -0.792541   0.135712
    10  N   -0.207195  -0.094709
    11  C    0.355133  -0.975594
    12  H   -0.213242   0.364173
    13  H   -0.234970   0.374618
    14  H   -0.118140   0.258976
    15  H    0.112294   0.034850
    16  H   -0.211691   0.368049
    17  H    0.015740   0.130705
    18  H   -0.100198   0.232750
    19  H    0.106629   0.057275
    20  H    0.043374   0.133972
    21  H    0.074731   0.066291
    22  H   -0.238025   0.381531
    23  H    0.004626   0.138372
    24  H   -0.161514   0.286443
    25  H   -0.070403   0.209947
    26  H    0.126029   0.046559
    27  H   -0.422026   0.578717
    28  H   -0.455231   0.723069
    29  H   -0.070388   0.301513
    30  H    0.130819   0.007167
    31  H   -0.078354   0.228506
    32  H    0.077837   0.051709
 Sum of Mulliken charges =  -1.00000   1.00000

 Dipole moment (field-independent basis, Debye):
    X=              1.5987    Y=             -1.6372    Z=              3.9486  Tot=              4.5637
 Quadrupole moment (field-independent basis, Debye-Ang):
   XX=           -131.0875   YY=           -120.2194   ZZ=           -111.1597
   XY=              6.5865   XZ=             -5.6599   YZ=              4.3358

 Summary of Natural Population Analysis:

                                       Natural Population
                Natural  -----------------------------------------------
    Atom  No    Charge         Core      Valence    Rydberg      Total
 -----------------------------------------------------------------------
      C    1   -0.28519      0.99965     2.27954    0.00599     3.28519
      C    2   -0.11175      0.99960     2.10233    0.00982     3.11175
      C    3   -0.28393      0.99965     2.27808    0.00620     3.28393
      C    4   -0.11197      0.99953     2.09736    0.01508     3.11197
      C    5   -0.11007      0.99959     2.10018    0.01030     3.11007
      C    6   -0.28698      0.99964     2.28091    0.00643     3.28698
      C    7   -0.28384      0.99965     2.27756    0.00663     3.28384
      C    8   -0.06290      0.99947     2.04937    0.01406     3.06290
      C    9    0.01208      0.99942     1.97490    0.01360     2.98792
      N   10   -0.40183      0.99974     2.89078    0.01131     3.90183
      C   11   -0.28801      0.99962     2.28371    0.00468     3.28801
      H   12    0.09796      0.00000     0.40082    0.00123     0.40204
      H   13    0.09937      0.00000     0.39954    0.00109     0.40063
      H   14    0.09854      0.00000     0.40058    0.00088     0.40146
      H   15    0.09211      0.00000     0.40582    0.00207     0.40789
      H   16    0.09805      0.00000     0.40071    0.00124     0.40195
      H   17    0.10369      0.00000     0.39526    0.00105     0.39631
      H   18    0.09583      0.00000     0.40335    0.00082     0.40417
      H   19    0.09575      0.00000     0.40130    0.00296     0.40425
      H   20    0.09476      0.00000     0.40341    0.00183     0.40524
      H   21    0.09548      0.00000     0.40355    0.00097     0.40452
      H   22    0.09843      0.00000     0.40077    0.00080     0.40157
      H   23    0.09834      0.00000     0.40072    0.00093     0.40166
      H   24    0.10049      0.00000     0.39839    0.00112     0.39951
      H   25    0.09529      0.00000     0.40392    0.00079     0.40471
      H   26    0.10179      0.00000     0.39722    0.00099     0.39821
      H   27    0.08694      0.00000     0.41202    0.00105     0.41306
      H   28    0.18668      0.00000     0.30806    0.00526     0.31332
      H   29    0.18352      0.00000     0.31308    0.00340     0.31648
      H   30    0.09619      0.00000     0.40238    0.00143     0.40381
      H   31    0.09615      0.00000     0.40257    0.00128     0.40385
      H   32    0.09902      0.00000     0.40011    0.00087     0.40098
 =======================================================================
   * Total *   -0.00000     10.99555    32.86831    0.13614    44.00000

 Normal termination of Gaussian 16 at Tue Dec  8 20:31:20 2020.
