 Gaussian 16, Revision A.03,

 -----------------------------------------------------------
 # opt freq B3LYP/6-31G(d) empiricaldispersion=gd3bj scf=xqc
 -----------------------------------------------------------

 -------------------------------
 CID_130857719_JID_2402_neutraal
 -------------------------------
 Symbolic Z-matrix:
 Charge =  0 Multiplicity = 1

 SCF Done:  E(RB3LYP) =  -589.320601577     A.U. after   15 cycles
 SCF Done:  E(RB3LYP) =  -589.325168053     A.U. after   13 cycles
 SCF Done:  E(RB3LYP) =  -589.325592028     A.U. after   12 cycles
 SCF Done:  E(RB3LYP) =  -589.325954158     A.U. after   13 cycles
 SCF Done:  E(RB3LYP) =  -589.326299679     A.U. after   11 cycles
 SCF Done:  E(RB3LYP) =  -589.326465989     A.U. after   11 cycles
 SCF Done:  E(RB3LYP) =  -589.326501575     A.U. after   11 cycles
 SCF Done:  E(RB3LYP) =  -589.326529348     A.U. after   10 cycles
 SCF Done:  E(RB3LYP) =  -589.326566490     A.U. after   11 cycles
 SCF Done:  E(RB3LYP) =  -589.326570599     A.U. after    9 cycles
 SCF Done:  E(RB3LYP) =  -589.326572983     A.U. after    9 cycles
 SCF Done:  E(RB3LYP) =  -589.326574767     A.U. after    8 cycles
 SCF Done:  E(RB3LYP) =  -589.326575546     A.U. after    8 cycles
 SCF Done:  E(RB3LYP) =  -589.326575684     A.U. after    7 cycles
 Optimization completed.
    -- Stationary point found.
 Normal termination of Gaussian 16 at Wed Dec  9 17:18:18 2020.

 --------------------------------------------------------------------
 #N Geom=AllCheck Guess=TCheck SCRF=Check GenChk RB3LYP/6-31G(d) Freq
 --------------------------------------------------------------------

 Structure from the checkpoint file:  "JID_2402.chk"
 -------------------------------
 CID_130857719_JID_2402_neutraal
 -------------------------------
 Charge =  0 Multiplicity = 1

 SCF Done:  E(RB3LYP) =  -589.326575684     A.U. after    1 cycles

  Exact polarizability: 119.102   1.622  87.355  -4.702   0.305  80.553
 Approx polarizability: 159.905   3.981 126.931 -14.476  -2.758 119.078

                      1                      2                      3
                      A                      A                      A
 Frequencies --     36.3821                65.4664                73.1847
 Red. masses --      3.3998                 3.9485                 5.4420
 Frc consts  --      0.0027                 0.0100                 0.0172
 IR Inten    --      1.2846                 0.1355                 1.3848

                      4                      5                      6
                      A                      A                      A
 Frequencies --     80.5549               105.8619               132.3568
 Red. masses --      3.1815                 2.8162                 5.9016
 Frc consts  --      0.0122                 0.0186                 0.0609
 IR Inten    --      1.4769                 0.8800                 2.5744

                      7                      8                      9
                      A                      A                      A
 Frequencies --    231.6416               255.5681               309.8090
 Red. masses --      1.1208                 3.0290                 2.3979
 Frc consts  --      0.0354                 0.1166                 0.1356
 IR Inten    --      0.5703                 1.9393                10.3559

                     10                     11                     12
                      A                      A                      A
 Frequencies --    317.8568               365.0099               371.8424
 Red. masses --      2.4713                 4.8551                 3.8489
 Frc consts  --      0.1471                 0.3811                 0.3135
 IR Inten    --     10.2861                 6.2625                10.2696

                     13                     14                     15
                      A                      A                      A
 Frequencies --    467.9514               513.1173               518.9739
 Red. masses --      2.4467                 1.5585                 2.7462
 Frc consts  --      0.3157                 0.2418                 0.4358
 IR Inten    --     17.8336                66.9962                26.5585

                     16                     17                     18
                      A                      A                      A
 Frequencies --    538.3157               567.0442               616.4339
 Red. masses --      2.3673                 5.2220                 2.5237
 Frc consts  --      0.4042                 0.9893                 0.5650
 IR Inten    --     23.6819                 8.2092                64.5899

                     19                     20                     21
                      A                      A                      A
 Frequencies --    692.7654               746.7136               755.7264
 Red. masses --      2.1707                 3.0881                 9.7330
 Frc consts  --      0.6138                 1.0145                 3.2751
 IR Inten    --      7.7353                43.3382                40.5682

                     22                     23                     24
                      A                      A                      A
 Frequencies --    776.7114               818.9548               837.7768
 Red. masses --      2.9469                 1.6251                 2.2046
 Frc consts  --      1.0475                 0.6422                 0.9117
 IR Inten    --      8.3777                 8.5601                 6.0645

                     25                     26                     27
                      A                      A                      A
 Frequencies --    912.5890               918.2556               981.0705
 Red. masses --      2.1715                 1.3704                 2.4011
 Frc consts  --      1.0655                 0.6808                 1.3616
 IR Inten    --      5.9815                 0.5190                 3.7334

                     28                     29                     30
                      A                      A                      A
 Frequencies --   1004.3108              1015.8210              1102.5047
 Red. masses --      2.3164                 2.2396                 1.8402
 Frc consts  --      1.3766                 1.3616                 1.3179
 IR Inten    --      3.4039                 5.2010                 8.7756

                     31                     32                     33
                      A                      A                      A
 Frequencies --   1109.0288              1121.3924              1153.3614
 Red. masses --      1.5166                 1.8903                 1.8351
 Frc consts  --      1.0991                 1.4005                 1.4383
 IR Inten    --     19.1961                20.9799                 4.3964

                     34                     35                     36
                      A                      A                      A
 Frequencies --   1198.0383              1233.9528              1258.9445
 Red. masses --      2.2571                 1.2880                 2.2836
 Frc consts  --      1.9088                 1.1555                 2.1325
 IR Inten    --     36.4488                 4.3579                10.6962

                     37                     38                     39
                      A                      A                      A
 Frequencies --   1266.7378              1295.5695              1314.0510
 Red. masses --      2.1202                 1.6990                 1.3661
 Frc consts  --      2.0045                 1.6802                 1.3898
 IR Inten    --    127.5302                 6.7423                 9.7545

                     40                     41                     42
                      A                      A                      A
 Frequencies --   1329.0821              1345.1968              1397.4240
 Red. masses --      1.7748                 1.6376                 1.6691
 Frc consts  --      1.8472                 1.7459                 1.9204
 IR Inten    --     58.8405                87.3497                80.1513

                     43                     44                     45
                      A                      A                      A
 Frequencies --   1402.5538              1415.0877              1435.4148
 Red. masses --      1.7347                 1.5015                 1.2303
 Frc consts  --      2.0105                 1.7715                 1.4935
 IR Inten    --     18.3404                27.7423                20.9081

                     46                     47                     48
                      A                      A                      A
 Frequencies --   1457.8532              1474.0040              1496.1720
 Red. masses --      1.8057                 1.4058                 1.6681
 Frc consts  --      2.2612                 1.7996                 2.2001
 IR Inten    --     65.3452                11.1242                80.4877

                     49                     50                     51
                      A                      A                      A
 Frequencies --   1508.6965              1510.3904              1526.4380
 Red. masses --      1.1372                 1.1092                 1.0390
 Frc consts  --      1.5251                 1.4909                 1.4263
 IR Inten    --      3.5802                13.1291                 1.7341

                     52                     53                     54
                      A                      A                      A
 Frequencies --   1547.0160              1552.2906              1553.9402
 Red. masses --      1.0604                 1.2016                 1.0890
 Frc consts  --      1.4952                 1.7059                 1.5494
 IR Inten    --     10.8020                44.5968                 5.6213

                     55                     56                     57
                      A                      A                      A
 Frequencies --   1797.2847              1816.9671              2998.5509
 Red. masses --      8.3132                 9.0311                 1.0727
 Frc consts  --     15.8217                17.5666                 5.6825
 IR Inten    --    249.3643               382.2046                19.8363

                     58                     59                     60
                      A                      A                      A
 Frequencies --   3005.2084              3064.1328              3070.5408
 Red. masses --      1.0730                 1.0354                 1.0624
 Frc consts  --      5.7096                 5.7278                 5.9015
 IR Inten    --    105.0431                30.8117                11.1402

                     61                     62                     63
                      A                      A                      A
 Frequencies --   3072.5919              3094.0326              3111.0332
 Red. masses --      1.0625                 1.0908                 1.0913
 Frc consts  --      5.9100                 6.1524                 6.2230
 IR Inten    --     12.7309                40.6298                20.5940

                     64                     65                     66
                      A                      A                      A
 Frequencies --   3121.6992              3122.8502              3136.7221
 Red. masses --      1.1057                 1.1013                 1.1011
 Frc consts  --      6.3484                 6.3281                 6.3828
 IR Inten    --     31.8722                 8.1402                25.9583

                     67                     68                     69
                      A                      A                      A
 Frequencies --   3154.6360              3508.5283              3628.3373
 Red. masses --      1.1042                 1.0756                 1.0767
 Frc consts  --      6.4742                 7.8008                 8.3516
 IR Inten    --     18.5665                11.2284                37.3551

 - Thermochemistry -
 -------------------
 Temperature   298.150 Kelvin.  Pressure   1.00000 Atm.
 Atom     1 has atomic number  6 and mass  12.00000

 Molecular mass:   171.10078 amu.
 Principal axes and moments of inertia in atomic units:
                           1         2         3
     Eigenvalues --  1091.983982884.236623122.51472
           X            0.99956   0.02555   0.01538
           Y           -0.02625   0.99853   0.04734
           Z           -0.01415  -0.04772   0.99876
 This molecule is an asymmetric top.
 Rotational symmetry number  1.
 Warning -- assumption of classical behavior for rotation
           may cause significant error
 Rotational temperatures (Kelvin)      0.07932     0.03003     0.02774
 Rotational constants (GHZ):           1.65272     0.62573     0.57798
 Zero-point vibrational energy     560667.7 (Joules/Mol)
                                  134.00280 (Kcal/Mol)
 Warning -- explicit consideration of  18 degrees of freedom as
           vibrations may cause significant error
 Vibrational temperatures:     52.35    94.19   105.30   115.90   152.31
          (Kelvin)            190.43   333.28   367.71   445.75   457.32
                              525.17   535.00   673.28   738.26   746.69
                              774.52   815.85   886.91   996.73  1074.35
                             1087.32  1117.51  1178.29  1205.37  1313.01
                             1321.16  1411.54  1444.98  1461.54  1586.26
                             1595.65  1613.43  1659.43  1723.71  1775.38
                             1811.34  1822.55  1864.04  1890.63  1912.25
                             1935.44  2010.58  2017.96  2036.00  2065.24
                             2097.53  2120.76  2152.66  2170.68  2173.11
                             2196.20  2225.81  2233.40  2235.77  2585.89
                             2614.21  4314.25  4323.82  4408.60  4417.82
                             4420.77  4451.62  4476.08  4491.43  4493.08
                             4513.04  4538.82  5047.99  5220.37

 Zero-point correction=                           0.213547 (Hartree/Particle)
 Thermal correction to Energy=                    0.225692
 Thermal correction to Enthalpy=                  0.226636
 Thermal correction to Gibbs Free Energy=         0.174174
 Sum of electronic and zero-point Energies=           -589.113029
 Sum of electronic and thermal Energies=              -589.100884
 Sum of electronic and thermal Enthalpies=            -589.099940
 Sum of electronic and thermal Free Energies=         -589.152402

                     E (Thermal)             CV                S
                      KCal/Mol        Cal/Mol-Kelvin    Cal/Mol-Kelvin
 Total                  141.624             44.371            110.417
 Electronic               0.000              0.000              0.000
 Translational            0.889              2.981             41.319
 Rotational               0.889              2.981             30.665
 Vibrational            139.846             38.410             38.433
 Vibration     1          0.594              1.982              5.447
 Vibration     2          0.597              1.971              4.285
 Vibration     3          0.599              1.967              4.066
 Vibration     4          0.600              1.962              3.877
 Vibration     5          0.605              1.945              3.343
 Vibration     6          0.612              1.921              2.912
 Vibration     7          0.653              1.793              1.866
 Vibration     8          0.666              1.753              1.692
 Vibration     9          0.699              1.655              1.363
 Vibration    10          0.704              1.639              1.321
 Vibration    11          0.738              1.544              1.101
 Vibration    12          0.744              1.530              1.072
 Vibration    13          0.825              1.321              0.743
 Vibration    14          0.868              1.221              0.626
 Vibration    15          0.874              1.208              0.612
 Vibration    16          0.893              1.165              0.569
 Vibration    17          0.923              1.103              0.510
 Vibration    18          0.976              0.997              0.422

 Optimization completed.
    -- Stationary point found.
 Normal termination of Gaussian 16 at Wed Dec  9 17:24:15 2020.

 ----------------------------------------------------------------------
 # B3LYP/6-311++G(d,p) empiricaldispersion=gd3bj scf=xqc pop=npa geom=c
 heck
 ----------------------------------------------------------------------

 ---------------------------------------
 CID_130857719_JID_2402_Energie_neutraal
 ---------------------------------------
 Structure from the checkpoint file:  "JID_2402.chk"
 Charge =  0 Multiplicity = 1

 SCF Done:  E(RB3LYP) =  -589.504469274     A.U. after   14 cycles
 Normal termination of Gaussian 16 at Wed Dec  9 17:26:49 2020.

 ----------------------------------------------------------------------
 # B3LYP/6-311++G(d,p) empiricaldispersion=gd3bj scf=xqc pop=npa geom=c
 heck
 ----------------------------------------------------------------------

 -------------------------------------
 CID_130857719_JID_2402_Energie_kation
 -------------------------------------
 Structure from the checkpoint file:  "JID_2402.chk"
 Charge =  1 Multiplicity = 2

 SCF Done:  E(UB3LYP) =  -589.181021108     A.U. after   26 cycles
 Normal termination of Gaussian 16 at Wed Dec  9 17:33:14 2020.
 Gaussian 16:  ES64L-G16RevA.03 25-Dec-2016

 ----------------------------------------------------------------------
 # B3LYP/6-311++G(d,p) empiricaldispersion=gd3bj scf=xqc pop=npa geom=c
 heck
 ----------------------------------------------------------------------

 ------------------------------------
 CID_130857719_JID_2402_Energie_anion
 ------------------------------------
 Structure from the checkpoint file:  "JID_2402.chk"
 Charge = -1 Multiplicity = 2

                         Standard orientation:
 ---------------------------------------------------------------------
 Center     Atomic      Atomic             Coordinates (Angstroms)
 Number     Number       Type             X           Y           Z
 ---------------------------------------------------------------------
      1          6           0        2.484222    1.311818    1.258843
      2          6           0        2.017233   -0.151266    1.195220
      3          6           0        2.005175   -0.633970   -0.242859
      4          8           0        3.017790   -0.775204   -0.904523
      5          7           0        0.772800   -0.971280   -0.805961
      6          7           0       -0.418274   -0.493822   -0.283070
      7          6           0       -1.386046   -1.509175    0.128240
      8          6           0       -2.490369   -0.861216    0.957432
      9          6           0       -3.094924    0.307089    0.184612
     10          7           0       -2.024375    1.212809   -0.207735
     11          6           0       -0.763674    0.824654   -0.596491
     12          8           0        0.028969    1.592250   -1.126856
     13          1           0        3.473784    1.406482    0.802531
     14          1           0        2.544079    1.650851    2.298320
     15          1           0        1.792871    1.959282    0.712718
     16          1           0        2.727019   -0.790996    1.731461
     17          1           0        1.034624   -0.264717    1.659561
     18          1           0        0.817617   -1.014369   -1.822285
     19          1           0       -0.845031   -2.260111    0.710225
     20          1           0       -1.813362   -2.017578   -0.750675
     21          1           0       -2.072757   -0.495491    1.902130
     22          1           0       -3.262372   -1.601586    1.189628
     23          1           0       -3.805825    0.858181    0.808694
     24          1           0       -3.647000   -0.068562   -0.691548
     25          1           0       -2.258479    2.140698   -0.532351
 ---------------------------------------------------------------------

 SCF Done:  E(UB3LYP) =  -589.498417791     A.U. after   30 cycles

 The electronic state is 2-A.
 Alpha  occ. eigenvalues --  -19.00225 -18.98492 -14.27186 -14.26984 -14.23157
 Alpha  occ. eigenvalues --  -10.19766 -10.18282 -10.11142 -10.10432 -10.08508
 Alpha  occ. eigenvalues --  -10.07539 -10.07017  -0.97275  -0.94820  -0.89592
 Alpha  occ. eigenvalues --   -0.83147  -0.74393  -0.68630  -0.67783  -0.59242
 Alpha  occ. eigenvalues --   -0.56721  -0.55151  -0.49275  -0.47441  -0.42772
 Alpha  occ. eigenvalues --   -0.41793  -0.39964  -0.39218  -0.37083  -0.36015
 Alpha  occ. eigenvalues --   -0.33595  -0.33334  -0.32630  -0.32250  -0.31700
 Alpha  occ. eigenvalues --   -0.28827  -0.27616  -0.26869  -0.25695  -0.25560
 Alpha  occ. eigenvalues --   -0.25378  -0.18876  -0.17658  -0.17359  -0.16006
 Alpha  occ. eigenvalues --   -0.14973   0.04175
 Alpha virt. eigenvalues --    0.06926   0.07357   0.08139   0.09186   0.09567
 Alpha virt. eigenvalues --    0.10191   0.10383   0.10690   0.11638   0.12360
 Alpha virt. eigenvalues --    0.12494   0.13411   0.14576   0.15004   0.15183

  Beta  occ. eigenvalues --  -19.00219 -18.98477 -14.27186 -14.26980 -14.23143
  Beta  occ. eigenvalues --  -10.19756 -10.18275 -10.11105 -10.10373 -10.08497
  Beta  occ. eigenvalues --  -10.07495 -10.07011  -0.97256  -0.94802  -0.89577
  Beta  occ. eigenvalues --   -0.83105  -0.74363  -0.68602  -0.67724  -0.59157
  Beta  occ. eigenvalues --   -0.56690  -0.55096  -0.49198  -0.47410  -0.42726
  Beta  occ. eigenvalues --   -0.41722  -0.39929  -0.39144  -0.37019  -0.35995
  Beta  occ. eigenvalues --   -0.33539  -0.33308  -0.32590  -0.32191  -0.31665
  Beta  occ. eigenvalues --   -0.28780  -0.27582  -0.26844  -0.25635  -0.25481
  Beta  occ. eigenvalues --   -0.25340  -0.18857  -0.17637  -0.17345  -0.15962
  Beta  occ. eigenvalues --   -0.14956
  Beta virt. eigenvalues --    0.06723   0.07654   0.08369   0.08857   0.09686
  Beta virt. eigenvalues --    0.09908   0.10498   0.10934   0.11241   0.12193
  Beta virt. eigenvalues --    0.12775   0.13076   0.13626   0.14625   0.15128

 Mulliken charges and spin densities:
               1          2
     1  C   -0.375188  -0.131062
     2  C   -0.074304  -0.056795
     3  C    0.072987  -0.050362
     4  O   -0.320758   0.008544
     5  N   -0.193275   0.055361
     6  N   -0.078993   0.080603
     7  C    0.863370  -1.202869
     8  C   -0.194385  -0.097830
     9  C    2.039052  -2.377034
    10  N   -0.566697   0.313842
    11  C    0.291811  -0.168175
    12  O   -0.370832   0.026704
    13  H    0.148996   0.000129
    14  H    0.011097   0.104696
    15  H    0.157049   0.028372
    16  H    0.044713   0.138765
    17  H    0.220330  -0.061759
    18  H    0.236756   0.062697
    19  H   -0.311906   0.501386
    20  H   -0.365205   0.552788
    21  H   -0.074079   0.234082
    22  H   -0.658418   0.847579
    23  H   -1.058271   1.245705
    24  H   -0.392810   0.569916
    25  H   -0.051038   0.374716
 Sum of Mulliken charges =  -1.00000   1.00000

 Dipole moment (field-independent basis, Debye):
    X=              6.8990    Y=              0.6513    Z=              0.1199  Tot=              6.9307
 Quadrupole moment (field-independent basis, Debye-Ang):
   XX=           -154.3691   YY=           -110.2860   ZZ=           -100.5237
   XY=             -2.3333   XZ=             11.7269   YZ=              1.6124

 Summary of Natural Population Analysis:

                                       Natural Population
                Natural  -----------------------------------------------
    Atom  No    Charge         Core      Valence    Rydberg      Total
 -----------------------------------------------------------------------
      C    1   -0.28456      0.99966     2.28039    0.00451     3.28456
      C    2   -0.23648      0.99959     2.22893    0.00795     3.23648
      C    3    0.35614      0.99969     1.62125    0.02293     2.64386
      O    4   -0.31677      0.99987     3.31092    0.00598     4.31677
      N    5   -0.22681      0.99966     2.71455    0.01260     3.72681
      N    6   -0.18668      0.99964     2.67461    0.01243     3.68668
      C    7   -0.07763      0.99961     2.06678    0.01125     3.07763
      C    8   -0.20013      0.99963     2.19100    0.00950     3.20013
      C    9   -0.08404      0.99962     2.07305    0.01137     3.08404
      N   10   -0.32646      0.99968     2.81667    0.01011     3.82646
      C   11    0.40771      0.99966     1.56916    0.02346     2.59229
      O   12   -0.33907      0.99988     3.33383    0.00536     4.33907
      H   13    0.10026      0.00000     0.39865    0.00109     0.39974
      H   14    0.09476      0.00000     0.40431    0.00093     0.40524
      H   15    0.11159      0.00000     0.38725    0.00115     0.38841
      H   16    0.10624      0.00000     0.39268    0.00108     0.39376
      H   17    0.10765      0.00000     0.39078    0.00157     0.39235
      H   18    0.18894      0.00000     0.30855    0.00251     0.31106
      H   19    0.10236      0.00000     0.39596    0.00168     0.39764
      H   20    0.09271      0.00000     0.40525    0.00204     0.40729
      H   21    0.10005      0.00000     0.39790    0.00204     0.39995
      H   22    0.11386      0.00000     0.38132    0.00482     0.38614
      H   23    0.10553      0.00000     0.38864    0.00583     0.39447
      H   24    0.09169      0.00000     0.40431    0.00399     0.40831
      H   25    0.19913      0.00000     0.29838    0.00249     0.30087
 =======================================================================
   * Total *   -0.00000     11.99619    33.83513    0.16867    46.00000

 Normal termination of Gaussian 16 at Wed Dec  9 17:39:39 2020.
