 Gaussian 16, Revision A.03,

 -----------------------------------------------------------
 # opt freq B3LYP/6-31G(d) empiricaldispersion=gd3bj scf=xqc
 -----------------------------------------------------------

 ------------------------------
 CID_82503595_JID_2649_neutraal
 ------------------------------
 Symbolic Z-matrix:
 Charge =  0 Multiplicity = 1

 SCF Done:  E(RB3LYP) =  -856.686269473     A.U. after   15 cycles
 SCF Done:  E(RB3LYP) =  -856.689464739     A.U. after   12 cycles
 SCF Done:  E(RB3LYP) =  -856.689830053     A.U. after   11 cycles
 SCF Done:  E(RB3LYP) =  -856.689961169     A.U. after   12 cycles
 SCF Done:  E(RB3LYP) =  -856.689994075     A.U. after   10 cycles
 SCF Done:  E(RB3LYP) =  -856.690017951     A.U. after    9 cycles
 SCF Done:  E(RB3LYP) =  -856.690032545     A.U. after   10 cycles
 SCF Done:  E(RB3LYP) =  -856.690035796     A.U. after    9 cycles
 SCF Done:  E(RB3LYP) =  -856.690043016     A.U. after   10 cycles
 SCF Done:  E(RB3LYP) =  -856.690070304     A.U. after   12 cycles
 SCF Done:  E(RB3LYP) =  -856.690276880     A.U. after   12 cycles
 SCF Done:  E(RB3LYP) =  -856.690376952     A.U. after    8 cycles
 SCF Done:  E(RB3LYP) =  -856.690392857     A.U. after    9 cycles
 SCF Done:  E(RB3LYP) =  -856.690394837     A.U. after   10 cycles
 SCF Done:  E(RB3LYP) =  -856.690395960     A.U. after    8 cycles
 SCF Done:  E(RB3LYP) =  -856.690396354     A.U. after    8 cycles
 Optimization completed.
    -- Stationary point found.
 Normal termination of Gaussian 16 at Wed Dec  9 17:32:31 2020.

 --------------------------------------------------------------------
 #N Geom=AllCheck Guess=TCheck SCRF=Check GenChk RB3LYP/6-31G(d) Freq
 --------------------------------------------------------------------

 Structure from the checkpoint file:  "JID_2649.chk"
 ------------------------------
 CID_82503595_JID_2649_neutraal
 ------------------------------
 Charge =  0 Multiplicity = 1

 SCF Done:  E(RB3LYP) =  -856.690396354     A.U. after    1 cycles

  Exact polarizability: 197.252   6.042 125.252  -9.859   7.249  61.442
 Approx polarizability: 291.603  12.660 221.520 -19.761  19.412  97.400

                      1                      2                      3
                      A                      A                      A
 Frequencies --     35.4303                75.7388               101.0589
 Red. masses --      5.2668                 4.0433                 4.3810
 Frc consts  --      0.0039                 0.0137                 0.0264
 IR Inten    --      0.6009                 3.3567                 1.3217

                      4                      5                      6
                      A                      A                      A
 Frequencies --    106.5382               170.0213               249.0404
 Red. masses --      3.3835                 4.0202                 2.7319
 Frc consts  --      0.0226                 0.0685                 0.0998
 IR Inten    --      2.5514                 1.6536                 6.8912

                      7                      8                      9
                      A                      A                      A
 Frequencies --    297.8096               332.9721               343.6077
 Red. masses --      2.7425                 1.7782                 5.2047
 Frc consts  --      0.1433                 0.1162                 0.3621
 IR Inten    --      5.7902                36.6644                 5.3642

                     10                     11                     12
                      A                      A                      A
 Frequencies --    412.3877               467.1727               500.8274
 Red. masses --      5.1530                 3.6970                 5.0952
 Frc consts  --      0.5163                 0.4754                 0.7530
 IR Inten    --      3.4422                 4.7099                 1.6015

                     13                     14                     15
                      A                      A                      A
 Frequencies --    576.3743               588.0275               629.6304
 Red. masses --      2.7798                 1.5515                 4.5483
 Frc consts  --      0.5441                 0.3161                 1.0624
 IR Inten    --     13.9641                32.0833                 1.7717

                     16                     17                     18
                      A                      A                      A
 Frequencies --    652.6522               676.7497               688.1098
 Red. masses --      4.8260                 1.9926                 1.4404
 Frc consts  --      1.2112                 0.5377                 0.4018
 IR Inten    --      1.5941                32.9948                30.7019

                     19                     20                     21
                      A                      A                      A
 Frequencies --    719.0426               745.5415               782.9596
 Red. masses --      3.1994                 6.8869                 1.2138
 Frc consts  --      0.9746                 2.2554                 0.4384
 IR Inten    --     15.0256                 0.4101                78.8349

                     22                     23                     24
                      A                      A                      A
 Frequencies --    822.3204               840.2324               851.0835
 Red. masses --      1.3233                 1.3715                 4.3036
 Frc consts  --      0.5272                 0.5705                 1.8367
 IR Inten    --     12.2261                 4.3542                25.1639

                     25                     26                     27
                      A                      A                      A
 Frequencies --    888.5340               904.3487               913.1262
 Red. masses --      1.2887                 1.3151                 6.2670
 Frc consts  --      0.5995                 0.6337                 3.0787
 IR Inten    --     91.1900                 0.2024                 2.3007

                     28                     29                     30
                      A                      A                      A
 Frequencies --    994.3105              1022.3124              1043.9368
 Red. masses --      1.9905                 3.3806                 2.0734
 Frc consts  --      1.1594                 2.0817                 1.3313
 IR Inten    --     16.2469                17.3147                13.6285

                     31                     32                     33
                      A                      A                      A
 Frequencies --   1060.8539              1073.8990              1084.3130
 Red. masses --      1.6123                 1.7608                 2.0768
 Frc consts  --      1.0691                 1.1964                 1.4386
 IR Inten    --     13.3206                 7.1575                 5.3051

                     34                     35                     36
                      A                      A                      A
 Frequencies --   1118.5137              1182.6485              1226.8821
 Red. masses --      1.1390                 1.2496                 1.7338
 Frc consts  --      0.8396                 1.0297                 1.5377
 IR Inten    --      9.3066                31.3318                43.0264

                     37                     38                     39
                      A                      A                      A
 Frequencies --   1252.2285              1272.3081              1311.9467
 Red. masses --      1.5936                 1.4689                 1.6535
 Frc consts  --      1.4723                 1.4010                 1.6768
 IR Inten    --      0.5077                39.0838                14.1223

                     40                     41                     42
                      A                      A                      A
 Frequencies --   1334.6746              1389.8845              1425.0777
 Red. masses --      2.2240                 2.4274                 1.5924
 Frc consts  --      2.3342                 2.7629                 1.9053
 IR Inten    --      5.8481                 2.3620                94.5236

                     43                     44                     45
                      A                      A                      A
 Frequencies --   1448.5470              1478.9524              1484.9297
 Red. masses --      3.6856                 3.4764                 5.8153
 Frc consts  --      4.5564                 4.4801                 7.5550
 IR Inten    --      5.7524                 1.7604                19.5243

                     46                     47                     48
                      A                      A                      A
 Frequencies --   1535.1819              1542.7710              1599.1209
 Red. masses --      1.1067                 5.5897                 5.4758
 Frc consts  --      1.5367                 7.8387                 8.2502
 IR Inten    --      0.5985                 2.8782                32.8982

                     49                     50                     51
                      A                      A                      A
 Frequencies --   1640.2114              1691.5467              2991.8712
 Red. masses --      4.9015                 1.0986                 1.0663
 Frc consts  --      7.7693                 1.8521                 5.6238
 IR Inten    --      4.2106                32.8541                84.3311

                     52                     53                     54
                      A                      A                      A
 Frequencies --   3032.0882              3217.1515              3232.5618
 Red. masses --      1.0957                 1.0883                 1.0954
 Frc consts  --      5.9353                 6.6365                 6.7442
 IR Inten    --     42.1927                14.4247                 6.0019

                     55                     56                     57
                      A                      A                      A
 Frequencies --   3250.4677              3266.7571              3274.0998
 Red. masses --      1.0918                 1.0997                 1.0968
 Frc consts  --      6.7964                 6.9146                 6.9270
 IR Inten    --     10.0184                 5.7781                 0.5896

                     58                     59                     60
                      A                      A                      A
 Frequencies --   3469.6043              3558.7849              3632.6128
 Red. masses --      1.0499                 1.0931                 1.0795
 Frc consts  --      7.4463                 8.1563                 8.3931
 IR Inten    --      2.4998                 0.9266                67.7059

 - Thermochemistry -
 -------------------
 Temperature   298.150 Kelvin.  Pressure   1.00000 Atm.
 Atom     1 has atomic number  6 and mass  12.00000

 Molecular mass:   178.05647 amu.
 Principal axes and moments of inertia in atomic units:
                           1         2         3
     Eigenvalues --   941.962223940.929354703.84576
           X            0.99990  -0.01410  -0.00165
           Y            0.01409   0.99988  -0.00586
           Z            0.00174   0.00584   0.99998
 This molecule is an asymmetric top.
 Rotational symmetry number  1.
 Warning -- assumption of classical behavior for rotation
           may cause significant error
 Rotational temperatures (Kelvin)      0.09195     0.02198     0.01841
 Rotational constants (GHZ):           1.91594     0.45795     0.38367
 Zero-point vibrational energy     463627.0 (Joules/Mol)
                                  110.80952 (Kcal/Mol)
 Warning -- explicit consideration of  14 degrees of freedom as
           vibrations may cause significant error
 Vibrational temperatures:     50.98   108.97   145.40   153.28   244.62
          (Kelvin)            358.31   428.48   479.07   494.37   593.33
                              672.16   720.58   829.27   846.04   905.90
                              939.02   973.69   990.04  1034.54  1072.67
                             1126.50  1183.14  1208.91  1224.52  1278.40
                             1301.16  1313.78  1430.59  1470.88  1501.99
                             1526.33  1545.10  1560.08  1609.29  1701.57
                             1765.21  1801.68  1830.57  1887.60  1920.30
                             1999.73  2050.37  2084.14  2127.88  2136.48
                             2208.78  2219.70  2300.78  2359.90  2433.76
                             4304.64  4362.50  4628.76  4650.94  4676.70
                             4700.13  4710.70  4991.99  5120.30  5226.52

 Zero-point correction=                           0.176586 (Hartree/Particle)
 Thermal correction to Energy=                    0.187404
 Thermal correction to Enthalpy=                  0.188349
 Thermal correction to Gibbs Free Energy=         0.138823
 Sum of electronic and zero-point Energies=           -856.513810
 Sum of electronic and thermal Energies=              -856.502992
 Sum of electronic and thermal Enthalpies=            -856.502048
 Sum of electronic and thermal Free Energies=         -856.551573

                     E (Thermal)             CV                S
                      KCal/Mol        Cal/Mol-Kelvin    Cal/Mol-Kelvin
 Total                  117.598             41.557            104.236
 Electronic               0.000              0.000              0.000
 Translational            0.889              2.981             41.438
 Rotational               0.889              2.981             31.235
 Vibrational            115.821             35.595             31.563
 Vibration     1          0.594              1.982              5.499
 Vibration     2          0.599              1.965              3.998
 Vibration     3          0.604              1.948              3.434
 Vibration     4          0.605              1.944              3.331
 Vibration     5          0.625              1.879              2.435
 Vibration     6          0.662              1.764              1.737
 Vibration     7          0.691              1.678              1.429
 Vibration     8          0.715              1.610              1.246
 Vibration     9          0.722              1.588              1.195
 Vibration    10          0.776              1.443              0.918
 Vibration    11          0.824              1.323              0.746
 Vibration    12          0.856              1.248              0.656
 Vibration    13          0.933              1.082              0.492
 Vibration    14          0.945              1.057              0.471

 Optimization completed.
    -- Stationary point found.
 Normal termination of Gaussian 16 at Wed Dec  9 17:36:58 2020.

 ----------------------------------------------------------------------
 # B3LYP/6-311++G(d,p) empiricaldispersion=gd3bj scf=xqc pop=npa geom=c
 heck
 ----------------------------------------------------------------------

 --------------------------------------
 CID_82503595_JID_2649_Energie_neutraal
 --------------------------------------
 Structure from the checkpoint file:  "JID_2649.chk"
 Charge =  0 Multiplicity = 1

 SCF Done:  E(RB3LYP) =  -856.849072650     A.U. after   16 cycles
 Normal termination of Gaussian 16 at Wed Dec  9 17:39:25 2020.

 ----------------------------------------------------------------------
 # B3LYP/6-311++G(d,p) empiricaldispersion=gd3bj scf=xqc pop=npa geom=c
 heck
 ----------------------------------------------------------------------

 ------------------------------------
 CID_82503595_JID_2649_Energie_kation
 ------------------------------------
 Structure from the checkpoint file:  "JID_2649.chk"
 Charge =  1 Multiplicity = 2

 SCF Done:  E(UB3LYP) =  -856.594711156     A.U. after   22 cycles
 Normal termination of Gaussian 16 at Wed Dec  9 17:45:00 2020.
 Gaussian 16:  ES64L-G16RevA.03 25-Dec-2016

 ----------------------------------------------------------------------
 # B3LYP/6-311++G(d,p) empiricaldispersion=gd3bj scf=xqc pop=npa geom=c
 heck
 ----------------------------------------------------------------------

 -----------------------------------
 CID_82503595_JID_2649_Energie_anion
 -----------------------------------
 Structure from the checkpoint file:  "JID_2649.chk"
 Charge = -1 Multiplicity = 2

                         Standard orientation:
 ---------------------------------------------------------------------
 Center     Atomic      Atomic             Coordinates (Angstroms)
 Number     Number       Type             X           Y           Z
 ---------------------------------------------------------------------
      1          6           0       -3.592945    0.443218    0.438312
      2          6           0       -3.500522   -0.844213   -0.012466
      3         16           0       -1.863076   -1.252143   -0.432362
      4          6           0       -1.286167    0.338802    0.041640
      5          6           0       -2.337037    1.115912    0.475051
      6          6           0        0.109726    0.694887   -0.067362
      7          6           0        0.720361    1.939995   -0.168138
      8          6           0        2.124054    1.731252   -0.218411
      9          6           0        2.346066    0.366635   -0.161207
     10          7           0        1.120572   -0.246233   -0.082638
     11          6           0        3.588963   -0.463681   -0.201441
     12          7           0        3.424192   -1.640321    0.668984
     13          1           0       -4.526929    0.897534    0.750786
     14          1           0       -4.285864   -1.578505   -0.125094
     15          1           0       -2.201762    2.130529    0.831816
     16          1           0        0.200034    2.886143   -0.222636
     17          1           0        2.889461    2.490808   -0.305299
     18          1           0        1.029607   -1.235035    0.108892
     19          1           0        3.762940   -0.845505   -1.217842
     20          1           0        4.451458    0.177182    0.043725
     21          1           0        4.210987   -2.275244    0.548885
     22          1           0        3.430944   -1.344587    1.644268
 ---------------------------------------------------------------------

 SCF Done:  E(UB3LYP) =  -856.840284240     A.U. after   27 cycles

 The electronic state is 2-A.
 Alpha  occ. eigenvalues --  -88.75168 -14.22743 -14.18051 -10.08468 -10.08165
 Alpha  occ. eigenvalues --  -10.08126 -10.07490 -10.07281 -10.06148 -10.05021
 Alpha  occ. eigenvalues --  -10.03991 -10.03845  -7.83814  -5.80111  -5.79750
 Alpha  occ. eigenvalues --   -5.79408  -0.86024  -0.76881  -0.75835  -0.65706
 Alpha  occ. eigenvalues --   -0.64840  -0.61459  -0.59707  -0.53603  -0.47281
 Alpha  occ. eigenvalues --   -0.46494  -0.45176  -0.42506  -0.40391  -0.38007
 Alpha  occ. eigenvalues --   -0.34497  -0.33129  -0.31847  -0.30377  -0.29152
 Alpha  occ. eigenvalues --   -0.28692  -0.28059  -0.27307  -0.25877  -0.25399
 Alpha  occ. eigenvalues --   -0.24713  -0.22508  -0.14990  -0.14073  -0.13777
 Alpha  occ. eigenvalues --   -0.13193  -0.07406   0.04814
 Alpha virt. eigenvalues --    0.07029   0.07634   0.08773   0.09326   0.09795
 Alpha virt. eigenvalues --    0.10131   0.11527   0.11732   0.12699   0.13192
 Alpha virt. eigenvalues --    0.13681   0.13986   0.14701   0.14769   0.15805

  Beta  occ. eigenvalues --  -88.75138 -14.22658 -14.17977 -10.08439 -10.08134
  Beta  occ. eigenvalues --  -10.07990 -10.07440 -10.07088 -10.06176 -10.04955
  Beta  occ. eigenvalues --  -10.04015 -10.03798  -7.83786  -5.80099  -5.79738
  Beta  occ. eigenvalues --   -5.79303  -0.85893  -0.76737  -0.75644  -0.65611
  Beta  occ. eigenvalues --   -0.64609  -0.61290  -0.59485  -0.53459  -0.47135
  Beta  occ. eigenvalues --   -0.46457  -0.44928  -0.42378  -0.40271  -0.37903
  Beta  occ. eigenvalues --   -0.34381  -0.33036  -0.31762  -0.30183  -0.29046
  Beta  occ. eigenvalues --   -0.28614  -0.27799  -0.27171  -0.25795  -0.24997
  Beta  occ. eigenvalues --   -0.24616  -0.22349  -0.14380  -0.13666  -0.13421
  Beta  occ. eigenvalues --   -0.12917  -0.06870
  Beta virt. eigenvalues --    0.07514   0.07924   0.08584   0.08963   0.09494
  Beta virt. eigenvalues --    0.10215   0.10595   0.11782   0.12136   0.12984
  Beta virt. eigenvalues --    0.13310   0.13875   0.14342   0.14703   0.14812

 Mulliken charges and spin densities:
               1          2
     1  C   -0.803607  -0.031239
     2  C    0.206856   0.119970
     3  S   -0.567921   0.102476
     4  C   -0.369109  -0.137301
     5  C    1.054801   0.094885
     6  C   -0.370746   0.125532
     7  C    0.132962  -0.235774
     8  C   -0.742920   0.502487
     9  C   -0.953712   1.264585
    10  N   -0.017904   0.098774
    11  C    2.395718  -3.206040
    12  N   -0.464918   0.061556
    13  H    0.092423   0.011504
    14  H    0.203044  -0.006083
    15  H    0.122367  -0.000340
    16  H    0.061808   0.052190
    17  H   -0.022402   0.149841
    18  H    0.292703  -0.008640
    19  H   -0.369361   0.538720
    20  H   -0.457359   0.621935
    21  H   -0.364727   0.613622
    22  H   -0.057997   0.267340
 Sum of Mulliken charges =  -1.00000   1.00000

 Dipole moment (field-independent basis, Debye):
    X=             -8.0139    Y=              3.0078    Z=             -0.0427  Tot=              8.5598
 Quadrupole moment (field-independent basis, Debye-Ang):
   XX=           -153.0587   YY=           -103.6640   ZZ=            -99.5136
   XY=             16.6363   XZ=             -3.5658   YZ=              2.2736

 Summary of Natural Population Analysis:

                                       Natural Population
                Natural  -----------------------------------------------
    Atom  No    Charge         Core      Valence    Rydberg      Total
 -----------------------------------------------------------------------
      C    1   -0.13885      0.99954     2.12984    0.00946     3.13885
      C    2   -0.17272      0.99955     2.16200    0.01117     3.17272
      S    3    0.19329      4.99945     2.78514    0.02211     7.80671
      C    4   -0.07663      0.99946     2.06605    0.01112     3.07663
      C    5   -0.11965      0.99950     2.11178    0.00837     3.11965
      C    6    0.04655      0.99950     1.94024    0.01370     2.95345
      C    7   -0.12556      0.99953     2.11785    0.00818     3.12556
      C    8   -0.15428      0.99951     2.14645    0.00831     3.15428
      C    9    0.08043      0.99955     1.90593    0.01409     2.91957
      N   10   -0.25495      0.99963     2.74685    0.00847     3.75495
      C   11   -0.10161      0.99960     2.08955    0.01246     3.10161
      N   12   -0.42774      0.99978     2.91638    0.01159     3.92774
      H   13    0.09850      0.00000     0.40048    0.00102     0.40150
      H   14    0.10051      0.00000     0.39861    0.00088     0.39949
      H   15    0.10178      0.00000     0.39720    0.00103     0.39822
      H   16    0.09934      0.00000     0.39982    0.00083     0.40066
      H   17    0.10078      0.00000     0.39840    0.00082     0.39922
      H   18    0.20877      0.00000     0.28847    0.00276     0.29123
      H   19    0.09736      0.00000     0.40023    0.00241     0.40264
      H   20    0.08758      0.00000     0.41038    0.00204     0.41242
      H   21    0.18214      0.00000     0.30844    0.00943     0.31786
      H   22    0.17495      0.00000     0.32243    0.00263     0.32505
 =======================================================================
   * Total *   -0.00000     15.99461    30.84252    0.16288    47.00000

 Normal termination of Gaussian 16 at Wed Dec  9 17:50:41 2020.
