 Gaussian 16, Revision A.03,

 -----------------------------------------------------------
 # opt freq B3LYP/6-31G(d) empiricaldispersion=gd3bj scf=xqc
 -----------------------------------------------------------

 -------------------------------
 CID_153475280_JID_3574_neutraal
 -------------------------------
 Symbolic Z-matrix:
 Charge =  0 Multiplicity = 1

 SCF Done:  E(RB3LYP) =  -554.316630316     A.U. after   15 cycles
 SCF Done:  E(RB3LYP) =  -554.325395094     A.U. after   12 cycles
 SCF Done:  E(RB3LYP) =  -554.327168211     A.U. after   12 cycles
 SCF Done:  E(RB3LYP) =  -554.328600534     A.U. after   12 cycles
 SCF Done:  E(RB3LYP) =  -554.328946770     A.U. after   13 cycles
 SCF Done:  E(RB3LYP) =  -554.329399987     A.U. after   11 cycles
 SCF Done:  E(RB3LYP) =  -554.329596601     A.U. after   12 cycles
 SCF Done:  E(RB3LYP) =  -554.329688828     A.U. after   12 cycles
 SCF Done:  E(RB3LYP) =  -554.329732420     A.U. after   11 cycles
 SCF Done:  E(RB3LYP) =  -554.329735316     A.U. after   10 cycles
 SCF Done:  E(RB3LYP) =  -554.329736349     A.U. after    8 cycles
 SCF Done:  E(RB3LYP) =  -554.329736501     A.U. after    8 cycles
 SCF Done:  E(RB3LYP) =  -554.329736525     A.U. after    7 cycles
 Optimization completed.
    -- Stationary point found.
 Normal termination of Gaussian 16 at Wed Dec  9 23:42:33 2020.

 --------------------------------------------------------------------
 #N Geom=AllCheck Guess=TCheck SCRF=Check GenChk RB3LYP/6-31G(d) Freq
 --------------------------------------------------------------------

 Structure from the checkpoint file:  "JID_3574.chk"
 -------------------------------
 CID_153475280_JID_3574_neutraal
 -------------------------------
 Charge =  0 Multiplicity = 1

 SCF Done:  E(RB3LYP) =  -554.329736525     A.U. after    1 cycles

  Exact polarizability: 145.019   3.887 122.803  -0.760   5.860  89.595
 Approx polarizability: 190.274   3.883 202.917   0.476  20.210 145.384

                      1                      2                      3
                      A                      A                      A
 Frequencies --     42.0267                58.0516               109.1482
 Red. masses --      3.6217                 2.9402                 3.5251
 Frc consts  --      0.0038                 0.0058                 0.0247
 IR Inten    --      0.5289                 0.2548                 1.3779

                      4                      5                      6
                      A                      A                      A
 Frequencies --    169.4675               198.4404               213.2032
 Red. masses --      4.1821                 2.7115                 1.5414
 Frc consts  --      0.0708                 0.0629                 0.0413
 IR Inten    --      1.6875                 0.7378                 1.1989

                      7                      8                      9
                      A                      A                      A
 Frequencies --    233.2102               255.0175               276.9481
 Red. masses --      1.6770                 1.1154                 2.9160
 Frc consts  --      0.0537                 0.0427                 0.1318
 IR Inten    --      1.0434                 0.1218                 2.3552

                     10                     11                     12
                      A                      A                      A
 Frequencies --    292.4304               325.9680               372.0571
 Red. masses --      1.0825                 2.9607                 3.1925
 Frc consts  --      0.0545                 0.1854                 0.2604
 IR Inten    --      0.0432                 5.5570                 3.0408

                     13                     14                     15
                      A                      A                      A
 Frequencies --    394.4371               445.7696               468.0043
 Red. masses --      2.8316                 2.8856                 3.6608
 Frc consts  --      0.2596                 0.3378                 0.4724
 IR Inten    --      2.8609                 2.5902                 4.1870

                     16                     17                     18
                      A                      A                      A
 Frequencies --    511.4236               549.5381               611.3972
 Red. masses --      4.8664                 3.8955                 3.9808
 Frc consts  --      0.7499                 0.6931                 0.8767
 IR Inten    --      0.9882                 3.8793                11.2770

                     19                     20                     21
                      A                      A                      A
 Frequencies --    668.7636               699.2896               742.1280
 Red. masses --      4.8393                 5.1632                 4.0650
 Frc consts  --      1.2752                 1.4876                 1.3191
 IR Inten    --      7.2153                 8.0811                 1.8161

                     22                     23                     24
                      A                      A                      A
 Frequencies --    795.8566               827.1568               830.3578
 Red. masses --      1.6678                 3.4527                 1.5727
 Frc consts  --      0.6224                 1.3918                 0.6389
 IR Inten    --     18.9328                12.1638                 0.9024

                     25                     26                     27
                      A                      A                      A
 Frequencies --    871.8171               890.1782               911.8587
 Red. masses --      2.3544                 2.3552                 2.4274
 Frc consts  --      1.0544                 1.0996                 1.1892
 IR Inten    --     21.2856                 6.5700                 3.2116

                     28                     29                     30
                      A                      A                      A
 Frequencies --    918.9538               933.4390               944.0491
 Red. masses --      2.4636                 3.6132                 1.1652
 Frc consts  --      1.2258                 1.8549                 0.6118
 IR Inten    --     21.8966                 1.4731                 1.4690

                     31                     32                     33
                      A                      A                      A
 Frequencies --    972.8387               981.1955              1002.4243
 Red. masses --      2.4686                 1.4530                 2.5740
 Frc consts  --      1.3765                 0.8242                 1.5239
 IR Inten    --      3.6861                 0.1831                18.2117

                     34                     35                     36
                      A                      A                      A
 Frequencies --   1024.4865              1095.3674              1124.2471
 Red. masses --      2.2847                 1.8458                 1.8318
 Frc consts  --      1.4128                 1.3049                 1.3641
 IR Inten    --      3.0381                19.9684                15.8238

                     37                     38                     39
                      A                      A                      A
 Frequencies --   1149.4107              1162.5302              1165.0228
 Red. masses --      1.8974                 1.3732                 2.1947
 Frc consts  --      1.4770                 1.0934                 1.7551
 IR Inten    --      2.2205                10.6717                 6.4594

                     40                     41                     42
                      A                      A                      A
 Frequencies --   1210.0859              1231.7913              1243.3913
 Red. masses --      1.9121                 1.9051                 2.5606
 Frc consts  --      1.6496                 1.7031                 2.3324
 IR Inten    --     29.6288                 2.9514                11.5984

                     43                     44                     45
                      A                      A                      A
 Frequencies --   1266.6874              1289.6434              1318.7351
 Red. masses --      1.5873                 1.5644                 1.6515
 Frc consts  --      1.5005                 1.5330                 1.6922
 IR Inten    --     14.7784                 6.6584                 5.7709

                     46                     47                     48
                      A                      A                      A
 Frequencies --   1343.6678              1350.6201              1357.9429
 Red. masses --      1.4842                 1.3823                 1.4089
 Frc consts  --      1.5788                 1.4857                 1.5307
 IR Inten    --      3.1429                 4.0242                15.9029

                     49                     50                     51
                      A                      A                      A
 Frequencies --   1378.8232              1392.7342              1420.0950
 Red. masses --      1.9583                 1.5712                 1.2523
 Frc consts  --      2.1936                 1.7957                 1.4879
 IR Inten    --      2.0930                 2.2391                 5.1825

                     52                     53                     54
                      A                      A                      A
 Frequencies --   1429.6756              1443.8520              1471.8060
 Red. masses --      1.4318                 1.2459                 1.1739
 Frc consts  --      1.7243                 1.5304                 1.4983
 IR Inten    --      3.0260                 4.9211                 0.1474

                     55                     56                     57
                      A                      A                      A
 Frequencies --   1517.2328              1520.2168              1522.8131
 Red. masses --      1.0541                 1.0513                 1.0461
 Frc consts  --      1.4297                 1.4315                 1.4293
 IR Inten    --     18.5499                 5.0168                 1.2760

                     58                     59                     60
                      A                      A                      A
 Frequencies --   1532.1528              1535.1967              1545.7819
 Red. masses --      1.0502                 1.0444                 1.0566
 Frc consts  --      1.4525                 1.4503                 1.4874
 IR Inten    --      3.7461                 6.4915                 7.2286

                     61                     62                     63
                      A                      A                      A
 Frequencies --   1662.2856              1689.6732              1726.7904
 Red. masses --      8.2042                 7.9374                 8.6820
 Frc consts  --     13.3566                13.3516                15.2528
 IR Inten    --     23.7575                 3.2369                60.2000

                     64                     65                     66
                      A                      A                      A
 Frequencies --   2975.3989              2980.3335              3019.3593
 Red. masses --      1.0820                 1.0597                 1.0825
 Frc consts  --      5.6439                 5.5460                 5.8147
 IR Inten    --     17.4698               123.4106                10.7961

                     67                     68                     69
                      A                      A                      A
 Frequencies --   3039.3756              3043.9419              3048.7359
 Red. masses --      1.0843                 1.0364                 1.0371
 Frc consts  --      5.9017                 5.6578                 5.6794
 IR Inten    --     28.2826                21.9292                35.0684

                     70                     71                     72
                      A                      A                      A
 Frequencies --   3105.1380              3106.7957              3112.7334
 Red. masses --      1.0782                 1.1016                 1.1011
 Frc consts  --      6.1248                 6.2645                 6.2858
 IR Inten    --     21.1004                 4.3785                66.0117

                     73                     74                     75
                      A                      A                      A
 Frequencies --   3122.3698              3124.3448              3142.3833
 Red. masses --      1.1028                 1.0890                 1.1004
 Frc consts  --      6.3346                 6.2632                 6.4021
 IR Inten    --     36.8813                41.5733                17.3640

                     76                     77                     78
                      A                      A                      A
 Frequencies --   3162.2842              3206.7115              3229.2311
 Red. masses --      1.1018                 1.0895                 1.0941
 Frc consts  --      6.4915                 6.6009                 6.7221
 IR Inten    --     11.7280                 9.6962                10.5577

 - Thermochemistry -
 -------------------
 Temperature   298.150 Kelvin.  Pressure   1.00000 Atm.
 Atom     1 has atomic number  6 and mass  12.00000

 Molecular mass:   177.12660 amu.
 Principal axes and moments of inertia in atomic units:
                           1         2         3
     Eigenvalues --  1076.231033483.647123991.98353
           X            0.99976   0.02176  -0.00270
           Y           -0.02175   0.99975   0.00532
           Z            0.00281  -0.00526   0.99998
 This molecule is an asymmetric top.
 Rotational symmetry number  1.
 Warning -- assumption of classical behavior for rotation
           may cause significant error
 Rotational temperatures (Kelvin)      0.08048     0.02486     0.02170
 Rotational constants (GHZ):           1.67691     0.51806     0.45209
 Zero-point vibrational energy     634372.2 (Joules/Mol)
                                  151.61858 (Kcal/Mol)
 Warning -- explicit consideration of  18 degrees of freedom as
           vibrations may cause significant error
 Vibrational temperatures:     60.47    83.52   157.04   243.83   285.51
          (Kelvin)            306.75   335.54   366.91   398.47   420.74
                              469.00   535.31   567.51   641.36   673.35
                              735.82   790.66   879.66   962.20  1006.12
                             1067.76  1145.06  1190.09  1194.70  1254.35
                             1280.77  1311.96  1322.17  1343.01  1358.28
                             1399.70  1411.72  1442.27  1474.01  1575.99
                             1617.54  1653.75  1672.62  1676.21  1741.04
                             1772.27  1788.96  1822.48  1855.51  1897.37
                             1933.24  1943.24  1953.78  1983.82  2003.83
                             2043.20  2056.98  2077.38  2117.60  2182.96
                             2187.25  2190.99  2204.43  2208.81  2224.04
                             2391.66  2431.06  2484.47  4280.94  4288.04
                             4344.18  4372.98  4379.55  4386.45  4467.60
                             4469.99  4478.53  4492.39  4495.24  4521.19
                             4549.82  4613.74  4646.14

 Zero-point correction=                           0.241620 (Hartree/Particle)
 Thermal correction to Energy=                    0.253845
 Thermal correction to Enthalpy=                  0.254789
 Thermal correction to Gibbs Free Energy=         0.203230
 Sum of electronic and zero-point Energies=           -554.088117
 Sum of electronic and thermal Energies=              -554.075891
 Sum of electronic and thermal Enthalpies=            -554.074947
 Sum of electronic and thermal Free Energies=         -554.126506

                     E (Thermal)             CV                S
                      KCal/Mol        Cal/Mol-Kelvin    Cal/Mol-Kelvin
 Total                  159.290             47.579            108.516
 Electronic               0.000              0.000              0.000
 Translational            0.889              2.981             41.422
 Rotational               0.889              2.981             31.082
 Vibrational            157.513             41.618             36.012
 Vibration     1          0.595              1.980              5.161
 Vibration     2          0.596              1.974              4.522
 Vibration     3          0.606              1.942              3.284
 Vibration     4          0.625              1.880              2.441
 Vibration     5          0.637              1.842              2.148
 Vibration     6          0.644              1.821              2.016
 Vibration     7          0.654              1.790              1.854
 Vibration     8          0.665              1.754              1.696
 Vibration     9          0.678              1.716              1.552
 Vibration    10          0.688              1.688              1.460
 Vibration    11          0.710              1.624              1.280
 Vibration    12          0.744              1.530              1.071
 Vibration    13          0.761              1.482              0.983
 Vibration    14          0.805              1.370              0.809
 Vibration    15          0.825              1.321              0.743
 Vibration    16          0.867              1.225              0.630
 Vibration    17          0.905              1.141              0.545
 Vibration    18          0.971              1.008              0.430

 Optimization completed.
    -- Stationary point found.
 Normal termination of Gaussian 16 at Wed Dec  9 23:49:42 2020.

 ----------------------------------------------------------------------
 # B3LYP/6-311++G(d,p) empiricaldispersion=gd3bj scf=xqc pop=npa geom=c
 heck
 ----------------------------------------------------------------------

 ---------------------------------------
 CID_153475280_JID_3574_Energie_neutraal
 ---------------------------------------
 Structure from the checkpoint file:  "JID_3574.chk"
 Charge =  0 Multiplicity = 1

 SCF Done:  E(RB3LYP) =  -554.476853961     A.U. after   16 cycles
 Normal termination of Gaussian 16 at Wed Dec  9 23:52:36 2020.

 ----------------------------------------------------------------------
 # B3LYP/6-311++G(d,p) empiricaldispersion=gd3bj scf=xqc pop=npa geom=c
 heck
 ----------------------------------------------------------------------

 -------------------------------------
 CID_153475280_JID_3574_Energie_kation
 -------------------------------------
 Structure from the checkpoint file:  "JID_3574.chk"
 Charge =  1 Multiplicity = 2

 SCF Done:  E(UB3LYP) =  -554.180765096     A.U. after   26 cycles
 Normal termination of Gaussian 16 at Wed Dec  9 23:58:56 2020.
 Gaussian 16:  ES64L-G16RevA.03 25-Dec-2016

 ----------------------------------------------------------------------
 # B3LYP/6-311++G(d,p) empiricaldispersion=gd3bj scf=xqc pop=npa geom=c
 heck
 ----------------------------------------------------------------------

 ------------------------------------
 CID_153475280_JID_3574_Energie_anion
 ------------------------------------
 Structure from the checkpoint file:  "JID_3574.chk"
 Charge = -1 Multiplicity = 2

                         Standard orientation:
 ---------------------------------------------------------------------
 Center     Atomic      Atomic             Coordinates (Angstroms)
 Number     Number       Type             X           Y           Z
 ---------------------------------------------------------------------
      1          6           0        3.136155    1.303723   -0.863248
      2          6           0        2.633194   -0.110963   -0.569267
      3          6           0        3.621994   -0.880014    0.325833
      4          6           0        1.243990   -0.156091    0.031929
      5          6           0        0.589800    0.897453    0.546989
      6          6           0       -0.807301    0.783635    1.100839
      7          6           0       -1.755153    1.764671    0.419779
      8          7           0       -2.510624    1.226065   -0.461394
      9          7           0       -2.223828   -0.131492   -0.551094
     10          6           0       -1.485322   -0.535420    0.680710
     11          6           0       -0.508303   -1.645704    0.392482
     12          7           0        0.717029   -1.475779    0.076957
     13          6           0       -3.378342   -0.940458   -0.897607
     14          1           0        3.282832    1.874936    0.061664
     15          1           0        2.435938    1.857617   -1.497897
     16          1           0        4.102308    1.261748   -1.377103
     17          1           0        2.563810   -0.657672   -1.521296
     18          1           0        3.753402   -0.361137    1.283280
     19          1           0        3.251647   -1.888366    0.528890
     20          1           0        4.602466   -0.957558   -0.157743
     21          1           0        1.052712    1.878611    0.569350
     22          1           0       -0.800222    0.926665    2.189625
     23          1           0       -1.757892    2.838046    0.574463
     24          1           0       -2.212618   -0.860525    1.443700
     25          1           0       -0.877850   -2.672742    0.440364
     26          1           0       -3.043364   -1.951494   -1.147850
     27          1           0       -4.115265   -1.002743   -0.077940
     28          1           0       -3.860209   -0.501935   -1.773422
 ---------------------------------------------------------------------

 SCF Done:  E(UB3LYP) =  -554.474169553     A.U. after   33 cycles
 SCF Done:  E(UB3LYP) =  -554.474169553     a.u. after    1 cycles

 The electronic state is 2-A.
 Alpha  occ. eigenvalues --  -14.21411 -14.20647 -14.14317 -10.07499 -10.07394
 Alpha  occ. eigenvalues --  -10.06867 -10.05679 -10.04864 -10.04415 -10.04196
 Alpha  occ. eigenvalues --  -10.04010 -10.03509 -10.01306  -0.88786  -0.77799
 Alpha  occ. eigenvalues --   -0.71026  -0.67662  -0.65701  -0.60151  -0.56571
 Alpha  occ. eigenvalues --   -0.55706  -0.50075  -0.48796  -0.44287  -0.43701
 Alpha  occ. eigenvalues --   -0.38407  -0.36914  -0.35015  -0.33551  -0.33073
 Alpha  occ. eigenvalues --   -0.31636  -0.30898  -0.29700  -0.28473  -0.27722
 Alpha  occ. eigenvalues --   -0.26902  -0.26507  -0.24858  -0.23548  -0.22567
 Alpha  occ. eigenvalues --   -0.22329  -0.21314  -0.20233  -0.18910  -0.15531
 Alpha  occ. eigenvalues --   -0.10982  -0.09165  -0.08559   0.05145
 Alpha virt. eigenvalues --    0.07771   0.08164   0.08683   0.09635   0.10385
 Alpha virt. eigenvalues --    0.10647   0.10972   0.11595   0.11735   0.12467
 Alpha virt. eigenvalues --    0.13179   0.13658   0.13905   0.14019   0.15275

  Beta  occ. eigenvalues --  -14.21364 -14.20575 -14.14159 -10.07473 -10.07421
  Beta  occ. eigenvalues --  -10.06806 -10.05698 -10.04873 -10.04328 -10.04184
  Beta  occ. eigenvalues --  -10.03596 -10.03483 -10.01079  -0.88673  -0.77296
  Beta  occ. eigenvalues --   -0.70915  -0.67560  -0.65491  -0.59796  -0.56527
  Beta  occ. eigenvalues --   -0.55576  -0.49930  -0.48285  -0.44017  -0.43518
  Beta  occ. eigenvalues --   -0.38213  -0.36774  -0.34805  -0.33386  -0.32961
  Beta  occ. eigenvalues --   -0.31505  -0.30724  -0.29621  -0.28361  -0.27588
  Beta  occ. eigenvalues --   -0.26812  -0.26313  -0.24614  -0.23187  -0.22385
  Beta  occ. eigenvalues --   -0.22238  -0.21183  -0.19668  -0.18436  -0.15150
  Beta  occ. eigenvalues --   -0.10610  -0.08421  -0.07830
  Beta virt. eigenvalues --    0.07666   0.08215   0.08910   0.09694   0.10404
  Beta virt. eigenvalues --    0.10568   0.10956   0.10962   0.11769   0.12001
  Beta virt. eigenvalues --    0.12556   0.13181   0.13601   0.13864   0.14065

 Mulliken charges and spin densities:
               1          2
     1  C   -0.278475  -0.293251
     2  C   -0.632086   0.673779
     3  C   -0.267848  -0.390394
     4  C   -0.301193  -0.047208
     5  C   -0.052084   0.271600
     6  C    0.206450  -0.297903
     7  C    0.035407  -0.299450
     8  N   -0.280218   0.043543
     9  N    0.375561   0.008895
    10  C   -0.310258  -0.159539
    11  C   -0.009500   0.095152
    12  N    0.008987   0.061062
    13  C    0.224178  -0.522146
    14  H    0.082886   0.035722
    15  H    0.058646   0.075755
    16  H   -0.110384   0.250451
    17  H    0.157453   0.009110
    18  H    0.094866   0.025935
    19  H    0.118487   0.036797
    20  H   -0.082107   0.200053
    21  H    0.188521  -0.022989
    22  H   -0.042760   0.241595
    23  H   -0.139971   0.297420
    24  H   -0.066910   0.226259
    25  H    0.088757   0.037459
    26  H   -0.036724   0.176972
    27  H   -0.111593   0.216862
    28  H    0.081911   0.048459
 Sum of Mulliken charges =  -1.00000   1.00000

 Dipole moment (field-independent basis, Debye):
    X=              0.0348    Y=              0.5613    Z=              0.4622  Tot=              0.7280
 Quadrupole moment (field-independent basis, Debye-Ang):
   XX=           -129.3440   YY=           -103.8226   ZZ=            -96.4604
   XY=              4.9709   XZ=              2.4667   YZ=              1.9589

 Summary of Natural Population Analysis:

                                       Natural Population
                Natural  -----------------------------------------------
    Atom  No    Charge         Core      Valence    Rydberg      Total
 -----------------------------------------------------------------------
      C    1   -0.28369      0.99966     2.27946    0.00457     3.28369
      C    2   -0.12537      0.99958     2.11366    0.01214     3.12537
      C    3   -0.27820      0.99965     2.27400    0.00455     3.27820
      C    4    0.08730      0.99942     1.89974    0.01353     2.91270
      C    5   -0.07943      0.99945     2.07078    0.00921     3.07943
      C    6   -0.14870      0.99958     2.13730    0.01182     3.14870
      C    7    0.03594      0.99964     1.94796    0.01646     2.96406
      N    8   -0.12640      0.99969     2.61401    0.01270     3.62640
      N    9   -0.17192      0.99969     2.65752    0.01470     3.67192
      C   10   -0.04201      0.99958     2.02816    0.01426     3.04201
      C   11    0.14169      0.99961     1.84395    0.01475     2.85831
      N   12   -0.23249      0.99967     2.72145    0.01137     3.73249
      C   13   -0.17249      0.99965     2.16559    0.00726     3.17249
      H   14    0.09385      0.00000     0.40510    0.00105     0.40615
      H   15    0.10173      0.00000     0.39729    0.00098     0.39827
      H   16    0.09380      0.00000     0.40526    0.00094     0.40620
      H   17    0.09640      0.00000     0.40105    0.00255     0.40360
      H   18    0.09165      0.00000     0.40738    0.00097     0.40835
      H   19    0.10880      0.00000     0.38994    0.00127     0.39120
      H   20    0.08927      0.00000     0.40940    0.00133     0.41073
      H   21    0.09199      0.00000     0.40690    0.00112     0.40801
      H   22    0.10757      0.00000     0.39107    0.00135     0.39243
      H   23    0.08956      0.00000     0.40910    0.00134     0.41044
      H   24    0.09178      0.00000     0.40534    0.00288     0.40822
      H   25    0.06847      0.00000     0.42963    0.00191     0.43153
      H   26    0.09586      0.00000     0.40270    0.00144     0.40414
      H   27    0.07769      0.00000     0.41933    0.00298     0.42231
      H   28    0.09737      0.00000     0.40120    0.00143     0.40263
 =======================================================================
   * Total *   -0.00000     12.99487    34.83429    0.17083    48.00000

 Normal termination of Gaussian 16 at Thu Dec 10 00:06:56 2020.
