 Gaussian 16, Revision A.03,

 -----------------------------------------------------------
 # opt freq B3LYP/6-31G(d) empiricaldispersion=gd3bj scf=xqc
 -----------------------------------------------------------

 ------------------------------
 CID_65675403_JID_7208_neutraal
 ------------------------------
 Symbolic Z-matrix:
 Charge =  0 Multiplicity = 1

 SCF Done:  E(RB3LYP) =  -759.977195742     A.U. after   15 cycles
 SCF Done:  E(RB3LYP) =  -759.986440806     A.U. after   13 cycles
 SCF Done:  E(RB3LYP) =  -759.991646778     A.U. after   14 cycles
 SCF Done:  E(RB3LYP) =  -759.995683195     A.U. after   15 cycles
 SCF Done:  E(RB3LYP) =  -759.996927428     A.U. after   12 cycles
 SCF Done:  E(RB3LYP) =  -759.997172608     A.U. after   11 cycles
 SCF Done:  E(RB3LYP) =  -759.997171524     A.U. after   11 cycles
 SCF Done:  E(RB3LYP) =  -759.997212865     A.U. after   10 cycles
 SCF Done:  E(RB3LYP) =  -759.997220107     A.U. after    9 cycles
 SCF Done:  E(RB3LYP) =  -759.997224145     A.U. after    9 cycles
 SCF Done:  E(RB3LYP) =  -759.997225413     A.U. after    9 cycles
 SCF Done:  E(RB3LYP) =  -759.997225777     A.U. after    7 cycles
 SCF Done:  E(RB3LYP) =  -759.997225874     A.U. after    7 cycles
 SCF Done:  E(RB3LYP) =  -759.997225916     A.U. after    7 cycles
 Optimization completed.
    -- Stationary point found.
 Normal termination of Gaussian 16 at Sun Dec 13 16:08:17 2020.

 --------------------------------------------------------------------
 #N Geom=AllCheck Guess=TCheck SCRF=Check GenChk RB3LYP/6-31G(d) Freq
 --------------------------------------------------------------------

 Structure from the checkpoint file:  "JID_7208.chk"
 ------------------------------
 CID_65675403_JID_7208_neutraal
 ------------------------------
 Charge =  0 Multiplicity = 1

 SCF Done:  E(RB3LYP) =  -759.997225916     A.U. after    1 cycles

  Exact polarizability: 236.289  20.718 170.708  -3.928  11.467  85.286
 Approx polarizability: 338.507  36.732 278.839  -7.389  31.242 137.561

                      1                      2                      3
                      A                      A                      A
 Frequencies --     37.9319                52.1407                70.8401
 Red. masses --      3.7635                 2.9152                 3.9409
 Frc consts  --      0.0032                 0.0047                 0.0117
 IR Inten    --      0.4214                 0.0506                 0.2073

                      4                      5                      6
                      A                      A                      A
 Frequencies --     80.9365               104.7473               115.5844
 Red. masses --      3.7161                 4.0998                 2.5016
 Frc consts  --      0.0143                 0.0265                 0.0197
 IR Inten    --      0.3907                 3.0861                 2.3750

                      7                      8                      9
                      A                      A                      A
 Frequencies --    146.0864               168.3871               186.7237
 Red. masses --      3.2719                 1.9908                 1.6311
 Frc consts  --      0.0411                 0.0333                 0.0335
 IR Inten    --      1.7435                 0.5314                 0.9634

                     10                     11                     12
                      A                      A                      A
 Frequencies --    226.5232               245.9438               272.7551
 Red. masses --      3.5235                 2.8972                 1.8138
 Frc consts  --      0.1065                 0.1033                 0.0795
 IR Inten    --      3.9455                 4.4370                 0.7790

                     13                     14                     15
                      A                      A                      A
 Frequencies --    284.9607               332.0292               360.7188
 Red. masses --      2.9681                 4.3826                 4.6769
 Frc consts  --      0.1420                 0.2847                 0.3585
 IR Inten    --      1.8172                 5.0873                 4.0304

                     16                     17                     18
                      A                      A                      A
 Frequencies --    374.9672               431.3170               495.6596
 Red. masses --      3.6453                 3.9790                 4.7453
 Frc consts  --      0.3020                 0.4361                 0.6869
 IR Inten    --      6.3438                 3.9209                 1.3467

                     19                     20                     21
                      A                      A                      A
 Frequencies --    505.4564               525.3933               544.9692
 Red. masses --      4.2996                 2.3680                 2.4030
 Frc consts  --      0.6472                 0.3851                 0.4205
 IR Inten    --      8.8020                45.0947                66.1765

                     22                     23                     24
                      A                      A                      A
 Frequencies --    580.2441               600.4050               627.6683
 Red. masses --      3.6740                 3.4441                 6.5556
 Frc consts  --      0.7288                 0.7315                 1.5217
 IR Inten    --      1.6654                 6.1865                10.9181

                     25                     26                     27
                      A                      A                      A
 Frequencies --    642.1164               657.6597               762.8147
 Red. masses --      5.2872                 7.5995                 5.1720
 Frc consts  --      1.2844                 1.9366                 1.7732
 IR Inten    --     13.1323                 2.7124                14.1412

                     28                     29                     30
                      A                      A                      A
 Frequencies --    767.6396               808.7243               818.3112
 Red. masses --      5.3970                 4.8433                 1.2516
 Frc consts  --      1.8738                 1.8663                 0.4938
 IR Inten    --      3.5910                 1.6813                 2.4123

                     31                     32                     33
                      A                      A                      A
 Frequencies --    850.8223               856.6270               860.2430
 Red. masses --      1.5730                 4.2541                 1.3105
 Frc consts  --      0.6709                 1.8393                 0.5714
 IR Inten    --     34.8666                 4.8856                 5.1667

                     34                     35                     36
                      A                      A                      A
 Frequencies --    899.4799               954.0074               957.5492
 Red. masses --      2.8688                 2.4899                 1.4176
 Frc consts  --      1.3675                 1.3352                 0.7658
 IR Inten    --      3.2975                 0.1110                 0.1233

                     37                     38                     39
                      A                      A                      A
 Frequencies --    960.3679              1000.7783              1023.0856
 Red. masses --      1.4688                 1.2708                 5.6753
 Frc consts  --      0.7982                 0.7499                 3.5000
 IR Inten    --      5.1390                 2.4837                 9.3479

                     40                     41                     42
                      A                      A                      A
 Frequencies --   1056.9051              1070.5096              1081.9487
 Red. masses --      5.4453                 3.5254                 2.7843
 Frc consts  --      3.5838                 2.3804                 1.9204
 IR Inten    --     55.1633                44.6901                 2.7631

                     43                     44                     45
                      A                      A                      A
 Frequencies --   1128.9729              1147.2514              1163.8380
 Red. masses --      2.0778                 2.5875                 1.2986
 Frc consts  --      1.5604                 2.0065                 1.0364
 IR Inten    --     10.9918                14.1544                17.3148

                     46                     47                     48
                      A                      A                      A
 Frequencies --   1170.6637              1185.2979              1211.2970
 Red. masses --      1.4888                 1.2667                 1.4042
 Frc consts  --      1.2021                 1.0485                 1.2139
 IR Inten    --      8.9460                 0.6118                12.6587

                     49                     50                     51
                      A                      A                      A
 Frequencies --   1223.3679              1268.4631              1300.2383
 Red. masses --      2.6615                 5.8755                 1.1889
 Frc consts  --      2.3469                 5.5699                 1.1843
 IR Inten    --     51.2231               109.5412                10.5982

                     52                     53                     54
                      A                      A                      A
 Frequencies --   1315.4820              1330.8831              1337.3582
 Red. masses --      3.0158                 1.8641                 2.6363
 Frc consts  --      3.0748                 1.9454                 2.7781
 IR Inten    --      4.9189               187.3948                15.4650

                     55                     56                     57
                      A                      A                      A
 Frequencies --   1348.9857              1366.6520              1375.2106
 Red. masses --      2.5188                 1.9061                 1.8101
 Frc consts  --      2.7006                 2.0975                 2.0169
 IR Inten    --    148.0304                48.2968               106.4021

                     58                     59                     60
                      A                      A                      A
 Frequencies --   1421.1015              1441.8557              1452.5663
 Red. masses --      2.3501                 1.5542                 2.0108
 Frc consts  --      2.7963                 1.9037                 2.4998
 IR Inten    --    135.0680                12.3047                 5.4775

                     61                     62                     63
                      A                      A                      A
 Frequencies --   1486.7695              1509.2277              1509.6020
 Red. masses --      1.3736                 2.3201                 1.0496
 Frc consts  --      1.7889                 3.1136                 1.4093
 IR Inten    --     32.0826                21.4502                 5.4383

                     64                     65                     66
                      A                      A                      A
 Frequencies --   1523.2224              1526.2537              1528.7000
 Red. masses --      1.0940                 1.0578                 1.0598
 Frc consts  --      1.4955                 1.4517                 1.4593
 IR Inten    --     26.7329                39.2529                33.8540

                     67                     68                     69
                      A                      A                      A
 Frequencies --   1544.3436              1548.9440              1551.5799
 Red. masses --      2.1201                 1.6256                 1.4428
 Frc consts  --      2.9792                 2.2979                 2.0464
 IR Inten    --    203.9508                94.2864                68.6023

                     70                     71                     72
                      A                      A                      A
 Frequencies --   1596.2943              1612.9119              1623.3114
 Red. masses --      7.5864                 5.2986                 4.7457
 Frc consts  --     11.3897                 8.1215                 7.3680
 IR Inten    --     66.1857                60.9104                62.9662

                     73                     74                     75
                      A                      A                      A
 Frequencies --   1662.6064              3016.5475              3047.7866
 Red. masses --      5.8447                 1.0741                 1.0392
 Frc consts  --      9.5189                 5.7586                 5.6875
 IR Inten    --    200.9337                49.4647                21.0743

                     76                     77                     78
                      A                      A                      A
 Frequencies --   3066.8518              3103.7848              3124.5727
 Red. masses --      1.0296                 1.0928                 1.0957
 Frc consts  --      5.7056                 6.2026                 6.3028
 IR Inten    --     58.3564                 4.5659                40.2940

                     79                     80                     81
                      A                      A                      A
 Frequencies --   3134.7466              3137.7303              3171.2235
 Red. masses --      1.1024                 1.1070                 1.1066
 Frc consts  --      6.3825                 6.4216                 6.5571
 IR Inten    --     29.5603                25.8183                29.6740

                     82                     83                     84
                      A                      A                      A
 Frequencies --   3175.4151              3199.7611              3204.5434
 Red. masses --      1.0878                 1.0962                 1.0909
 Frc consts  --      6.4626                 6.6126                 6.6003
 IR Inten    --     11.1785                60.5373                 5.6784

                     85                     86                     87
                      A                      A                      A
 Frequencies --   3209.8440              3229.7752              3587.7422
 Red. masses --      1.0889                 1.0950                 1.0759
 Frc consts  --      6.6103                 6.7296                 8.1599
 IR Inten    --      2.3864                 6.3090                17.0838

 - Thermochemistry -
 -------------------
 Temperature   298.150 Kelvin.  Pressure   1.00000 Atm.
 Atom     1 has atomic number  6 and mass  12.00000

 Molecular mass:   230.11676 amu.
 Principal axes and moments of inertia in atomic units:
                           1         2         3
     Eigenvalues --  2303.942676743.047288717.84750
           X            0.99975  -0.02215  -0.00160
           Y            0.02215   0.99975  -0.00009
           Z            0.00161   0.00006   1.00000
 This molecule is an asymmetric top.
 Rotational symmetry number  1.
 Warning -- assumption of classical behavior for rotation
           may cause significant error
 Rotational temperatures (Kelvin)      0.03759     0.01284     0.00994
 Rotational constants (GHZ):           0.78333     0.26764     0.20702
 Zero-point vibrational energy     665276.6 (Joules/Mol)
                                  159.00491 (Kcal/Mol)
 Warning -- explicit consideration of  23 degrees of freedom as
           vibrations may cause significant error
 Vibrational temperatures:     54.58    75.02   101.92   116.45   150.71
          (Kelvin)            166.30   210.19   242.27   268.65   325.92
                              353.86   392.43   409.99   477.72   518.99
                              539.49   620.57   713.14   727.24   755.92
                              784.09   834.84   863.85   903.07   923.86
                              946.23  1097.52  1104.46  1163.57  1177.37
                             1224.14  1232.50  1237.70  1294.15  1372.60
                             1377.70  1381.76  1439.90  1471.99  1520.65
                             1540.22  1556.68  1624.34  1650.64  1674.50
                             1684.32  1705.38  1742.79  1760.15  1825.04
                             1870.75  1892.69  1914.84  1924.16  1940.89
                             1966.31  1978.62  2044.65  2074.51  2089.92
                             2139.13  2171.44  2171.98  2191.58  2195.94
                             2199.46  2221.97  2228.58  2232.38  2296.71
                             2320.62  2335.58  2392.12  4340.14  4385.09
                             4412.52  4465.65  4495.56  4510.20  4514.49
                             4562.68  4568.71  4603.74  4610.62  4618.25
                             4646.93  5161.96

 Zero-point correction=                           0.253390 (Hartree/Particle)
 Thermal correction to Energy=                    0.268735
 Thermal correction to Enthalpy=                  0.269679
 Thermal correction to Gibbs Free Energy=         0.209795
 Sum of electronic and zero-point Energies=           -759.743835
 Sum of electronic and thermal Energies=              -759.728491
 Sum of electronic and thermal Enthalpies=            -759.727546
 Sum of electronic and thermal Free Energies=         -759.787431

                     E (Thermal)             CV                S
                      KCal/Mol        Cal/Mol-Kelvin    Cal/Mol-Kelvin
 Total                  168.634             57.760            126.038
 Electronic               0.000              0.000              0.000
 Translational            0.889              2.981             42.202
 Rotational               0.889              2.981             33.271
 Vibrational            166.857             51.799             50.565
 Vibration     1          0.594              1.982              5.364
 Vibration     2          0.596              1.977              4.734
 Vibration     3          0.598              1.968              4.130
 Vibration     4          0.600              1.962              3.868
 Vibration     5          0.605              1.945              3.364
 Vibration     6          0.608              1.936              3.173
 Vibration     7          0.617              1.907              2.723
 Vibration     8          0.625              1.881              2.453
 Vibration     9          0.632              1.858              2.260
 Vibration    10          0.650              1.801              1.906
 Vibration    11          0.660              1.769              1.759
 Vibration    12          0.676              1.724              1.579
 Vibration    13          0.683              1.702              1.504
 Vibration    14          0.714              1.612              1.250
 Vibration    15          0.735              1.553              1.119
 Vibration    16          0.746              1.523              1.059
 Vibration    17          0.792              1.402              0.854
 Vibration    18          0.851              1.260              0.669
 Vibration    19          0.861              1.238              0.645
 Vibration    20          0.880              1.194              0.598
 Vibration    21          0.900              1.151              0.555
 Vibration    22          0.937              1.074              0.485
 Vibration    23          0.959              1.031              0.449

 Optimization completed.
    -- Stationary point found.
 Normal termination of Gaussian 16 at Sun Dec 13 16:18:31 2020.

 ----------------------------------------------------------------------
 # B3LYP/6-311++G(d,p) empiricaldispersion=gd3bj scf=xqc pop=npa geom=c
 heck
 ----------------------------------------------------------------------

 --------------------------------------
 CID_65675403_JID_7208_Energie_neutraal
 --------------------------------------
 Structure from the checkpoint file:  "JID_7208.chk"
 Charge =  0 Multiplicity = 1

 SCF Done:  E(RB3LYP) =  -760.199353111     A.U. after   16 cycles
 Normal termination of Gaussian 16 at Sun Dec 13 16:23:33 2020.

 ----------------------------------------------------------------------
 # B3LYP/6-311++G(d,p) empiricaldispersion=gd3bj scf=xqc pop=npa geom=c
 heck
 ----------------------------------------------------------------------

 ------------------------------------
 CID_65675403_JID_7208_Energie_kation
 ------------------------------------
 Structure from the checkpoint file:  "JID_7208.chk"
 Charge =  1 Multiplicity = 2

 SCF Done:  E(UB3LYP) =  -759.924693097     A.U. after   22 cycles
 Normal termination of Gaussian 16 at Sun Dec 13 16:33:36 2020.
 Gaussian 16:  ES64L-G16RevA.03 25-Dec-2016

 ----------------------------------------------------------------------
 # B3LYP/6-311++G(d,p) empiricaldispersion=gd3bj scf=xqc pop=npa geom=c
 heck
 ----------------------------------------------------------------------

 -----------------------------------
 CID_65675403_JID_7208_Energie_anion
 -----------------------------------
 Structure from the checkpoint file:  "JID_7208.chk"
 Charge = -1 Multiplicity = 2

                         Standard orientation:
 ---------------------------------------------------------------------
 Center     Atomic      Atomic             Coordinates (Angstroms)
 Number     Number       Type             X           Y           Z
 ---------------------------------------------------------------------
      1          6           0       -2.755136    3.523161   -0.344840
      2          6           0       -3.137936    2.047786   -0.365325
      3          7           0       -1.973320    1.227376   -0.047754
      4          6           0       -2.077614   -0.142573    0.029911
      5          7           0       -3.310099   -0.663814    0.038006
      6          6           0       -3.410985   -1.997794    0.083309
      7          6           0       -2.294574   -2.821799    0.084291
      8          7           0       -1.055760   -2.307727    0.101613
      9          6           0       -0.918038   -0.981922    0.105478
     10          6           0        0.463397   -0.453777    0.149446
     11          6           0        1.486606   -1.139603   -0.514769
     12          7           0        2.770775   -0.763216   -0.514718
     13          6           0        3.095938    0.328225    0.173288
     14          6           0        2.165819    1.094141    0.896592
     15          6           0        0.842145    0.692434    0.878279
     16          8           0        4.379816    0.742326    0.195937
     17          6           0        5.326907   -0.049046   -0.527463
     18          1           0       -2.367935    3.813170    0.637795
     19          1           0       -3.626535    4.145877   -0.569632
     20          1           0       -1.985936    3.746923   -1.094984
     21          1           0       -3.910991    1.835726    0.377701
     22          1           0       -3.562723    1.768135   -1.341286
     23          1           0       -1.092787    1.566711   -0.413685
     24          1           0       -4.418001   -2.409626    0.104885
     25          1           0       -2.382413   -3.904939    0.083971
     26          1           0        1.246417   -2.041371   -1.071021
     27          1           0        2.499449    1.961413    1.454923
     28          1           0        0.101065    1.246649    1.445285
     29          1           0        5.359527   -1.071648   -0.140597
     30          1           0        5.074991   -0.086650   -1.591274
     31          1           0        6.287005    0.447294   -0.378809
 ---------------------------------------------------------------------

 SCF Done:  E(UB3LYP) =  -760.201770626     A.U. after   33 cycles
 SCF Done:  E(UB3LYP) =  -760.201772719     a.u. after    5 cycles

 The electronic state is 2-A.
 Alpha  occ. eigenvalues --  -19.03809 -14.19644 -14.17779 -14.14276 -14.13448
 Alpha  occ. eigenvalues --  -10.12151 -10.11816 -10.09516 -10.08950 -10.07084
 Alpha  occ. eigenvalues --  -10.06312 -10.05249 -10.05036 -10.04201 -10.04078
 Alpha  occ. eigenvalues --  -10.03673 -10.03581  -0.96220  -0.83677  -0.80672
 Alpha  occ. eigenvalues --   -0.78626  -0.73416  -0.67821  -0.65738  -0.64296
 Alpha  occ. eigenvalues --   -0.60340  -0.57670  -0.53290  -0.51254  -0.49838
 Alpha  occ. eigenvalues --   -0.47792  -0.46400  -0.41835  -0.40234  -0.38182
 Alpha  occ. eigenvalues --   -0.37102  -0.36433  -0.36343  -0.35507  -0.33123
 Alpha  occ. eigenvalues --   -0.31871  -0.31845  -0.30326  -0.29034  -0.28495
 Alpha  occ. eigenvalues --   -0.28035  -0.27123  -0.26710  -0.26197  -0.25375
 Alpha  occ. eigenvalues --   -0.24115  -0.22910  -0.21395  -0.18554  -0.16651
 Alpha  occ. eigenvalues --   -0.15602  -0.14273  -0.14184  -0.11147  -0.08865
 Alpha  occ. eigenvalues --   -0.06919   0.05224
 Alpha virt. eigenvalues --    0.06870   0.07537   0.09188   0.09671   0.09865
 Alpha virt. eigenvalues --    0.10167   0.10542   0.11009   0.11428   0.11867
 Alpha virt. eigenvalues --    0.12059   0.12292   0.13018   0.13768   0.14077

  Beta  occ. eigenvalues --  -19.03745 -14.19658 -14.17856 -14.13944 -14.12882
  Beta  occ. eigenvalues --  -10.11895 -10.11818 -10.09593 -10.08949 -10.07079
  Beta  occ. eigenvalues --  -10.06165 -10.05150 -10.05085 -10.04188 -10.03960
  Beta  occ. eigenvalues --  -10.03617 -10.03304  -0.96050  -0.83431  -0.80562
  Beta  occ. eigenvalues --   -0.78184  -0.72645  -0.67643  -0.65622  -0.64102
  Beta  occ. eigenvalues --   -0.60128  -0.57441  -0.53080  -0.50978  -0.49619
  Beta  occ. eigenvalues --   -0.47640  -0.46025  -0.41729  -0.40093  -0.38058
  Beta  occ. eigenvalues --   -0.37003  -0.36195  -0.36144  -0.35437  -0.33016
  Beta  occ. eigenvalues --   -0.31781  -0.31733  -0.30193  -0.28723  -0.28291
  Beta  occ. eigenvalues --   -0.27660  -0.26968  -0.26642  -0.25952  -0.24748
  Beta  occ. eigenvalues --   -0.23975  -0.22703  -0.20887  -0.17567  -0.16070
  Beta  occ. eigenvalues --   -0.14453  -0.14012  -0.13504  -0.10288  -0.08338
  Beta  occ. eigenvalues --   -0.06006
  Beta virt. eigenvalues --    0.06854   0.07509   0.09104   0.09646   0.10060
  Beta virt. eigenvalues --    0.10123   0.10470   0.10921   0.10976   0.11446
  Beta virt. eigenvalues --    0.11855   0.12218   0.12925   0.13204   0.13879

 Mulliken charges and spin densities:
               1          2
     1  C   -0.429885  -0.188991
     2  C   -0.135301   0.078009
     3  N   -0.002147   0.006636
     4  C   -0.388312  -0.070170
     5  N   -0.200878   0.130555
     6  C   -0.216446   0.257437
     7  C    0.028145  -0.079979
     8  N   -0.048170   0.266915
     9  C   -0.577845   0.142534
    10  C    0.593144   0.046367
    11  C   -0.382618   0.060703
    12  N   -0.099996  -0.044649
    13  C   -0.375001   0.097468
    14  C    0.037459  -0.019444
    15  C   -0.361987   0.133589
    16  O   -0.170967   0.011542
    17  C   -0.297413  -0.005741
    18  H    0.106105   0.032688
    19  H    0.048601   0.075330
    20  H    0.090310   0.038727
    21  H    0.158944   0.018643
    22  H    0.140718   0.008511
    23  H    0.258580  -0.014779
    24  H    0.111327  -0.016961
    25  H    0.115400   0.003517
    26  H    0.209257  -0.008486
    27  H    0.135165   0.028814
    28  H    0.208930   0.004609
    29  H    0.165189   0.001459
    30  H    0.158450   0.006002
    31  H    0.121242  -0.000858
 Sum of Mulliken charges =  -1.00000   1.00000

 Dipole moment (field-independent basis, Debye):
    X=              2.9380    Y=              4.4040    Z=             -0.7321  Tot=              5.3444
 Quadrupole moment (field-independent basis, Debye-Ang):
   XX=           -144.9260   YY=           -123.9839   ZZ=           -110.1074
   XY=             -6.7289   XZ=             -1.2306   YZ=              0.1946

 Summary of Natural Population Analysis:

                                       Natural Population
                Natural  -----------------------------------------------
    Atom  No    Charge         Core      Valence    Rydberg      Total
 -----------------------------------------------------------------------
      C    1   -0.28959      0.99967     2.28543    0.00449     3.28959
      C    2   -0.08678      0.99965     2.07667    0.01047     3.08678
      N    3   -0.32647      0.99967     2.81601    0.01079     3.82647
      C    4    0.18022      0.99953     1.80539    0.01486     2.81978
      N    5   -0.22198      0.99967     2.71202    0.01028     3.72198
      C    6    0.04928      0.99960     1.93646    0.01465     2.95072
      C    7   -0.04562      0.99960     2.03139    0.01464     3.04562
      N    8   -0.14519      0.99968     2.63446    0.01106     3.64519
      C    9    0.09296      0.99950     1.89223    0.01530     2.90704
      C   10   -0.05586      0.99950     2.04579    0.01057     3.05586
      C   11    0.07691      0.99956     1.91020    0.01333     2.92309
      N   12   -0.28691      0.99966     2.77779    0.00946     3.78691
      C   13    0.29564      0.99947     1.68700    0.01790     2.70436
      C   14   -0.16206      0.99953     2.15365    0.00888     3.16206
      C   15   -0.06262      0.99954     2.05443    0.00865     3.06262
      O   16   -0.27499      0.99985     3.26632    0.00882     4.27499
      C   17   -0.10177      0.99961     2.09371    0.00845     3.10177
      H   18    0.09756      0.00000     0.40101    0.00143     0.40244
      H   19    0.09607      0.00000     0.40281    0.00112     0.40393
      H   20    0.09287      0.00000     0.40573    0.00140     0.40713
      H   21    0.09995      0.00000     0.39746    0.00259     0.40005
      H   22    0.08403      0.00000     0.41320    0.00277     0.41597
      H   23    0.18651      0.00000     0.30995    0.00354     0.31349
      H   24    0.07573      0.00000     0.42278    0.00149     0.42427
      H   25    0.08003      0.00000     0.41844    0.00153     0.41997
      H   26    0.09400      0.00000     0.40481    0.00119     0.40600
      H   27    0.09952      0.00000     0.39885    0.00163     0.40048
      H   28    0.10184      0.00000     0.39678    0.00139     0.39816
      H   29    0.08788      0.00000     0.41086    0.00126     0.41212
      H   30    0.08751      0.00000     0.41122    0.00127     0.41249
      H   31    0.08133      0.00000     0.41788    0.00079     0.41867
 =======================================================================
   * Total *   -0.00000     16.99329    43.79070    0.21600    61.00000

 Normal termination of Gaussian 16 at Sun Dec 13 17:52:38 2020.
