 Gaussian 16, Revision A.03,

 -----------------------------------------------------------
 # opt freq B3LYP/6-31G(d) empiricaldispersion=gd3bj scf=xqc
 -----------------------------------------------------------

 -------------------------------
 CID_131198093_JID_4778_neutraal
 -------------------------------
 Symbolic Z-matrix:
 Charge =  0 Multiplicity = 1

 SCF Done:  E(RB3LYP) =  -597.512298935     A.U. after   14 cycles
 SCF Done:  E(RB3LYP) =  -597.518727456     A.U. after   12 cycles
 SCF Done:  E(RB3LYP) =  -597.519128837     A.U. after   12 cycles
 SCF Done:  E(RB3LYP) =  -597.518985396     A.U. after   12 cycles
 SCF Done:  E(RB3LYP) =  -597.519330208     A.U. after   11 cycles
 SCF Done:  E(RB3LYP) =  -597.519350224     A.U. after   10 cycles
 SCF Done:  E(RB3LYP) =  -597.519360501     A.U. after    9 cycles
 SCF Done:  E(RB3LYP) =  -597.519364896     A.U. after    9 cycles
 SCF Done:  E(RB3LYP) =  -597.519366014     A.U. after    8 cycles
 SCF Done:  E(RB3LYP) =  -597.519366178     A.U. after    7 cycles
 SCF Done:  E(RB3LYP) =  -597.519592042     A.U. after   10 cycles
 SCF Done:  E(RB3LYP) =  -597.519592344     A.U. after    7 cycles
 SCF Done:  E(RB3LYP) =  -597.519592722     A.U. after    9 cycles
 SCF Done:  E(RB3LYP) =  -597.519592882     A.U. after    8 cycles
 SCF Done:  E(RB3LYP) =  -597.519592901     A.U. after    6 cycles
 Optimization completed.
    -- Stationary point found.
 Normal termination of Gaussian 16 at Thu Dec 10 10:52:39 2020.

 --------------------------------------------------------------------
 #N Geom=AllCheck Guess=TCheck SCRF=Check GenChk RB3LYP/6-31G(d) Freq
 --------------------------------------------------------------------

 Structure from the checkpoint file:  "JID_4778.chk"
 -------------------------------
 CID_131198093_JID_4778_neutraal
 -------------------------------
 Charge =  0 Multiplicity = 1

 SCF Done:  E(RB3LYP) =  -597.519592901     A.U. after    1 cycles

  Exact polarizability: 158.107  -3.486 129.514 -12.842  -2.615 101.544
 Approx polarizability: 216.651  -6.823 212.805 -29.831  -8.681 149.195

                      1                      2                      3
                      A                      A                      A
 Frequencies --     49.1461                58.5344                70.5833
 Red. masses --      1.1559                 2.6326                 2.5858
 Frc consts  --      0.0016                 0.0053                 0.0076
 IR Inten    --      0.2778                 0.1265                 0.4782

                      4                      5                      6
                      A                      A                      A
 Frequencies --     86.7759               137.5622               143.4242
 Red. masses --      4.2514                 1.7092                 1.4593
 Frc consts  --      0.0189                 0.0191                 0.0177
 IR Inten    --      0.7443                 0.5082                 0.0469

                      7                      8                      9
                      A                      A                      A
 Frequencies --    181.5677               193.4014               210.5899
 Red. masses --      3.1909                 3.1368                 2.7430
 Frc consts  --      0.0620                 0.0691                 0.0717
 IR Inten    --      0.1063                 1.6764                 0.4274

                     10                     11                     12
                      A                      A                      A
 Frequencies --    224.9263               276.8250               313.2128
 Red. masses --      3.7131                 2.8598                 2.5037
 Frc consts  --      0.1107                 0.1291                 0.1447
 IR Inten    --      1.5633                 2.8011                14.2319

                     13                     14                     15
                      A                      A                      A
 Frequencies --    360.2151               361.8539               438.6102
 Red. masses --      2.3430                 1.6071                 3.6563
 Frc consts  --      0.1791                 0.1240                 0.4144
 IR Inten    --     30.2943                97.3124                 1.2845

                     16                     17                     18
                      A                      A                      A
 Frequencies --    452.7171               472.3113               510.2806
 Red. masses --      2.7768                 3.0421                 3.4786
 Frc consts  --      0.3353                 0.3998                 0.5337
 IR Inten    --      3.5759                 3.2561                 0.8787

                     19                     20                     21
                      A                      A                      A
 Frequencies --    543.0387               596.7400               603.9379
 Red. masses --      4.8006                 2.9184                 4.5044
 Frc consts  --      0.8341                 0.6123                 0.9680
 IR Inten    --      3.1725                 4.3560                 1.4538

                     22                     23                     24
                      A                      A                      A
 Frequencies --    681.9245               744.9759               768.7919
 Red. masses --      2.6506                 3.4245                 2.9119
 Frc consts  --      0.7262                 1.1198                 1.0140
 IR Inten    --      5.7481                 6.6853                 1.5058

                     25                     26                     27
                      A                      A                      A
 Frequencies --    774.5207               810.5998               822.3970
 Red. masses --      2.3483                 1.5611                 2.2091
 Frc consts  --      0.8300                 0.6044                 0.8803
 IR Inten    --      6.7761                 3.1142                 6.3606

                     28                     29                     30
                      A                      A                      A
 Frequencies --    887.8267               912.9462               941.3647
 Red. masses --      1.2841                 2.0726                 2.3622
 Frc consts  --      0.5964                 1.0178                 1.2333
 IR Inten    --      4.8914                 0.8927                 2.4753

                     31                     32                     33
                      A                      A                      A
 Frequencies --    957.4724               967.1737               974.9094
 Red. masses --      3.8823                 1.8702                 1.4039
 Frc consts  --      2.0970                 1.0308                 0.7862
 IR Inten    --      8.1893                 0.3528                 4.6300

                     34                     35                     36
                      A                      A                      A
 Frequencies --    983.1534              1020.0280              1038.1711
 Red. masses --      1.7903                 1.4821                 2.3128
 Frc consts  --      1.0196                 0.9085                 1.4687
 IR Inten    --      6.2409                 0.2917                37.3364

                     37                     38                     39
                      A                      A                      A
 Frequencies --   1047.0347              1073.6879              1075.8780
 Red. masses --      1.5406                 1.5753                 1.5713
 Frc consts  --      0.9951                 1.0700                 1.0716
 IR Inten    --      4.7016                10.9351                 0.1960

                     40                     41                     42
                      A                      A                      A
 Frequencies --   1080.2168              1098.8353              1146.5056
 Red. masses --      3.2132                 2.0952                 2.7197
 Frc consts  --      2.2091                 1.4906                 2.1063
 IR Inten    --     15.8725                15.4077                10.4546

                     43                     44                     45
                      A                      A                      A
 Frequencies --   1165.5702              1205.6753              1234.5225
 Red. masses --      2.4444                 1.2867                 1.5771
 Frc consts  --      1.9566                 1.1020                 1.4161
 IR Inten    --      4.9391                 4.1526                10.3780

                     46                     47                     48
                      A                      A                      A
 Frequencies --   1248.4127              1266.3880              1272.4621
 Red. masses --      1.4833                 1.3677                 1.4516
 Frc consts  --      1.3621                 1.2923                 1.3848
 IR Inten    --     18.6788                10.7143                 1.7869

                     49                     50                     51
                      A                      A                      A
 Frequencies --   1278.4150              1284.4574              1299.4015
 Red. masses --      1.5231                 1.3405                 1.7945
 Frc consts  --      1.4666                 1.3030                 1.7852
 IR Inten    --      2.4844                 1.8749                 6.2672

                     52                     53                     54
                      A                      A                      A
 Frequencies --   1309.2161              1321.4353              1339.1136
 Red. masses --      5.6233                 1.4949                 1.3691
 Frc consts  --      5.6789                 1.5380                 1.4465
 IR Inten    --      1.6110                22.2335                 9.9882

                     55                     56                     57
                      A                      A                      A
 Frequencies --   1370.7287              1403.0131              1419.9482
 Red. masses --      1.5950                 2.0718                 1.8994
 Frc consts  --      1.7657                 2.4029                 2.2564
 IR Inten    --     10.1023                11.3933                12.1558

                     58                     59                     60
                      A                      A                      A
 Frequencies --   1430.3209              1439.1478              1446.6333
 Red. masses --      1.4528                 1.2949                 1.3242
 Frc consts  --      1.7511                 1.5802                 1.6327
 IR Inten    --     37.8399                 2.7598                 7.6394

                     61                     62                     63
                      A                      A                      A
 Frequencies --   1506.3855              1509.7034              1515.1139
 Red. masses --      1.0453                 1.0904                 1.0843
 Frc consts  --      1.3976                 1.4643                 1.4665
 IR Inten    --      4.6623                 0.2884                 3.8305

                     64                     65                     66
                      A                      A                      A
 Frequencies --   1517.5088              1517.9853              1524.2943
 Red. masses --      1.0845                 1.1359                 1.1422
 Frc consts  --      1.4714                 1.5421                 1.5636
 IR Inten    --      2.4249                 9.3951                26.5039

                     67                     68                     69
                      A                      A                      A
 Frequencies --   1537.9977              1543.8588              1611.7887
 Red. masses --      2.2886                 1.1416                 5.9990
 Frc consts  --      3.1896                 1.6032                 9.1822
 IR Inten    --     24.7501                 0.8537                16.9162

                     70                     71                     72
                      A                      A                      A
 Frequencies --   1658.2975              2990.7061              3052.3700
 Red. masses --      5.8496                 1.0824                 1.0397
 Frc consts  --      9.4777                 5.7043                 5.7076
 IR Inten    --     74.2609                46.9454                19.9634

                     73                     74                     75
                      A                      A                      A
 Frequencies --   3055.9705              3063.3331              3066.4989
 Red. masses --      1.0359                 1.0846                 1.0570
 Frc consts  --      5.6999                 5.9968                 5.8563
 IR Inten    --     21.0756                26.5806                44.9840

                     76                     77                     78
                      A                      A                      A
 Frequencies --   3073.0622              3086.5052              3110.3033
 Red. masses --      1.0604                 1.0597                 1.0977
 Frc consts  --      5.8999                 5.9479                 6.2564
 IR Inten    --     47.7474                15.4525                19.7977

                     79                     80                     81
                      A                      A                      A
 Frequencies --   3112.7003              3115.4108              3126.0829
 Red. masses --      1.1063                 1.1008                 1.1080
 Frc consts  --      6.3155                 6.2949                 6.3796
 IR Inten    --      7.2323                13.5132                32.3619

                     82                     83                     84
                      A                      A                      A
 Frequencies --   3135.9150              3136.6087              3141.9813
 Red. masses --      1.1025                 1.1031                 1.1080
 Frc consts  --      6.3878                 6.3943                 6.4446
 IR Inten    --     17.4548                16.9578                60.7237

                     85                     86                     87
                      A                      A                      A
 Frequencies --   3185.4730              3189.4036              3733.8819
 Red. masses --      1.0904                 1.0901                 1.0661
 Frc consts  --      6.5188                 6.5330                 8.7573
 IR Inten    --     29.3585                 1.9849                 9.2758

 - Thermochemistry -
 -------------------
 Temperature   298.150 Kelvin.  Pressure   1.00000 Atm.
 Atom     1 has atomic number  6 and mass  12.00000

 Molecular mass:   191.13101 amu.
 Principal axes and moments of inertia in atomic units:
                           1         2         3
     Eigenvalues --  1680.224314005.963524127.74343
           X            0.99999   0.00205   0.00288
           Y           -0.00229   0.99635   0.08537
           Z           -0.00270  -0.08538   0.99634
 This molecule is an asymmetric top.
 Rotational symmetry number  1.
 Warning -- assumption of classical behavior for rotation
           may cause significant error
 Rotational temperatures (Kelvin)      0.05155     0.02162     0.02098
 Rotational constants (GHZ):           1.07411     0.45051     0.43722
 Zero-point vibrational energy     709676.6 (Joules/Mol)
                                  169.61679 (Kcal/Mol)
 Warning -- explicit consideration of  21 degrees of freedom as
           vibrations may cause significant error
 Vibrational temperatures:     70.71    84.22   101.55   124.85   197.92
          (Kelvin)            206.36   261.24   278.26   302.99   323.62
                              398.29   450.64   518.27   520.63   631.06
                              651.36   679.55   734.18   781.31   858.58
                              868.93   981.14  1071.85  1106.12  1114.36
                             1166.27  1183.25  1277.38  1313.53  1354.41
                             1377.59  1391.55  1402.68  1414.54  1467.59
                             1493.70  1506.45  1544.80  1547.95  1554.19
                             1580.98  1649.57  1677.00  1734.70  1776.20
                             1796.19  1822.05  1830.79  1839.35  1848.05
                             1869.55  1883.67  1901.25  1926.69  1972.17
                             2018.62  2042.99  2057.91  2070.61  2081.38
                             2167.35  2172.13  2179.91  2183.36  2184.04
                             2193.12  2212.84  2221.27  2319.00  2385.92
                             4302.96  4391.68  4396.86  4407.45  4412.01
                             4421.45  4440.79  4475.03  4478.48  4482.38
                             4497.74  4511.88  4512.88  4520.61  4583.19
                             4588.84  5372.22

 Zero-point correction=                           0.270302 (Hartree/Particle)
 Thermal correction to Energy=                    0.284272
 Thermal correction to Enthalpy=                  0.285216
 Thermal correction to Gibbs Free Energy=         0.229338
 Sum of electronic and zero-point Energies=           -597.249291
 Sum of electronic and thermal Energies=              -597.235321
 Sum of electronic and thermal Enthalpies=            -597.234377
 Sum of electronic and thermal Free Energies=         -597.290255

                     E (Thermal)             CV                S
                      KCal/Mol        Cal/Mol-Kelvin    Cal/Mol-Kelvin
 Total                  178.383             53.004            117.605
 Electronic               0.000              0.000              0.000
 Translational            0.889              2.981             41.649
 Rotational               0.889              2.981             31.697
 Vibrational            176.606             47.042             44.260
 Vibration     1          0.595              1.978              4.851
 Vibration     2          0.596              1.974              4.506
 Vibration     3          0.598              1.968              4.137
 Vibration     4          0.601              1.958              3.731
 Vibration     5          0.614              1.916              2.838
 Vibration     6          0.616              1.910              2.758
 Vibration     7          0.630              1.865              2.312
 Vibration     8          0.635              1.849              2.195
 Vibration     9          0.643              1.825              2.039
 Vibration    10          0.650              1.803              1.919
 Vibration    11          0.678              1.716              1.553
 Vibration    12          0.701              1.648              1.345
 Vibration    13          0.735              1.554              1.121
 Vibration    14          0.736              1.551              1.114
 Vibration    15          0.799              1.386              0.831
 Vibration    16          0.811              1.355              0.788
 Vibration    17          0.829              1.311              0.731
 Vibration    18          0.865              1.227              0.633
 Vibration    19          0.898              1.155              0.559
 Vibration    20          0.955              1.039              0.455
 Vibration    21          0.962              1.023              0.443

 Optimization completed.
    -- Stationary point found.
 Normal termination of Gaussian 16 at Thu Dec 10 11:03:05 2020.

 ----------------------------------------------------------------------
 # B3LYP/6-311++G(d,p) empiricaldispersion=gd3bj scf=xqc pop=npa geom=c
 heck
 ----------------------------------------------------------------------

 ---------------------------------------
 CID_131198093_JID_4778_Energie_neutraal
 ---------------------------------------
 Structure from the checkpoint file:  "JID_4778.chk"
 Charge =  0 Multiplicity = 1

 SCF Done:  E(RB3LYP) =  -597.686157887     A.U. after   14 cycles
 Normal termination of Gaussian 16 at Thu Dec 10 11:07:58 2020.

 ----------------------------------------------------------------------
 # B3LYP/6-311++G(d,p) empiricaldispersion=gd3bj scf=xqc pop=npa geom=c
 heck
 ----------------------------------------------------------------------

 -------------------------------------
 CID_131198093_JID_4778_Energie_kation
 -------------------------------------
 Structure from the checkpoint file:  "JID_4778.chk"
 Charge =  1 Multiplicity = 2

 SCF Done:  E(UB3LYP) =  -597.371094244     A.U. after   26 cycles
 Normal termination of Gaussian 16 at Thu Dec 10 11:19:53 2020.
 Gaussian 16:  ES64L-G16RevA.03 25-Dec-2016

 ----------------------------------------------------------------------
 # B3LYP/6-311++G(d,p) empiricaldispersion=gd3bj scf=xqc pop=npa geom=c
 heck
 ----------------------------------------------------------------------

 ------------------------------------
 CID_131198093_JID_4778_Energie_anion
 ------------------------------------
 Structure from the checkpoint file:  "JID_4778.chk"
 Charge = -1 Multiplicity = 2

                         Standard orientation:
 ---------------------------------------------------------------------
 Center     Atomic      Atomic             Coordinates (Angstroms)
 Number     Number       Type             X           Y           Z
 ---------------------------------------------------------------------
      1          6           0        0.446494    2.602669    0.263090
      2          6           0        0.948329    1.180277    0.208116
      3          6           0        2.226803    0.908040   -0.284968
      4          6           0        2.715531   -0.400773   -0.320908
      5          7           0        1.990418   -1.438860    0.126128
      6          6           0        0.767656   -1.179925    0.597428
      7          6           0        0.181230    0.090052    0.657642
      8          6           0       -1.230029    0.248280    1.188187
      9          6           0       -2.322276    0.060591    0.131123
     10          6           0       -2.250516    0.789685   -1.236281
     11          6           0       -2.891731   -0.467015   -1.881851
     12          6           0       -2.436368   -1.279199   -0.640695
     13          8           0       -1.527063   -0.712699    2.205852
     14          6           0        4.086639   -0.719985   -0.858148
     15          1           0        0.212107    2.902993    1.291778
     16          1           0        1.200508    3.294121   -0.123511
     17          1           0       -0.467825    2.737109   -0.323885
     18          1           0        2.850335    1.724395   -0.639959
     19          1           0        0.206645   -2.034462    0.967993
     20          1           0       -1.337585    1.263941    1.600507
     21          1           0       -3.279514    0.277804    0.619445
     22          1           0       -2.769449    1.748842   -1.335306
     23          1           0       -1.214626    0.907212   -1.569781
     24          1           0       -2.515280   -0.778871   -2.860535
     25          1           0       -3.982149   -0.383048   -1.935490
     26          1           0       -1.454754   -1.733223   -0.804906
     27          1           0       -3.112403   -2.035990   -0.234829
     28          1           0       -0.817861   -0.663817    2.866387
     29          1           0        4.610853    0.179741   -1.193488
     30          1           0        4.692074   -1.213075   -0.089600
     31          1           0        4.011927   -1.416230   -1.700944
 ---------------------------------------------------------------------

 SCF Done:  E(UB3LYP) =  -597.670484145     A.U. after   33 cycles
 SCF Done:  E(UB3LYP) =  -597.673169177     a.u. after    9 cycles

 The electronic state is 2-A.
 Alpha  occ. eigenvalues --  -19.01895 -14.19122 -10.12178 -10.10307 -10.09202
 Alpha  occ. eigenvalues --  -10.08445 -10.07612 -10.07448 -10.07192 -10.07057
 Alpha  occ. eigenvalues --  -10.06773 -10.06555 -10.06498 -10.06198  -0.92208
 Alpha  occ. eigenvalues --   -0.83248  -0.75361  -0.71492  -0.67774  -0.63081
 Alpha  occ. eigenvalues --   -0.60026  -0.58528  -0.56297  -0.52871  -0.50385
 Alpha  occ. eigenvalues --   -0.47765  -0.44435  -0.41825  -0.40098  -0.38493
 Alpha  occ. eigenvalues --   -0.37166  -0.36561  -0.34672  -0.32953  -0.32290
 Alpha  occ. eigenvalues --   -0.31410  -0.30171  -0.29485  -0.29016  -0.28668
 Alpha  occ. eigenvalues --   -0.27118  -0.26577  -0.26215  -0.25343  -0.24359
 Alpha  occ. eigenvalues --   -0.21627  -0.21403  -0.20878  -0.18512  -0.16644
 Alpha  occ. eigenvalues --   -0.14735  -0.13982   0.04613
 Alpha virt. eigenvalues --    0.06612   0.06860   0.07437   0.08003   0.08350
 Alpha virt. eigenvalues --    0.08985   0.09187   0.10070   0.10337   0.10759
 Alpha virt. eigenvalues --    0.11383   0.11921   0.12351   0.12637   0.13632

  Beta  occ. eigenvalues --  -19.01859 -14.19028 -10.12163 -10.10292 -10.09189
  Beta  occ. eigenvalues --  -10.08343 -10.07608 -10.07442 -10.07201 -10.07044
  Beta  occ. eigenvalues --  -10.06770 -10.06541 -10.06484 -10.06164  -0.92126
  Beta  occ. eigenvalues --   -0.83122  -0.75340  -0.71355  -0.67711  -0.63023
  Beta  occ. eigenvalues --   -0.59945  -0.58486  -0.56272  -0.52829  -0.50309
  Beta  occ. eigenvalues --   -0.47668  -0.44391  -0.41748  -0.40045  -0.38460
  Beta  occ. eigenvalues --   -0.37130  -0.36486  -0.34617  -0.32840  -0.32249
  Beta  occ. eigenvalues --   -0.31305  -0.30109  -0.29449  -0.28989  -0.28623
  Beta  occ. eigenvalues --   -0.27040  -0.26528  -0.26043  -0.25319  -0.24323
  Beta  occ. eigenvalues --   -0.21603  -0.21380  -0.20849  -0.18447  -0.16261
  Beta  occ. eigenvalues --   -0.14628  -0.13839
  Beta virt. eigenvalues --    0.06671   0.07235   0.07692   0.07984   0.08480
  Beta virt. eigenvalues --    0.08585   0.09192   0.09612   0.10430   0.10804
  Beta virt. eigenvalues --    0.10898   0.11664   0.12069   0.12479   0.12939

 Mulliken charges and spin densities:
               1          2
     1  C    2.011947  -2.676526
     2  C   -0.617170   1.039352
     3  C   -0.416909   0.237171
     4  C   -0.210045  -0.151699
     5  N   -0.048075   0.109391
     6  C   -1.121726   0.896245
     7  C   -0.141203   0.236950
     8  C    0.671597  -0.847771
     9  C    0.099765   0.106613
    10  C   -0.172808  -0.291649
    11  C   -0.211225  -0.226435
    12  C   -0.241646  -0.152738
    13  O   -0.198216   0.005401
    14  C    1.097014  -1.624286
    15  H   -0.524733   0.718193
    16  H   -0.438680   0.583366
    17  H   -0.106438   0.288366
    18  H   -0.624847   0.803836
    19  H    0.024287   0.159163
    20  H   -0.186157   0.391956
    21  H    0.020373   0.196161
    22  H   -0.150949   0.292419
    23  H    0.304572  -0.180784
    24  H    0.030534   0.109514
    25  H    0.013062   0.110746
    26  H    0.207918  -0.044823
    27  H    0.101536   0.042571
    28  H   -0.068529   0.332737
    29  H   -0.162170   0.300437
    30  H    0.056251   0.091125
    31  H    0.002670   0.144998
 Sum of Mulliken charges =  -1.00000   1.00000

 Dipole moment (field-independent basis, Debye):
    X=             -2.3775    Y=             -4.1209    Z=             -3.1509  Tot=              5.7063
 Quadrupole moment (field-independent basis, Debye-Ang):
   XX=           -140.0625   YY=           -136.2474   ZZ=           -122.1375
   XY=             -2.5835   XZ=              4.7020   YZ=             -3.3363

 Summary of Natural Population Analysis:

                                       Natural Population
                Natural  -----------------------------------------------
    Atom  No    Charge         Core      Valence    Rydberg      Total
 -----------------------------------------------------------------------
      C    1   -0.29997      0.99963     2.29376    0.00659     3.29997
      C    2    0.02558      0.99947     1.96425    0.01070     2.97442
      C    3   -0.12189      0.99945     2.11299    0.00945     3.12189
      C    4    0.10923      0.99954     1.87681    0.01442     2.89077
      N    5   -0.23662      0.99968     2.72579    0.01116     3.73662
      C    6    0.03377      0.99952     1.95217    0.01454     2.96623
      C    7   -0.05959      0.99943     2.04738    0.01278     3.05959
      C    8    0.05740      0.99948     1.92837    0.01475     2.94260
      C    9   -0.10747      0.99958     2.09506    0.01282     3.10747
      C   10   -0.18970      0.99962     2.18224    0.00783     3.18970
      C   11   -0.18824      0.99965     2.18160    0.00698     3.18824
      C   12   -0.18666      0.99962     2.17991    0.00713     3.18666
      O   13   -0.37120      0.99990     3.36547    0.00584     4.37120
      C   14   -0.29572      0.99963     2.29067    0.00542     3.29572
      H   15    0.11349      0.00000     0.38206    0.00446     0.38651
      H   16    0.10490      0.00000     0.39361    0.00149     0.39510
      H   17    0.10447      0.00000     0.39412    0.00140     0.39553
      H   18    0.10210      0.00000     0.39660    0.00130     0.39790
      H   19    0.09477      0.00000     0.40350    0.00173     0.40523
      H   20    0.08835      0.00000     0.40899    0.00266     0.41165
      H   21    0.10041      0.00000     0.39837    0.00122     0.39959
      H   22    0.09639      0.00000     0.40259    0.00103     0.40361
      H   23    0.10125      0.00000     0.39718    0.00157     0.39875
      H   24    0.09313      0.00000     0.40592    0.00095     0.40687
      H   25    0.09233      0.00000     0.40642    0.00125     0.40767
      H   26    0.10103      0.00000     0.39754    0.00143     0.39897
      H   27    0.09643      0.00000     0.40270    0.00087     0.40357
      H   28    0.23269      0.00000     0.26323    0.00408     0.26731
      H   29    0.09947      0.00000     0.39959    0.00094     0.40053
      H   30    0.10491      0.00000     0.39383    0.00126     0.39509
      H   31    0.10499      0.00000     0.39368    0.00133     0.39501
 =======================================================================
   * Total *    0.00000     13.99421    37.83641    0.16938    52.00000

 Normal termination of Gaussian 16 at Thu Dec 10 12:46:33 2020.
