 Gaussian 16, Revision A.03,

 -----------------------------------------------------------
 # opt freq B3LYP/6-31G(d) empiricaldispersion=gd3bj scf=xqc
 -----------------------------------------------------------

 -------------------------------
 CID_106424138_JID_4766_neutraal
 -------------------------------
 Symbolic Z-matrix:
 Charge =  0 Multiplicity = 1

 SCF Done:  E(RB3LYP) =  -659.188226221     A.U. after   14 cycles
 SCF Done:  E(RB3LYP) =  -659.195720863     A.U. after   13 cycles
 SCF Done:  E(RB3LYP) =  -659.196844676     A.U. after   12 cycles
 SCF Done:  E(RB3LYP) =  -659.197610016     A.U. after   12 cycles
 SCF Done:  E(RB3LYP) =  -659.198283567     A.U. after   12 cycles
 SCF Done:  E(RB3LYP) =  -659.198820976     A.U. after   12 cycles
 SCF Done:  E(RB3LYP) =  -659.199390405     A.U. after   13 cycles
 SCF Done:  E(RB3LYP) =  -659.199608101     A.U. after   12 cycles
 SCF Done:  E(RB3LYP) =  -659.199742528     A.U. after   12 cycles
 SCF Done:  E(RB3LYP) =  -659.199797394     A.U. after   12 cycles
 SCF Done:  E(RB3LYP) =  -659.199868701     A.U. after   11 cycles
 SCF Done:  E(RB3LYP) =  -659.199872058     A.U. after   10 cycles
 SCF Done:  E(RB3LYP) =  -659.199873077     A.U. after    9 cycles
 SCF Done:  E(RB3LYP) =  -659.199873762     A.U. after    8 cycles
 SCF Done:  E(RB3LYP) =  -659.199873835     A.U. after    8 cycles
 Optimization completed.
    -- Stationary point found.
 Normal termination of Gaussian 16 at Thu Dec 10 10:09:32 2020.

 --------------------------------------------------------------------
 #N Geom=AllCheck Guess=TCheck SCRF=Check GenChk RB3LYP/6-31G(d) Freq
 --------------------------------------------------------------------

 Structure from the checkpoint file:  "JID_4766.chk"
 -------------------------------
 CID_106424138_JID_4766_neutraal
 -------------------------------
 Charge =  0 Multiplicity = 1

 SCF Done:  E(RB3LYP) =  -659.199873835     A.U. after    1 cycles

  Exact polarizability: 190.869   6.554  99.165   0.402  -0.723  63.027
 Approx polarizability: 259.041   8.621 188.011   1.461  -2.133 106.409

                      1                      2                      3
                      A                      A                      A
 Frequencies --     23.9657                33.8489                56.9534
 Red. masses --      4.3087                 5.5198                 4.9584
 Frc consts  --      0.0015                 0.0037                 0.0095
 IR Inten    --      1.4621                 3.1148                 4.5486

                      4                      5                      6
                      A                      A                      A
 Frequencies --     92.2325               142.4363               189.7370
 Red. masses --      3.9710                 4.6542                 5.6168
 Frc consts  --      0.0199                 0.0556                 0.1191
 IR Inten    --     10.2805                 3.6320                 0.5830

                      7                      8                      9
                      A                      A                      A
 Frequencies --    247.7494               294.1523               321.1863
 Red. masses --      3.6089                 4.3309                 1.1606
 Frc consts  --      0.1305                 0.2208                 0.0705
 IR Inten    --      1.1566                 9.1273                57.8113

                     10                     11                     12
                      A                      A                      A
 Frequencies --    345.0278               380.5778               428.0312
 Red. masses --      3.5614                 3.7262                 6.0894
 Frc consts  --      0.2498                 0.3180                 0.6573
 IR Inten    --      0.2426                12.7475                 3.4449

                     13                     14                     15
                      A                      A                      A
 Frequencies --    473.2545               541.1881               559.1893
 Red. masses --      3.1472                 3.0712                 5.3269
 Frc consts  --      0.4153                 0.5300                 0.9814
 IR Inten    --     69.5457                17.4866                12.4460

                     16                     17                     18
                      A                      A                      A
 Frequencies --    640.1502               646.8167               663.0733
 Red. masses --      7.5426                 3.3465                 7.1357
 Frc consts  --      1.8211                 0.8249                 1.8485
 IR Inten    --      2.6881                10.5154                26.3038

                     19                     20                     21
                      A                      A                      A
 Frequencies --    675.7783               722.0056               749.0099
 Red. masses --      1.6083                 1.8778                 3.3017
 Frc consts  --      0.4328                 0.5767                 1.0913
 IR Inten    --    351.4774               116.4932                 2.8267

                     22                     23                     24
                      A                      A                      A
 Frequencies --    769.2333               819.1359               836.4807
 Red. masses --      5.0482                 1.2122                 1.9759
 Frc consts  --      1.7600                 0.4792                 0.8146
 IR Inten    --      1.1319                26.3978                18.8516

                     25                     26                     27
                      A                      A                      A
 Frequencies --    843.1463               882.3838               907.3133
 Red. masses --      2.3086                 5.5162                 1.3097
 Frc consts  --      0.9670                 2.5305                 0.6352
 IR Inten    --     36.8395                 9.6943                 3.0412

                     28                     29                     30
                      A                      A                      A
 Frequencies --    912.3331               943.1016               961.1469
 Red. masses --      7.6996                 6.4869                 1.2837
 Frc consts  --      3.7760                 3.3994                 0.6987
 IR Inten    --     16.3688                 9.6052                 0.1398

                     31                     32                     33
                      A                      A                      A
 Frequencies --   1022.4187              1026.2401              1045.2396
 Red. masses --      1.9380                 3.9053                 3.3039
 Frc consts  --      1.1936                 2.4233                 2.1267
 IR Inten    --     22.1418                18.8157                 6.9073

                     34                     35                     36
                      A                      A                      A
 Frequencies --   1056.0880              1100.7885              1149.8343
 Red. masses --      1.4714                 1.9521                 2.8202
 Frc consts  --      0.9669                 1.3937                 2.1969
 IR Inten    --      1.8828                 7.1424                11.5235

                     37                     38                     39
                      A                      A                      A
 Frequencies --   1170.6767              1219.1105              1235.9657
 Red. masses --      1.3004                 1.8016                 1.7182
 Frc consts  --      1.0500                 1.5776                 1.5464
 IR Inten    --     18.8877                 0.7978                42.8750

                     40                     41                     42
                      A                      A                      A
 Frequencies --   1247.8789              1276.5753              1311.5680
 Red. masses --      4.2722                 1.5311                 2.5694
 Frc consts  --      3.9196                 1.4701                 2.6042
 IR Inten    --     50.5534                 4.3597                50.4812

                     43                     44                     45
                      A                      A                      A
 Frequencies --   1341.2941              1366.9839              1419.6077
 Red. masses --      1.9654                 2.8747                 2.2801
 Frc consts  --      2.0833                 3.1649                 2.7073
 IR Inten    --    117.6433                24.6717                21.3332

                     46                     47                     48
                      A                      A                      A
 Frequencies --   1441.3935              1478.9416              1529.0654
 Red. masses --      3.6337                 2.4664                 2.0040
 Frc consts  --      4.4480                 3.1785                 2.7606
 IR Inten    --     13.0345                49.2340               193.1249

                     49                     50                     51
                      A                      A                      A
 Frequencies --   1533.1319              1542.6437              1620.2122
 Red. masses --      1.5635                 2.3148                 4.6697
 Frc consts  --      2.1652                 3.2455                 7.2224
 IR Inten    --     49.5306               289.2025                47.4739

                     52                     53                     54
                      A                      A                      A
 Frequencies --   1652.8454              1656.7468              1680.9930
 Red. masses --      6.0761                 2.0350                 1.9739
 Frc consts  --      9.7800                 3.2909                 3.2862
 IR Inten    --     24.3707                75.1894                51.2008

                     55                     56                     57
                      A                      A                      A
 Frequencies --   2992.1696              3063.6242              3196.4648
 Red. masses --      1.0712                 1.0891                 1.0892
 Frc consts  --      5.6504                 6.0228                 6.5568
 IR Inten    --     45.0035                14.2273                16.0435

                     58                     59                     60
                      A                      A                      A
 Frequencies --   3219.4391              3259.8606              3306.0979
 Red. masses --      1.0949                 1.0951                 1.0999
 Frc consts  --      6.6865                 6.8568                 7.0834
 IR Inten    --     11.1627                 5.0461                 0.6577

                     61                     62                     63
                      A                      A                      A
 Frequencies --   3543.1091              3545.0769              3648.8891
 Red. masses --      1.0483                 1.0735                 1.0984
 Frc consts  --      7.7533                 7.9490                 8.6164
 IR Inten    --     23.9017                17.2071                17.3539

 - Thermochemistry -
 -------------------
 Temperature   298.150 Kelvin.  Pressure   1.00000 Atm.
 Atom     1 has atomic number  6 and mass  12.00000

 Molecular mass:   191.08071 amu.
 Principal axes and moments of inertia in atomic units:
                           1         2         3
     Eigenvalues --   546.284077288.035847607.02514
           X            0.99996   0.00857   0.00063
           Y           -0.00856   0.99996  -0.00157
           Z           -0.00064   0.00156   1.00000
 This molecule is an asymmetric top.
 Rotational symmetry number  1.
 Warning -- assumption of classical behavior for rotation
           may cause significant error
 Rotational temperatures (Kelvin)      0.15855     0.01188     0.01139
 Rotational constants (GHZ):           3.30367     0.24763     0.23725
 Zero-point vibrational energy     466553.3 (Joules/Mol)
                                  111.50891 (Kcal/Mol)
 Warning -- explicit consideration of  15 degrees of freedom as
           vibrations may cause significant error
 Vibrational temperatures:     34.48    48.70    81.94   132.70   204.93
          (Kelvin)            272.99   356.46   423.22   462.12   496.42
                              547.57   615.84   680.91   778.65   804.55
                              921.03   930.62   954.01   972.29  1038.80
                             1077.66  1106.76  1178.55  1203.51  1213.10
                             1269.55  1305.42  1312.64  1356.91  1382.88
                             1471.03  1476.53  1503.87  1519.48  1583.79
                             1654.36  1684.34  1754.03  1778.28  1795.42
                             1836.71  1887.05  1929.82  1966.79  2042.50
                             2073.84  2127.87  2199.98  2205.83  2219.52
                             2331.12  2378.08  2383.69  2418.57  4305.06
                             4407.87  4599.00  4632.05  4690.21  4756.74
                             5097.74  5100.57  5249.94

 Zero-point correction=                           0.177701 (Hartree/Particle)
 Thermal correction to Energy=                    0.189600
 Thermal correction to Enthalpy=                  0.190545
 Thermal correction to Gibbs Free Energy=         0.137293
 Sum of electronic and zero-point Energies=           -659.022173
 Sum of electronic and thermal Energies=              -659.010274
 Sum of electronic and thermal Enthalpies=            -659.009329
 Sum of electronic and thermal Free Energies=         -659.062580

                     E (Thermal)             CV                S
                      KCal/Mol        Cal/Mol-Kelvin    Cal/Mol-Kelvin
 Total                  118.976             44.692            112.076
 Electronic               0.000              0.000              0.000
 Translational            0.889              2.981             41.648
 Rotational               0.889              2.981             31.782
 Vibrational            117.199             38.730             38.646
 Vibration     1          0.593              1.985              6.275
 Vibration     2          0.594              1.983              5.590
 Vibration     3          0.596              1.975              4.560
 Vibration     4          0.602              1.955              3.612
 Vibration     5          0.616              1.911              2.771
 Vibration     6          0.633              1.854              2.230
 Vibration     7          0.661              1.767              1.747
 Vibration     8          0.689              1.685              1.450
 Vibration     9          0.707              1.633              1.304
 Vibration    10          0.723              1.585              1.189
 Vibration    11          0.750              1.512              1.037
 Vibration    12          0.790              1.409              0.865
 Vibration    13          0.830              1.309              0.728
 Vibration    14          0.896              1.159              0.563
 Vibration    15          0.915              1.120              0.525

 Optimization completed.
    -- Stationary point found.
 Normal termination of Gaussian 16 at Thu Dec 10 10:15:10 2020.

 ----------------------------------------------------------------------
 # B3LYP/6-311++G(d,p) empiricaldispersion=gd3bj scf=xqc pop=npa geom=c
 heck
 ----------------------------------------------------------------------

 ---------------------------------------
 CID_106424138_JID_4766_Energie_neutraal
 ---------------------------------------
 Structure from the checkpoint file:  "JID_4766.chk"
 Charge =  0 Multiplicity = 1

 SCF Done:  E(RB3LYP) =  -659.385785134     A.U. after   15 cycles
 Normal termination of Gaussian 16 at Thu Dec 10 10:17:01 2020.

 ----------------------------------------------------------------------
 # B3LYP/6-311++G(d,p) empiricaldispersion=gd3bj scf=xqc pop=npa geom=c
 heck
 ----------------------------------------------------------------------

 -------------------------------------
 CID_106424138_JID_4766_Energie_kation
 -------------------------------------
 Structure from the checkpoint file:  "JID_4766.chk"
 Charge =  1 Multiplicity = 2

 SCF Done:  E(UB3LYP) =  -659.096761698     A.U. after   26 cycles
 Normal termination of Gaussian 16 at Thu Dec 10 10:21:20 2020.
 Gaussian 16:  ES64L-G16RevA.03 25-Dec-2016

 ----------------------------------------------------------------------
 # B3LYP/6-311++G(d,p) empiricaldispersion=gd3bj scf=xqc pop=npa geom=c
 heck
 ----------------------------------------------------------------------

 ------------------------------------
 CID_106424138_JID_4766_Energie_anion
 ------------------------------------
 Structure from the checkpoint file:  "JID_4766.chk"
 Charge = -1 Multiplicity = 2

                         Standard orientation:
 ---------------------------------------------------------------------
 Center     Atomic      Atomic             Coordinates (Angstroms)
 Number     Number       Type             X           Y           Z
 ---------------------------------------------------------------------
      1          6           0        3.051482    1.136775   -0.409612
      2          6           0        1.679750    1.055829   -0.431362
      3          6           0        1.092331   -0.159734   -0.018909
      4          7           0        1.830367   -1.198691    0.382764
      5          7           0        3.159992   -1.131556    0.371076
      6          6           0        3.773565   -0.003642    0.001823
      7          7           0        5.159926    0.008331    0.107757
      8          7           0       -0.281469   -0.395332   -0.043930
      9          6           0       -1.220782    0.678325    0.232245
     10          6           0       -2.616730    0.186859    0.024910
     11          6           0       -3.150336   -0.835565   -0.701244
     12          6           0       -4.547538   -0.714391   -0.459454
     13          7           0       -4.837526    0.286995    0.337450
     14          8           0       -3.597902    0.865662    0.653191
     15          1           0        3.568441    2.048785   -0.693570
     16          1           0        1.078060    1.899202   -0.751936
     17          1           0        5.647109    0.530606   -0.609810
     18          1           0        5.536761   -0.924872    0.233017
     19          1           0       -0.490118   -1.257311    0.451695
     20          1           0       -1.131036    1.095327    1.249101
     21          1           0       -1.033458    1.505777   -0.463078
     22          1           0       -2.627274   -1.551030   -1.315778
     23          1           0       -5.354760   -1.326738   -0.841360
 ---------------------------------------------------------------------

 SCF Done:  E(UB3LYP) =  -659.386874295     A.U. after   33 cycles
 SCF Done:  E(UB3LYP) =  -659.386874297     a.u. after    2 cycles

 The electronic state is 2-A.
 Alpha  occ. eigenvalues --  -19.09984 -14.25144 -14.20086 -14.18984 -14.17051
 Alpha  occ. eigenvalues --  -14.16777 -10.13423 -10.11316 -10.10711 -10.09308
 Alpha  occ. eigenvalues --  -10.09305 -10.07514 -10.03553 -10.03052  -1.03779
 Alpha  occ. eigenvalues --   -0.86714  -0.81668  -0.77964  -0.76740  -0.70051
 Alpha  occ. eigenvalues --   -0.65998  -0.64611  -0.58781  -0.52105  -0.51896
 Alpha  occ. eigenvalues --   -0.48462  -0.47586  -0.43226  -0.40053  -0.39200
 Alpha  occ. eigenvalues --   -0.38149  -0.37203  -0.36075  -0.34798  -0.32794
 Alpha  occ. eigenvalues --   -0.31841  -0.30251  -0.28864  -0.28462  -0.27449
 Alpha  occ. eigenvalues --   -0.26787  -0.22230  -0.21026  -0.20467  -0.17572
 Alpha  occ. eigenvalues --   -0.16927  -0.15864  -0.14467  -0.08478  -0.07428
 Alpha  occ. eigenvalues --    0.05002
 Alpha virt. eigenvalues --    0.06874   0.07446   0.07538   0.09168   0.10357
 Alpha virt. eigenvalues --    0.10801   0.11166   0.12408   0.12994   0.13712
 Alpha virt. eigenvalues --    0.13898   0.14244   0.15031   0.15519   0.16732

  Beta  occ. eigenvalues --  -19.09866 -14.24990 -14.20094 -14.18970 -14.16718
  Beta  occ. eigenvalues --  -14.16352 -10.13283 -10.11331 -10.10687 -10.09393
  Beta  occ. eigenvalues --  -10.09377 -10.07538 -10.03347 -10.02762  -1.03566
  Beta  occ. eigenvalues --   -0.86209  -0.81596  -0.77801  -0.76544  -0.69867
  Beta  occ. eigenvalues --   -0.65478  -0.64256  -0.58602  -0.51834  -0.51487
  Beta  occ. eigenvalues --   -0.48294  -0.47445  -0.43114  -0.39938  -0.39010
  Beta  occ. eigenvalues --   -0.37892  -0.36981  -0.35851  -0.34653  -0.32613
  Beta  occ. eigenvalues --   -0.31662  -0.30127  -0.28617  -0.27626  -0.27263
  Beta  occ. eigenvalues --   -0.26605  -0.21967  -0.20811  -0.19986  -0.17131
  Beta  occ. eigenvalues --   -0.15872  -0.14962  -0.13327  -0.07957  -0.06540
  Beta virt. eigenvalues --    0.07345   0.07961   0.08312   0.09157   0.10322
  Beta virt. eigenvalues --    0.10744   0.10905   0.11274   0.12553   0.13044
  Beta virt. eigenvalues --    0.13801   0.13887   0.14344   0.15083   0.15521

 Mulliken charges and spin densities:
               1          2
     1  C   -0.119506   0.636892
     2  C    0.116410  -0.061584
     3  C   -0.290329  -0.107389
     4  N   -0.279932   0.180763
     5  N   -0.185795   0.128779
     6  C    0.005397  -0.528997
     7  N   -0.282378  -0.016137
     8  N    0.079255   0.007542
     9  C   -0.866796  -0.066081
    10  C    0.130350  -0.002285
    11  C    0.065288   0.127137
    12  C   -0.186532   0.001179
    13  N   -0.292270   0.065312
    14  O    0.090067   0.025020
    15  H   -0.028407   0.151473
    16  H    0.082540  -0.011783
    17  H   -0.111156   0.342533
    18  H    0.217763   0.015832
    19  H    0.231554   0.005473
    20  H    0.178611   0.001905
    21  H    0.147574   0.055267
    22  H    0.162568   0.020282
    23  H    0.135723   0.028866
 Sum of Mulliken charges =  -1.00000   1.00000

 Dipole moment (field-independent basis, Debye):
    X=             -4.6187    Y=              0.4819    Z=             -1.3135  Tot=              4.8260
 Quadrupole moment (field-independent basis, Debye-Ang):
   XX=           -164.2718   YY=            -95.0361   ZZ=            -94.9296
   XY=              9.0140   XZ=              4.4549   YZ=              2.4621

 Summary of Natural Population Analysis:

                                       Natural Population
                Natural  -----------------------------------------------
    Atom  No    Charge         Core      Valence    Rydberg      Total
 -----------------------------------------------------------------------
      C    1   -0.07081      0.99952     2.06096    0.01032     3.07081
      C    2   -0.09167      0.99952     2.08315    0.00899     3.09167
      C    3    0.15944      0.99954     1.82801    0.01301     2.84056
      N    4   -0.10151      0.99967     2.58538    0.01646     3.60151
      N    5   -0.11819      0.99967     2.60177    0.01675     3.61819
      C    6    0.14967      0.99956     1.83432    0.01645     2.85033
      N    7   -0.41128      0.99971     2.89985    0.01172     3.91128
      N    8   -0.32596      0.99968     2.81455    0.01173     3.82596
      C    9   -0.10601      0.99958     2.09782    0.00861     3.10601
      C   10    0.19709      0.99950     1.78810    0.01532     2.80291
      C   11   -0.19076      0.99949     2.18296    0.00831     3.19076
      C   12   -0.00934      0.99967     1.99426    0.01541     3.00934
      N   13   -0.06958      0.99971     2.55690    0.01297     3.56958
      O   14   -0.16311      0.99985     3.15292    0.01034     4.16311
      H   15    0.09262      0.00000     0.40620    0.00119     0.40738
      H   16    0.09220      0.00000     0.40642    0.00138     0.40780
      H   17    0.18169      0.00000     0.31566    0.00265     0.31831
      H   18    0.18395      0.00000     0.31308    0.00297     0.31605
      H   19    0.18702      0.00000     0.31054    0.00244     0.31298
      H   20    0.09366      0.00000     0.40460    0.00175     0.40634
      H   21    0.10583      0.00000     0.39272    0.00144     0.39417
      H   22    0.11741      0.00000     0.38144    0.00115     0.38259
      H   23    0.09765      0.00000     0.40119    0.00116     0.40235
 =======================================================================
   * Total *    0.00000     13.99469    35.81281    0.19250    50.00000

 Normal termination of Gaussian 16 at Thu Dec 10 10:32:50 2020.
