 Gaussian 16, Revision A.03,

 -----------------------------------------------------------
 # opt freq B3LYP/6-31G(d) empiricaldispersion=gd3bj scf=xqc
 -----------------------------------------------------------

 ------------------------------
 CID_147619221_JID_258_neutraal
 ------------------------------
 Symbolic Z-matrix:
 Charge =  0 Multiplicity = 1

 SCF Done:  E(RB3LYP) =  -436.377007445     A.U. after   14 cycles
 SCF Done:  E(RB3LYP) =  -436.380838232     A.U. after   13 cycles
 SCF Done:  E(RB3LYP) =  -436.381551186     A.U. after   13 cycles
 SCF Done:  E(RB3LYP) =  -436.381797259     A.U. after   13 cycles
 SCF Done:  E(RB3LYP) =  -436.381877014     A.U. after   13 cycles
 SCF Done:  E(RB3LYP) =  -436.381936526     A.U. after   12 cycles
 SCF Done:  E(RB3LYP) =  -436.382005134     A.U. after   13 cycles
 SCF Done:  E(RB3LYP) =  -436.382035980     A.U. after   12 cycles
 SCF Done:  E(RB3LYP) =  -436.382039880     A.U. after    9 cycles
 SCF Done:  E(RB3LYP) =  -436.382040187     A.U. after    8 cycles
 SCF Done:  E(RB3LYP) =  -436.382040278     A.U. after    8 cycles
 Optimization completed.
    -- Stationary point found.
 Normal termination of Gaussian 16 at Tue Dec  8 10:21:15 2020.

 --------------------------------------------------------------------
 #N Geom=AllCheck Guess=TCheck SCRF=Check GenChk RB3LYP/6-31G(d) Freq
 --------------------------------------------------------------------

 Structure from the checkpoint file:  "JID_258.chk"
 ------------------------------
 CID_147619221_JID_258_neutraal
 ------------------------------
 Charge =  0 Multiplicity = 1

 SCF Done:  E(RB3LYP) =  -436.382040278     A.U. after    1 cycles

  Exact polarizability:  93.889 -16.700  78.018   6.647   1.931  82.555
 Approx polarizability: 134.435 -35.554 120.972  13.263   5.910 153.640

                      1                      2                      3
                      A                      A                      A
 Frequencies --     24.9847                58.8390               100.2348
 Red. masses --      4.5243                 4.1472                 3.3211
 Frc consts  --      0.0017                 0.0085                 0.0197
 IR Inten    --      4.5412                 0.1576                 6.4592

                      4                      5                      6
                      A                      A                      A
 Frequencies --    156.9806               249.7969               366.7977
 Red. masses --      3.1713                 4.1156                 2.2345
 Frc consts  --      0.0460                 0.1513                 0.1771
 IR Inten    --      3.0375                 4.7065                 3.3241

                      7                      8                      9
                      A                      A                      A
 Frequencies --    379.6836               387.8370               479.2080
 Red. masses --      4.1190                 2.4154                 2.2909
 Frc consts  --      0.3498                 0.2141                 0.3100
 IR Inten    --      0.5778                 9.4373                 3.6556

                     10                     11                     12
                      A                      A                      A
 Frequencies --    517.4893               600.3831               646.4328
 Red. masses --      3.4821                 3.5534                 7.8198
 Frc consts  --      0.5494                 0.7547                 1.9253
 IR Inten    --      1.0596                 1.0887                 0.0872

                     13                     14                     15
                      A                      A                      A
 Frequencies --    730.0417               768.5726               805.2161
 Red. masses --      1.2507                 2.9110                 2.4522
 Frc consts  --      0.3927                 1.0131                 0.9368
 IR Inten    --      2.8178                 5.0508                10.3684

                     16                     17                     18
                      A                      A                      A
 Frequencies --    819.0965               865.0720               956.1291
 Red. masses --      2.0913                 2.4159                 1.3481
 Frc consts  --      0.8267                 1.0652                 0.7261
 IR Inten    --     11.2987                 3.0427                 0.1081

                     19                     20                     21
                      A                      A                      A
 Frequencies --    995.8424              1003.3264              1032.5870
 Red. masses --      2.2760                 1.3112                 2.5285
 Frc consts  --      1.3298                 0.7777                 1.5884
 IR Inten    --      0.8570                 0.0196                 6.6150

                     22                     23                     24
                      A                      A                      A
 Frequencies --   1044.5770              1059.9764              1063.3219
 Red. masses --      6.3437                 1.3923                 2.0812
 Frc consts  --      4.0782                 0.9217                 1.3864
 IR Inten    --      1.0926                16.5418                 3.8531

                     25                     26                     27
                      A                      A                      A
 Frequencies --   1078.7689              1129.7324              1179.9423
 Red. masses --      2.6531                 2.0943                 1.7546
 Frc consts  --      1.8191                 1.5749                 1.4393
 IR Inten    --      0.2301                13.4388                 0.5584

                     28                     29                     30
                      A                      A                      A
 Frequencies --   1198.8645              1228.1345              1263.4580
 Red. masses --      1.2387                 2.2311                 1.5733
 Frc consts  --      1.0490                 1.9827                 1.4798
 IR Inten    --      1.1633                 5.2086                 6.8578

                     31                     32                     33
                      A                      A                      A
 Frequencies --   1274.7375              1287.5597              1377.2568
 Red. masses --      1.3650                 1.6861                 1.4771
 Frc consts  --      1.3068                 1.6469                 1.6508
 IR Inten    --      8.5184                 3.2893                 2.7478

                     34                     35                     36
                      A                      A                      A
 Frequencies --   1397.1584              1444.8419              1481.3735
 Red. masses --      1.3212                 2.4419                 2.1163
 Frc consts  --      1.5195                 3.0035                 2.7362
 IR Inten    --     13.2354                11.1849                19.5154

                     37                     38                     39
                      A                      A                      A
 Frequencies --   1498.0934              1515.1484              1532.5829
 Red. masses --      1.1311                 1.1104                 1.1437
 Frc consts  --      1.4957                 1.5019                 1.5827
 IR Inten    --     10.4373                 1.9415                12.5198

                     40                     41                     42
                      A                      A                      A
 Frequencies --   1610.0867              1638.7593              1758.4214
 Red. masses --      5.1629                 5.3708                 6.0743
 Frc consts  --      7.8858                 8.4980                11.0660
 IR Inten    --      1.7509                12.4060                22.2927

                     43                     44                     45
                      A                      A                      A
 Frequencies --   2961.3202              3010.2677              3056.3885
 Red. masses --      1.0708                 1.0666                 1.0678
 Frc consts  --      5.5323                 5.6946                 5.8768
 IR Inten    --     47.7732                51.8584                17.8889

                     46                     47                     48
                      A                      A                      A
 Frequencies --   3081.6218              3137.5604              3162.8234
 Red. masses --      1.0900                 1.0967                 1.1026
 Frc consts  --      6.0986                 6.3607                 6.4983
 IR Inten    --     39.2176                 5.6113                31.1972

                     49                     50                     51
                      A                      A                      A
 Frequencies --   3189.6499              3197.3717              3215.2140
 Red. masses --      1.0872                 1.0915                 1.0983
 Frc consts  --      6.5167                 6.5744                 6.6897
 IR Inten    --      0.3877                21.0775                15.4616

 - Thermochemistry -
 -------------------
 Temperature   298.150 Kelvin.  Pressure   1.00000 Atm.
 Atom     1 has atomic number  6 and mass  12.00000

 Molecular mass:   135.07965 amu.
 Principal axes and moments of inertia in atomic units:
                           1         2         3
     Eigenvalues --   721.977921988.418182047.08143
           X            0.99991  -0.01006   0.00848
           Y            0.01086   0.99485  -0.10073
           Z           -0.00742   0.10081   0.99488
 This molecule is an asymmetric top.
 Rotational symmetry number  1.
 Warning -- assumption of classical behavior for rotation
           may cause significant error
 Rotational temperatures (Kelvin)      0.11997     0.04356     0.04231
 Rotational constants (GHZ):           2.49972     0.90763     0.88162
 Zero-point vibrational energy     406847.3 (Joules/Mol)
                                   97.23885 (Kcal/Mol)
 Warning -- explicit consideration of  11 degrees of freedom as
           vibrations may cause significant error
 Vibrational temperatures:     35.95    84.66   144.22   225.86   359.40
          (Kelvin)            527.74   546.28   558.01   689.47   744.55
                              863.82   930.07  1050.37  1105.80  1158.53
                             1178.50  1244.65  1375.66  1432.80  1443.56
                             1485.66  1502.91  1525.07  1529.88  1552.11
                             1625.43  1697.67  1724.90  1767.01  1817.83
                             1834.06  1852.51  1981.57  2010.20  2078.81
                             2131.37  2155.42  2179.96  2205.04  2316.56
                             2357.81  2529.98  4260.68  4331.10  4397.46
                             4433.77  4514.25  4550.60  4589.19  4600.30
                             4625.98

 Zero-point correction=                           0.154960 (Hartree/Particle)
 Thermal correction to Energy=                    0.163916
 Thermal correction to Enthalpy=                  0.164860
 Thermal correction to Gibbs Free Energy=         0.119270
 Sum of electronic and zero-point Energies=           -436.227080
 Sum of electronic and thermal Energies=              -436.218125
 Sum of electronic and thermal Enthalpies=            -436.217181
 Sum of electronic and thermal Free Energies=         -436.262770

                     E (Thermal)             CV                S
                      KCal/Mol        Cal/Mol-Kelvin    Cal/Mol-Kelvin
 Total                  102.859             32.705             95.952
 Electronic               0.000              0.000              0.000
 Translational            0.889              2.981             40.614
 Rotational               0.889              2.981             29.465
 Vibrational            101.081             26.743             25.873
 Vibration     1          0.593              1.985              6.192
 Vibration     2          0.596              1.974              4.496
 Vibration     3          0.604              1.949              3.450
 Vibration     4          0.621              1.895              2.586
 Vibration     5          0.663              1.763              1.732
 Vibration     6          0.740              1.541              1.093
 Vibration     7          0.750              1.513              1.040
 Vibration     8          0.756              1.496              1.008
 Vibration     9          0.836              1.296              0.712
 Vibration    10          0.872              1.211              0.616
 Vibration    11          0.959              1.031              0.449

 Optimization completed.
    -- Stationary point found.
 Normal termination of Gaussian 16 at Tue Dec  8 10:24:29 2020.

 ----------------------------------------------------------------------
 # B3LYP/6-311++G(d,p) empiricaldispersion=gd3bj scf=xqc pop=npa geom=c
 heck
 ----------------------------------------------------------------------

 --------------------------------------
 CID_147619221_JID_258_Energie_neutraal
 --------------------------------------
 Structure from the checkpoint file:  "JID_258.chk"
 Charge =  0 Multiplicity = 1

 SCF Done:  E(RB3LYP) =  -436.497908712     A.U. after   14 cycles
 Normal termination of Gaussian 16 at Tue Dec  8 10:25:32 2020.

 ----------------------------------------------------------------------
 # B3LYP/6-311++G(d,p) empiricaldispersion=gd3bj scf=xqc pop=npa geom=c
 heck
 ----------------------------------------------------------------------

 ------------------------------------
 CID_147619221_JID_258_Energie_kation
 ------------------------------------
 Structure from the checkpoint file:  "JID_258.chk"
 Charge =  1 Multiplicity = 2

 SCF Done:  E(UB3LYP) =  -436.179297083     A.U. after   24 cycles
 Normal termination of Gaussian 16 at Tue Dec  8 10:28:36 2020.
 Gaussian 16:  ES64L-G16RevA.03 25-Dec-2016

 ----------------------------------------------------------------------
 # B3LYP/6-311++G(d,p) empiricaldispersion=gd3bj scf=xqc pop=npa geom=c
 heck
 ----------------------------------------------------------------------

 -----------------------------------
 CID_147619221_JID_258_Energie_anion
 -----------------------------------
 Structure from the checkpoint file:  "JID_258.chk"
 Charge = -1 Multiplicity = 2

                         Standard orientation:
 ---------------------------------------------------------------------
 Center     Atomic      Atomic             Coordinates (Angstroms)
 Number     Number       Type             X           Y           Z
 ---------------------------------------------------------------------
      1          6           0        2.170665    1.669680   -0.413268
      2          7           0        2.432323    0.665274    0.312541
      3          6           0        2.215987   -0.652855   -0.256975
      4          6           0        1.053174   -1.358251    0.468677
      5          6           0       -0.272690   -0.685366    0.220594
      6          7           0       -0.834122   -0.073948    1.273091
      7          7           0       -1.996493    0.568402    1.136295
      8          6           0       -2.594021    0.600501   -0.055695
      9          6           0       -2.070648   -0.016972   -1.196293
     10          6           0       -0.869245   -0.682620   -1.050667
     11          1           0        2.298908    2.673397   -0.004479
     12          1           0        1.813677    1.598494   -1.453166
     13          1           0        2.015190   -0.617698   -1.343229
     14          1           0        3.128468   -1.241213   -0.105323
     15          1           0        1.013221   -2.400232    0.126549
     16          1           0        1.242156   -1.354676    1.544859
     17          1           0       -3.534647    1.144390   -0.086487
     18          1           0       -2.594347    0.027521   -2.146497
     19          1           0       -0.393910   -1.192789   -1.883961
 ---------------------------------------------------------------------

 SCF Done:  E(UB3LYP) =  -436.496616876     A.U. after   33 cycles
 SCF Done:  E(UB3LYP) =  -436.496616876     a.u. after    1 cycles

 The electronic state is 2-A.
 Alpha  occ. eigenvalues --  -14.18301 -14.17088 -14.16797 -10.07923 -10.07409
 Alpha  occ. eigenvalues --  -10.06405 -10.05741 -10.04229 -10.03562 -10.02802
 Alpha  occ. eigenvalues --   -0.85114  -0.79786  -0.68638  -0.66274  -0.62109
 Alpha  occ. eigenvalues --   -0.53538  -0.50499  -0.47468  -0.44443  -0.37365
 Alpha  occ. eigenvalues --   -0.36508  -0.35402  -0.34087  -0.31982  -0.30355
 Alpha  occ. eigenvalues --   -0.27153  -0.26462  -0.25552  -0.24824  -0.22345
 Alpha  occ. eigenvalues --   -0.18537  -0.15596  -0.15147  -0.13558  -0.13076
 Alpha  occ. eigenvalues --   -0.07678   0.05331
 Alpha virt. eigenvalues --    0.07915   0.08806   0.09300   0.10313   0.10432
 Alpha virt. eigenvalues --    0.11303   0.11870   0.12184   0.12982   0.13702
 Alpha virt. eigenvalues --    0.15226   0.16403   0.17468   0.18085   0.19068

  Beta  occ. eigenvalues --  -14.18206 -14.16815 -14.16358 -10.07844 -10.07412
  Beta  occ. eigenvalues --  -10.06484 -10.05803 -10.04211 -10.03376 -10.02520
  Beta  occ. eigenvalues --   -0.84492  -0.79609  -0.68334  -0.65770  -0.61892
  Beta  occ. eigenvalues --   -0.53404  -0.49826  -0.47275  -0.44292  -0.37234
  Beta  occ. eigenvalues --   -0.36319  -0.35279  -0.33951  -0.31819  -0.30095
  Beta  occ. eigenvalues --   -0.26932  -0.25684  -0.25381  -0.24362  -0.22276
  Beta  occ. eigenvalues --   -0.18043  -0.14797  -0.13701  -0.13238  -0.12259
  Beta  occ. eigenvalues --   -0.07181
  Beta virt. eigenvalues --    0.08231   0.08988   0.09755   0.10474   0.10691
  Beta virt. eigenvalues --    0.11269   0.11791   0.12021   0.12373   0.13048
  Beta virt. eigenvalues --    0.13824   0.15480   0.16415   0.17468   0.18102

 Mulliken charges and spin densities:
               1          2
     1  C   -0.155839   0.017222
     2  N   -0.073719   0.079373
     3  C    0.198446  -0.469139
     4  C   -0.077699  -0.509997
     5  C   -0.227279   0.119247
     6  N    0.037000   0.115716
     7  N   -0.173719   0.176375
     8  C   -0.322575   0.044840
     9  C   -0.009779  -0.188768
    10  C    0.065883   0.268726
    11  H    0.098451   0.033949
    12  H    0.001581   0.048011
    13  H   -0.139833   0.194180
    14  H   -0.081475   0.249488
    15  H   -0.240388   0.367110
    16  H    0.200598  -0.022319
    17  H    0.110468   0.025121
    18  H    0.056810   0.051755
    19  H   -0.266933   0.399111
 Sum of Mulliken charges =  -1.00000   1.00000

 Dipole moment (field-independent basis, Debye):
    X=             -0.1476    Y=              0.9456    Z=             -2.0969  Tot=              2.3050
 Quadrupole moment (field-independent basis, Debye-Ang):
   XX=            -90.8779   YY=            -78.7550   ZZ=            -83.2636
   XY=              1.5679   XZ=              5.6709   YZ=             -6.2208

 Summary of Natural Population Analysis:

                                       Natural Population
                Natural  -----------------------------------------------
    Atom  No    Charge         Core      Valence    Rydberg      Total
 -----------------------------------------------------------------------
      C    1   -0.00987      0.99965     1.99841    0.01181     3.00987
      N    2   -0.20728      0.99970     2.69541    0.01217     3.70728
      C    3   -0.09905      0.99960     2.08540    0.01405     3.09905
      C    4   -0.20501      0.99958     2.19365    0.01177     3.20501
      C    5    0.07467      0.99954     1.90884    0.01695     2.92533
      N    6   -0.10647      0.99968     2.58962    0.01718     3.60647
      N    7   -0.07681      0.99973     2.56199    0.01509     3.57681
      C    8   -0.01574      0.99961     2.00154    0.01459     3.01574
      C    9   -0.08236      0.99956     2.07212    0.01069     3.08236
      C   10   -0.06557      0.99950     2.05596    0.01011     3.06557
      H   11    0.07480      0.00000     0.42407    0.00112     0.42520
      H   12    0.06439      0.00000     0.43391    0.00170     0.43561
      H   13    0.07892      0.00000     0.41859    0.00249     0.42108
      H   14    0.09364      0.00000     0.40488    0.00148     0.40636
      H   15    0.10135      0.00000     0.39718    0.00147     0.39865
      H   16    0.10945      0.00000     0.38885    0.00170     0.39055
      H   17    0.08328      0.00000     0.41533    0.00139     0.41672
      H   18    0.09258      0.00000     0.40650    0.00092     0.40742
      H   19    0.09508      0.00000     0.40343    0.00149     0.40492
 =======================================================================
   * Total *   -0.00000      9.99614    25.85567    0.14819    36.00000

 Normal termination of Gaussian 16 at Tue Dec  8 10:33:49 2020.
