 Gaussian 16, Revision A.03,

 -----------------------------------------------------------
 # opt freq B3LYP/6-31G(d) empiricaldispersion=gd3bj scf=xqc
 -----------------------------------------------------------

 -------------------------------
 CID_146736990_JID_1469_neutraal
 -------------------------------
 Symbolic Z-matrix:
 Charge =  0 Multiplicity = 1

 SCF Done:  E(RB3LYP) =  -481.926957644     A.U. after   16 cycles
 SCF Done:  E(RB3LYP) =  -481.930374199     A.U. after   15 cycles
 SCF Done:  E(RB3LYP) =  -481.931435494     A.U. after   15 cycles
 SCF Done:  E(RB3LYP) =  -481.932392392     A.U. after   17 cycles
 SCF Done:  E(RB3LYP) =  -481.932951924     A.U. after   13 cycles
 SCF Done:  E(RB3LYP) =  -481.933250626     A.U. after   14 cycles
 SCF Done:  E(RB3LYP) =  -481.933607055     A.U. after   15 cycles
 SCF Done:  E(RB3LYP) =  -481.933799299     A.U. after   15 cycles
 SCF Done:  E(RB3LYP) =  -481.933855378     A.U. after   13 cycles
 SCF Done:  E(RB3LYP) =  -481.933882951     A.U. after   12 cycles
 SCF Done:  E(RB3LYP) =  -481.933895508     A.U. after   12 cycles
 SCF Done:  E(RB3LYP) =  -481.933900207     A.U. after   12 cycles
 SCF Done:  E(RB3LYP) =  -481.933902145     A.U. after   12 cycles
 SCF Done:  E(RB3LYP) =  -481.933902480     A.U. after   10 cycles
 SCF Done:  E(RB3LYP) =  -481.933902569     A.U. after    8 cycles
 Optimization completed.
    -- Stationary point found.
 Normal termination of Gaussian 16 at Tue Dec  8 20:19:29 2020.

 --------------------------------------------------------------------
 #N Geom=AllCheck Guess=TCheck SCRF=Check GenChk RB3LYP/6-31G(d) Freq
 --------------------------------------------------------------------

 Structure from the checkpoint file:  "JID_1469.chk"
 -------------------------------
 CID_146736990_JID_1469_neutraal
 -------------------------------
 Charge =  0 Multiplicity = 1

 SCF Done:  E(RB3LYP) =  -481.933902569     A.U. after    1 cycles

  Exact polarizability: 114.637  -2.187  93.571  -0.152   0.426  83.963
 Approx polarizability: 157.716  -5.939 135.686  -1.045  -0.888 130.961

                      1                      2                      3
                      A                      A                      A
 Frequencies --     42.8839                55.4815               146.0395
 Red. masses --      4.1808                 4.0071                 2.2321
 Frc consts  --      0.0045                 0.0073                 0.0280
 IR Inten    --      0.4761                 0.1782                 0.4339

                      4                      5                      6
                      A                      A                      A
 Frequencies --    246.3412               256.9125               294.1399
 Red. masses --      2.0775                 1.2751                 2.6942
 Frc consts  --      0.0743                 0.0496                 0.1373
 IR Inten    --      0.5702                 0.3283                 1.6328

                      7                      8                      9
                      A                      A                      A
 Frequencies --    318.6060               346.9784               361.5575
 Red. masses --      2.9434                 3.4376                 3.0334
 Frc consts  --      0.1760                 0.2438                 0.2336
 IR Inten    --      1.0979                 1.5532                 0.4960

                     10                     11                     12
                      A                      A                      A
 Frequencies --    409.9587               443.3512               483.3895
 Red. masses --      2.6457                 2.2327                 2.4105
 Frc consts  --      0.2620                 0.2586                 0.3319
 IR Inten    --      1.7661                 0.0139                 0.5877

                     13                     14                     15
                      A                      A                      A
 Frequencies --    525.1138               533.0713               680.3651
 Red. masses --      3.8408                 2.9173                 4.1646
 Frc consts  --      0.6240                 0.4884                 1.1358
 IR Inten    --      1.0091                 0.8983                 2.8382

                     16                     17                     18
                      A                      A                      A
 Frequencies --    715.7659               771.7481               816.2738
 Red. masses --      2.9928                 3.0595                 2.2625
 Frc consts  --      0.9034                 1.0736                 0.8882
 IR Inten    --      5.3419                 0.1218                 5.7189

                     19                     20                     21
                      A                      A                      A
 Frequencies --    816.4962               828.0833               904.5428
 Red. masses --      1.5097                 2.2602                 2.2300
 Frc consts  --      0.5930                 0.9131                 1.0750
 IR Inten    --      0.3574                25.4107                 2.3961

                     22                     23                     24
                      A                      A                      A
 Frequencies --    924.9335               931.1041               947.7036
 Red. masses --      2.2990                 2.1399                 1.9520
 Frc consts  --      1.1588                 1.0931                 1.0330
 IR Inten    --      7.7977                 1.2711                 2.1736

                     25                     26                     27
                      A                      A                      A
 Frequencies --    971.0409              1004.3131              1024.6664
 Red. masses --      1.5394                 2.1272                 2.2199
 Frc consts  --      0.8552                 1.2641                 1.3733
 IR Inten    --      2.6640                 1.4502                12.0731

                     28                     29                     30
                      A                      A                      A
 Frequencies --   1035.2530              1048.1013              1080.6693
 Red. masses --      2.3827                 2.0346                 1.6283
 Frc consts  --      1.5045                 1.3168                 1.1204
 IR Inten    --      0.7324                 0.8453                 0.3294

                     31                     32                     33
                      A                      A                      A
 Frequencies --   1089.8783              1099.3235              1134.5735
 Red. masses --      1.5694                 2.4435                 1.4686
 Frc consts  --      1.0984                 1.7398                 1.1138
 IR Inten    --      1.6082                 1.3539                 2.7894

                     34                     35                     36
                      A                      A                      A
 Frequencies --   1180.2935              1210.5241              1226.1876
 Red. masses --      1.8403                 1.3417                 1.8567
 Frc consts  --      1.5105                 1.1584                 1.6448
 IR Inten    --      1.9910                 0.4997                 4.9577

                     37                     38                     39
                      A                      A                      A
 Frequencies --   1246.8558              1282.7867              1288.0879
 Red. masses --      1.4293                 1.5097                 1.3955
 Frc consts  --      1.3092                 1.4637                 1.3642
 IR Inten    --      3.0707                 1.7278                 1.6491

                     40                     41                     42
                      A                      A                      A
 Frequencies --   1297.1165              1304.4348              1333.8730
 Red. masses --      1.4746                 1.3695                 1.4381
 Frc consts  --      1.4618                 1.3730                 1.5076
 IR Inten    --      0.9347                 0.5456                 0.9507

                     43                     44                     45
                      A                      A                      A
 Frequencies --   1346.3558              1354.7792              1363.9941
 Red. masses --      1.3668                 1.3653                 1.4517
 Frc consts  --      1.4597                 1.4765                 1.5913
 IR Inten    --      1.3751                 4.0760                 1.0640

                     46                     47                     48
                      A                      A                      A
 Frequencies --   1384.2353              1393.5365              1416.9318
 Red. masses --      1.4015                 1.3156                 1.5158
 Frc consts  --      1.5822                 1.5052                 1.7930
 IR Inten    --      3.9062                 0.8384                 0.1350

                     49                     50                     51
                      A                      A                      A
 Frequencies --   1439.6854              1511.7659              1517.1781
 Red. masses --      1.2316                 1.0777                 1.0878
 Frc consts  --      1.5040                 1.4512                 1.4753
 IR Inten    --      2.8789                 0.5484                 3.6976

                     52                     53                     54
                      A                      A                      A
 Frequencies --   1526.4976              1528.0481              1529.3575
 Red. masses --      1.0712                 1.0517                 1.0612
 Frc consts  --      1.4706                 1.4468                 1.4623
 IR Inten    --      6.6438                 2.0472                 1.3801

                     55                     56                     57
                      A                      A                      A
 Frequencies --   1538.6748              1554.0911              1669.7905
 Red. masses --      1.0845                 1.0942                13.5448
 Frc consts  --      1.5128                 1.5570                22.2508
 IR Inten    --     13.2926                 6.2055               127.6726

                     58                     59                     60
                      A                      A                      A
 Frequencies --   3018.5781              3036.8933              3043.9187
 Red. masses --      1.0836                 1.0386                 1.0615
 Frc consts  --      5.8176                 5.6435                 5.7945
 IR Inten    --     12.4342                13.7863                33.9969

                     61                     62                     63
                      A                      A                      A
 Frequencies --   3050.8417              3056.3093              3064.6801
 Red. masses --      1.0618                 1.0692                 1.0694
 Frc consts  --      5.8228                 5.8842                 5.9181
 IR Inten    --     22.8352                23.4834                26.0849

                     64                     65                     66
                      A                      A                      A
 Frequencies --   3075.0052              3080.2166              3082.8254
 Red. masses --      1.0743                 1.0934                 1.0719
 Frc consts  --      5.9849                 6.1124                 6.0023
 IR Inten    --     62.4984                 6.9329                15.6253

                     67                     68                     69
                      A                      A                      A
 Frequencies --   3096.5651              3100.8148              3104.3630
 Red. masses --      1.1025                 1.1013                 1.1006
 Frc consts  --      6.2286                 6.2389                 6.2492
 IR Inten    --     18.7332                 4.8635                83.4212

                     70                     71                     72
                      A                      A                      A
 Frequencies --   3110.9806              3129.5583              3131.9176
 Red. masses --      1.1025                 1.1034                 1.0999
 Frc consts  --      6.2867                 6.3675                 6.3565
 IR Inten    --     34.8324                22.3440                27.0043

 - Thermochemistry -
 -------------------
 Temperature   298.150 Kelvin.  Pressure   1.00000 Atm.
 Atom     1 has atomic number  6 and mass  12.00000

 Molecular mass:   153.11536 amu.
 Principal axes and moments of inertia in atomic units:
                           1         2         3
     Eigenvalues --   828.099482144.875622475.54975
           X            0.99982  -0.01524   0.01138
           Y            0.01517   0.99987   0.00594
           Z           -0.01147  -0.00577   0.99992
 This molecule is an asymmetric top.
 Rotational symmetry number  1.
 Warning -- assumption of classical behavior for rotation
           may cause significant error
 Rotational temperatures (Kelvin)      0.10459     0.04038     0.03499
 Rotational constants (GHZ):           2.17938     0.84142     0.72903
 Zero-point vibrational energy     609600.3 (Joules/Mol)
                                  145.69797 (Kcal/Mol)
 Warning -- explicit consideration of  14 degrees of freedom as
           vibrations may cause significant error
 Vibrational temperatures:     61.70    79.83   210.12   354.43   369.64
          (Kelvin)            423.20   458.40   499.22   520.20   589.84
                              637.88   695.49   755.52   766.97   978.89
                             1029.83  1110.37  1174.44  1174.76  1191.43
                             1301.44  1330.77  1339.65  1363.53  1397.11
                             1444.98  1474.27  1489.50  1507.98  1554.84
                             1568.09  1581.68  1632.40  1698.18  1741.67
                             1764.21  1793.95  1845.64  1853.27  1866.26
                             1876.79  1919.15  1937.11  1949.23  1962.48
                             1991.61  2004.99  2038.65  2071.39  2175.09
                             2182.88  2196.29  2198.52  2200.40  2213.81
                             2235.99  2402.46  4343.06  4369.41  4379.52
                             4389.48  4397.35  4409.39  4424.25  4431.74
                             4435.50  4455.27  4461.38  4466.49  4476.01
                             4502.74  4506.13

 Zero-point correction=                           0.232184 (Hartree/Particle)
 Thermal correction to Energy=                    0.242269
 Thermal correction to Enthalpy=                  0.243213
 Thermal correction to Gibbs Free Energy=         0.196387
 Sum of electronic and zero-point Energies=           -481.701718
 Sum of electronic and thermal Energies=              -481.691634
 Sum of electronic and thermal Enthalpies=            -481.690690
 Sum of electronic and thermal Free Energies=         -481.737516

                     E (Thermal)             CV                S
                      KCal/Mol        Cal/Mol-Kelvin    Cal/Mol-Kelvin
 Total                  152.026             40.095             98.554
 Electronic               0.000              0.000              0.000
 Translational            0.889              2.981             40.988
 Rotational               0.889              2.981             29.865
 Vibrational            150.249             34.133             27.701
 Vibration     1          0.595              1.980              5.121
 Vibration     2          0.596              1.975              4.612
 Vibration     3          0.617              1.907              2.723
 Vibration     4          0.661              1.769              1.757
 Vibration     5          0.666              1.751              1.683
 Vibration     6          0.689              1.685              1.450
 Vibration     7          0.705              1.638              1.317
 Vibration     8          0.725              1.581              1.180
 Vibration     9          0.736              1.551              1.115
 Vibration    10          0.774              1.449              0.927
 Vibration    11          0.803              1.376              0.816
 Vibration    12          0.840              1.287              0.701
 Vibration    13          0.880              1.194              0.598
 Vibration    14          0.888              1.177              0.580

 Optimization completed.
    -- Stationary point found.
 Normal termination of Gaussian 16 at Tue Dec  8 20:26:00 2020.

 ----------------------------------------------------------------------
 # B3LYP/6-311++G(d,p) empiricaldispersion=gd3bj scf=xqc pop=npa geom=c
 heck
 ----------------------------------------------------------------------

 ---------------------------------------
 CID_146736990_JID_1469_Energie_neutraal
 ---------------------------------------
 Structure from the checkpoint file:  "JID_1469.chk"
 Charge =  0 Multiplicity = 1

 SCF Done:  E(RB3LYP) =  -482.066071134     A.U. after   15 cycles
 Normal termination of Gaussian 16 at Tue Dec  8 20:30:59 2020.

 ----------------------------------------------------------------------
 # B3LYP/6-311++G(d,p) empiricaldispersion=gd3bj scf=xqc pop=npa geom=c
 heck
 ----------------------------------------------------------------------

 -------------------------------------
 CID_146736990_JID_1469_Energie_kation
 -------------------------------------
 Structure from the checkpoint file:  "JID_1469.chk"
 Charge =  1 Multiplicity = 2

 SCF Done:  E(UB3LYP) =  -481.751460831     A.U. after   23 cycles
 Normal termination of Gaussian 16 at Tue Dec  8 20:38:44 2020.
 Gaussian 16:  ES64L-G16RevA.03 25-Dec-2016

 ----------------------------------------------------------------------
 # B3LYP/6-311++G(d,p) empiricaldispersion=gd3bj scf=xqc pop=npa geom=c
 heck
 ----------------------------------------------------------------------

 ------------------------------------
 CID_146736990_JID_1469_Energie_anion
 ------------------------------------
 Structure from the checkpoint file:  "JID_1469.chk"
 Charge = -1 Multiplicity = 2

                         Standard orientation:
 ---------------------------------------------------------------------
 Center     Atomic      Atomic             Coordinates (Angstroms)
 Number     Number       Type             X           Y           Z
 ---------------------------------------------------------------------
      1          6           0        3.259295   -0.103669    0.341389
      2          6           0        1.859518   -0.041658   -0.276902
      3          6           0        1.232790   -1.448761   -0.331104
      4          6           0       -0.269131   -1.444327   -0.670349
      5          6           0       -1.011050   -0.248450   -0.023576
      6          6           0       -1.067363    1.005474   -0.918608
      7          6           0        0.146375    1.870837   -0.481898
      8          6           0        0.941512    0.968538    0.486615
      9          6           0       -0.201504    0.233871    1.210642
     10          7           0       -2.320904   -0.775073    0.482932
     11          8           0       -3.286258   -0.080784    0.255201
     12          1           0        3.205998   -0.425760    1.389297
     13          1           0        3.747508    0.877417    0.318102
     14          1           0        3.901523   -0.813588   -0.193015
     15          1           0        1.964439    0.319391   -1.309692
     16          1           0        1.775544   -2.069261   -1.053417
     17          1           0        1.377498   -1.929892    0.644523
     18          1           0       -0.727485   -2.375977   -0.316952
     19          1           0       -0.421929   -1.406544   -1.754817
     20          1           0       -2.016386    1.522403   -0.754265
     21          1           0       -1.028036    0.731057   -1.976832
     22          1           0       -0.197907    2.768547    0.044101
     23          1           0        0.754691    2.206414   -1.327825
     24          1           0        1.546304    1.561067    1.182310
     25          1           0        0.112802   -0.580730    1.867430
     26          1           0       -0.800831    0.936110    1.801668
 ---------------------------------------------------------------------

 SCF Done:  E(UB3LYP) =  -482.075029583     A.U. after   33 cycles
 SCF Done:  E(UB3LYP) =  -482.075029583     a.u. after    1 cycles

 The electronic state is 2-A.
 Alpha  occ. eigenvalues --  -18.89622 -14.12762 -10.05517 -10.05368 -10.04047
 Alpha  occ. eigenvalues --  -10.03810 -10.03279 -10.02148 -10.01620 -10.01554
 Alpha  occ. eigenvalues --  -10.00881  -0.89538  -0.72579  -0.65768  -0.62587
 Alpha  occ. eigenvalues --   -0.56952  -0.56542  -0.48992  -0.48463  -0.45805
 Alpha  occ. eigenvalues --   -0.40489  -0.37222  -0.35720  -0.32448  -0.31725
 Alpha  occ. eigenvalues --   -0.30343  -0.29526  -0.28404  -0.27083  -0.24551
 Alpha  occ. eigenvalues --   -0.24259  -0.23633  -0.22637  -0.21231  -0.19952
 Alpha  occ. eigenvalues --   -0.19124  -0.18529  -0.17871  -0.17326  -0.15496
 Alpha  occ. eigenvalues --   -0.14484   0.01347   0.06477
 Alpha virt. eigenvalues --    0.07602   0.09305   0.09596   0.10464   0.11638
 Alpha virt. eigenvalues --    0.12021   0.12506   0.12863   0.13649   0.14806
 Alpha virt. eigenvalues --    0.15134   0.15333   0.15921   0.16053   0.16861

  Beta  occ. eigenvalues --  -18.88516 -14.11510 -10.05515 -10.05369 -10.04032
  Beta  occ. eigenvalues --  -10.03799 -10.03276 -10.02200 -10.01577 -10.01487
  Beta  occ. eigenvalues --  -10.00877  -0.87355  -0.72501  -0.65704  -0.62445
  Beta  occ. eigenvalues --   -0.56706  -0.56421  -0.48929  -0.47997  -0.44642
  Beta  occ. eigenvalues --   -0.40184  -0.37096  -0.35684  -0.32161  -0.31348
  Beta  occ. eigenvalues --   -0.29876  -0.29466  -0.28361  -0.26779  -0.24401
  Beta  occ. eigenvalues --   -0.23537  -0.23175  -0.22279  -0.20044  -0.19503
  Beta  occ. eigenvalues --   -0.18370  -0.17692  -0.17567  -0.16895  -0.13888
  Beta  occ. eigenvalues --   -0.12523   0.02723
  Beta virt. eigenvalues --    0.07540   0.09228   0.09496   0.10415   0.11606
  Beta virt. eigenvalues --    0.11945   0.12429   0.12727   0.13591   0.14720
  Beta virt. eigenvalues --    0.15042   0.15271   0.15861   0.15946   0.16781

 Mulliken charges and spin densities:
               1          2
     1  C   -0.620444  -0.028776
     2  C    0.227944   0.030149
     3  C   -0.487859   0.004583
     4  C   -0.464672   0.108526
     5  C    0.433357  -0.244379
     6  C   -0.518692   0.109172
     7  C   -0.336974  -0.184431
     8  C    0.172286   0.049607
     9  C   -0.304669   0.090524
    10  N   -0.299718   0.628312
    11  O   -0.281490   0.350904
    12  H    0.124611   0.017405
    13  H    0.105505  -0.003866
    14  H    0.093574   0.011141
    15  H    0.141337   0.001523
    16  H    0.101400  -0.000141
    17  H    0.129600   0.000359
    18  H    0.048658  -0.026528
    19  H    0.092609   0.021340
    20  H    0.143001  -0.007418
    21  H    0.070640   0.003990
    22  H    0.018936   0.021841
    23  H    0.070546   0.039884
    24  H    0.148764  -0.003814
    25  H    0.033362   0.024715
    26  H    0.158389  -0.014625
 Sum of Mulliken charges =  -1.00000   1.00000

 Dipole moment (field-independent basis, Debye):
    X=              9.3466    Y=              1.5324    Z=             -1.6254  Tot=              9.6098
 Quadrupole moment (field-independent basis, Debye-Ang):
   XX=           -116.1725   YY=            -83.9950   ZZ=            -77.9825
   XY=             -4.8357   XZ=              3.9546   YZ=              2.1211

 Summary of Natural Population Analysis:

                                       Natural Population
                Natural  -----------------------------------------------
    Atom  No    Charge         Core      Valence    Rydberg      Total
 -----------------------------------------------------------------------
      C    1   -0.27949      0.99966     2.27521    0.00462     3.27949
      C    2   -0.11102      0.99959     2.10110    0.01032     3.11102
      C    3   -0.19022      0.99962     2.18068    0.00993     3.19022
      C    4   -0.18772      0.99958     2.17535    0.01279     3.18772
      C    5   -0.00183      0.99955     1.97485    0.02742     3.00183
      C    6   -0.20496      0.99958     2.19623    0.00914     3.20496
      C    7   -0.18852      0.99963     2.18066    0.00823     3.18852
      C    8   -0.10927      0.99959     2.09579    0.01389     3.10927
      C    9   -0.18621      0.99958     2.17385    0.01278     3.18621
      N   10    0.16386      0.99975     2.30387    0.03253     3.33614
      O   11   -0.09812      0.99990     3.08592    0.01230     4.09812
      H   12    0.09475      0.00000     0.40414    0.00111     0.40525
      H   13    0.09392      0.00000     0.40528    0.00080     0.40608
      H   14    0.09269      0.00000     0.40618    0.00113     0.40731
      H   15    0.08675      0.00000     0.41109    0.00216     0.41325
      H   16    0.09148      0.00000     0.40722    0.00130     0.40852
      H   17    0.08961      0.00000     0.40787    0.00253     0.41039
      H   18    0.09897      0.00000     0.39390    0.00713     0.40103
      H   19    0.08804      0.00000     0.41058    0.00139     0.41196
      H   20    0.11096      0.00000     0.38504    0.00400     0.38904
      H   21    0.09023      0.00000     0.40836    0.00141     0.40977
      H   22    0.08760      0.00000     0.40759    0.00480     0.41240
      H   23    0.08791      0.00000     0.41057    0.00152     0.41209
      H   24    0.08721      0.00000     0.41035    0.00244     0.41279
      H   25    0.09521      0.00000     0.40040    0.00438     0.40479
      H   26    0.09814      0.00000     0.39866    0.00320     0.40186
 =======================================================================
   * Total *   -0.00000     10.99602    30.81073    0.19325    42.00000

 Normal termination of Gaussian 16 at Tue Dec  8 20:49:01 2020.
