 Gaussian 16, Revision A.03,

 -----------------------------------------------------------
 # opt freq B3LYP/6-31G(d) empiricaldispersion=gd3bj scf=xqc
 -----------------------------------------------------------

 -------------------------------
 CID_106518704_JID_3473_neutraal
 -------------------------------
 Symbolic Z-matrix:
 Charge =  0 Multiplicity = 1

 SCF Done:  E(RB3LYP) =  -1237.64304631     A.U. after   15 cycles
 SCF Done:  E(RB3LYP) =  -1237.65302810     A.U. after   13 cycles
 SCF Done:  E(RB3LYP) =  -1237.65370107     A.U. after   12 cycles
 SCF Done:  E(RB3LYP) =  -1237.65359255     A.U. after   12 cycles
 SCF Done:  E(RB3LYP) =  -1237.65385940     A.U. after   12 cycles
 SCF Done:  E(RB3LYP) =  -1237.65390508     A.U. after   11 cycles
 SCF Done:  E(RB3LYP) =  -1237.65391781     A.U. after   11 cycles
 SCF Done:  E(RB3LYP) =  -1237.65392103     A.U. after    9 cycles
 SCF Done:  E(RB3LYP) =  -1237.65392136     A.U. after    8 cycles
 SCF Done:  E(RB3LYP) =  -1237.65392148     A.U. after    7 cycles
 SCF Done:  E(RB3LYP) =  -1237.65392157     A.U. after    7 cycles
 SCF Done:  E(RB3LYP) =  -1237.65392163     A.U. after    7 cycles
 SCF Done:  E(RB3LYP) =  -1237.65392167     A.U. after    7 cycles
 SCF Done:  E(RB3LYP) =  -1237.65392170     A.U. after    7 cycles
 SCF Done:  E(RB3LYP) =  -1237.65392172     A.U. after    7 cycles
 Optimization completed.
    -- Stationary point found.
 Normal termination of Gaussian 16 at Wed Dec  9 23:22:59 2020.

 --------------------------------------------------------------------
 #N Geom=AllCheck Guess=TCheck SCRF=Check GenChk RB3LYP/6-31G(d) Freq
 --------------------------------------------------------------------

 Structure from the checkpoint file:  "JID_3473.chk"
 -------------------------------
 CID_106518704_JID_3473_neutraal
 -------------------------------
 Charge =  0 Multiplicity = 1

 SCF Done:  E(RB3LYP) =  -1237.65392172     A.U. after    1 cycles

  Exact polarizability: 270.741  22.360 150.884  -5.834   1.616  66.802
 Approx polarizability: 423.975  80.289 295.651 -17.341   3.011 109.738

                      1                      2                      3
                      A                      A                      A
 Frequencies --     42.3262                73.3984                87.9607
 Red. masses --      5.4168                 4.7570                 5.3471
 Frc consts  --      0.0057                 0.0151                 0.0244
 IR Inten    --      2.5210                 1.4525                 2.2747

                      4                      5                      6
                      A                      A                      A
 Frequencies --    104.9240               145.9984               181.6705
 Red. masses --      1.1013                 4.9120                 4.3987
 Frc consts  --      0.0071                 0.0617                 0.0855
 IR Inten    --      0.4616                 0.2967                 2.3643

                      7                      8                      9
                      A                      A                      A
 Frequencies --    220.9358               287.6686               308.8534
 Red. masses --      6.6274                 4.4564                 4.8867
 Frc consts  --      0.1906                 0.2173                 0.2746
 IR Inten    --      1.3872                 1.0800                 2.2791

                     10                     11                     12
                      A                      A                      A
 Frequencies --    340.8360               409.5184               420.7371
 Red. masses --      4.6871                 5.4171                 3.1379
 Frc consts  --      0.3208                 0.5353                 0.3273
 IR Inten    --      2.3904                 5.7929                18.5557

                     13                     14                     15
                      A                      A                      A
 Frequencies --    443.7698               502.7363               533.3710
 Red. masses --      8.6876                 5.4857                 1.2291
 Frc consts  --      1.0080                 0.8169                 0.2060
 IR Inten    --      3.7958                 3.8116                75.4172

                     16                     17                     18
                      A                      A                      A
 Frequencies --    565.6059               584.5998               624.8931
 Red. masses --      3.6360                 4.6480                 4.8659
 Frc consts  --      0.6853                 0.9359                 1.1195
 IR Inten    --      1.6591                 0.7327                15.9729

                     19                     20                     21
                      A                      A                      A
 Frequencies --    674.1950               698.6383               708.2668
 Red. masses --      5.7095                 7.0810                 3.5222
 Frc consts  --      1.5290                 2.0363                 1.0410
 IR Inten    --      1.2296                 1.4324                 2.2379

                     22                     23                     24
                      A                      A                      A
 Frequencies --    740.2900               794.3986               817.2747
 Red. masses --      6.8729                 6.3104                 1.4027
 Frc consts  --      2.2192                 2.3463                 0.5520
 IR Inten    --      6.1236                24.0020                19.9020

                     25                     26                     27
                      A                      A                      A
 Frequencies --    821.6572               900.2362               905.6310
 Red. masses --      1.2636                 1.3616                 1.4293
 Frc consts  --      0.5026                 0.6501                 0.6907
 IR Inten    --     29.3382                 5.9314                 8.5876

                     28                     29                     30
                      A                      A                      A
 Frequencies --    962.8609               991.4734              1003.1115
 Red. masses --      1.2685                 1.9624                 5.7326
 Frc consts  --      0.6929                 1.1366                 3.3986
 IR Inten    --      0.6892                 2.6311                84.8775

                     31                     32                     33
                      A                      A                      A
 Frequencies --   1030.6958              1071.5912              1085.9646
 Red. masses --      2.3793                 1.4020                 1.4127
 Frc consts  --      1.4892                 0.9485                 0.9816
 IR Inten    --      1.1896                 1.4431                11.1555

                     34                     35                     36
                      A                      A                      A
 Frequencies --   1114.7648              1141.1031              1186.4091
 Red. masses --      1.7932                 3.5208                 4.0760
 Frc consts  --      1.3129                 2.7011                 3.3802
 IR Inten    --      5.8729                99.5977                 8.7805

                     37                     38                     39
                      A                      A                      A
 Frequencies --   1238.4999              1262.6820              1292.7632
 Red. masses --      1.6440                 1.2876                 1.5999
 Frc consts  --      1.4857                 1.2095                 1.5754
 IR Inten    --     57.0895                 2.5647                 4.9592

                     40                     41                     42
                      A                      A                      A
 Frequencies --   1316.0818              1373.0155              1403.0907
 Red. masses --      2.8712                 3.0347                 2.2050
 Frc consts  --      2.9300                 3.3706                 2.5576
 IR Inten    --     49.4585                14.1452                10.7901

                     43                     44                     45
                      A                      A                      A
 Frequencies --   1445.1277              1464.7949              1506.8457
 Red. masses --      1.2393                 2.1357                 1.0419
 Frc consts  --      1.5250                 2.6998                 1.3938
 IR Inten    --      4.6040                27.5882                 8.7772

                     46                     47                     48
                      A                      A                      A
 Frequencies --   1515.0155              1517.0065              1544.1845
 Red. masses --      2.6632                 1.5697                 3.8116
 Frc consts  --      3.6015                 2.1283                 5.3549
 IR Inten    --     16.2136                28.1093                18.3471

                     49                     50                     51
                      A                      A                      A
 Frequencies --   1613.3560              1636.7517              1675.3766
 Red. masses --      4.0915                 3.2923                 5.6157
 Frc consts  --      6.2748                 5.1966                 9.2871
 IR Inten    --     55.5529               149.2989               318.5798

                     52                     53                     54
                      A                      A                      A
 Frequencies --   3049.0218              3102.2424              3135.4813
 Red. masses --      1.0366                 1.1018                 1.1009
 Frc consts  --      5.6776                 6.2476                 6.3771
 IR Inten    --     38.4278                12.6963                 9.7366

                     55                     56                     57
                      A                      A                      A
 Frequencies --   3219.2579              3229.0150              3236.5723
 Red. masses --      1.0905                 1.0889                 1.0958
 Frc consts  --      6.6588                 6.6894                 6.7633
 IR Inten    --     11.5522                 2.9799                 1.1522

                     58                     59                     60
                      A                      A                      A
 Frequencies --   3241.6006              3246.9022              3622.9139
 Red. masses --      1.0916                 1.0972                 1.0784
 Frc consts  --      6.7580                 6.8150                 8.3395
 IR Inten    --      1.6508                 5.0895                96.7260

 - Thermochemistry -
 -------------------
 Temperature   298.150 Kelvin.  Pressure   1.00000 Atm.
 Atom     1 has atomic number  6 and mass  12.00000

 Molecular mass:   207.01764 amu.
 Principal axes and moments of inertia in atomic units:
                           1         2         3
     Eigenvalues --  1031.244006126.810507005.90313
           X            0.99989  -0.01445   0.00173
           Y            0.01445   0.99989   0.00155
           Z           -0.00175  -0.00152   1.00000
 This molecule is an asymmetric top.
 Rotational symmetry number  1.
 Warning -- assumption of classical behavior for rotation
           may cause significant error
 Rotational temperatures (Kelvin)      0.08399     0.01414     0.01236
 Rotational constants (GHZ):           1.75006     0.29456     0.25760
 Zero-point vibrational energy     439125.0 (Joules/Mol)
                                  104.95339 (Kcal/Mol)
 Warning -- explicit consideration of  17 degrees of freedom as
           vibrations may cause significant error
 Vibrational temperatures:     60.90   105.60   126.56   150.96   210.06
          (Kelvin)            261.38   317.88   413.89   444.37   490.39
                              589.21   605.35   638.49   723.33   767.40
                              813.78   841.11   899.08   970.02  1005.18
                             1019.04  1065.11  1142.96  1175.88  1182.18
                             1295.24  1303.00  1385.34  1426.51  1443.25
                             1482.94  1541.78  1562.46  1603.90  1641.79
                             1706.98  1781.93  1816.72  1860.00  1893.55
                             1975.46  2018.73  2079.22  2107.51  2168.01
                             2179.77  2182.63  2221.74  2321.26  2354.92
                             2410.49  4386.86  4463.43  4511.26  4631.79
                             4645.83  4656.71  4663.94  4671.57  5212.57

 Zero-point correction=                           0.167254 (Hartree/Particle)
 Thermal correction to Energy=                    0.179116
 Thermal correction to Enthalpy=                  0.180060
 Thermal correction to Gibbs Free Energy=         0.127971
 Sum of electronic and zero-point Energies=          -1237.486668
 Sum of electronic and thermal Energies=             -1237.474806
 Sum of electronic and thermal Enthalpies=           -1237.473862
 Sum of electronic and thermal Free Energies=        -1237.525950

                     E (Thermal)             CV                S
                      KCal/Mol        Cal/Mol-Kelvin    Cal/Mol-Kelvin
 Total                  112.397             44.631            109.630
 Electronic               0.000              0.000              0.000
 Translational            0.889              2.981             41.887
 Rotational               0.889              2.981             32.160
 Vibrational            110.619             38.670             35.583
 Vibration     1          0.595              1.980              5.147
 Vibration     2          0.599              1.967              4.060
 Vibration     3          0.601              1.958              3.705
 Vibration     4          0.605              1.945              3.361
 Vibration     5          0.617              1.907              2.724
 Vibration     6          0.630              1.865              2.311
 Vibration     7          0.648              1.809              1.951
 Vibration     8          0.685              1.697              1.488
 Vibration     9          0.698              1.657              1.368
 Vibration    10          0.720              1.594              1.208
 Vibration    11          0.774              1.450              0.928
 Vibration    12          0.783              1.425              0.889
 Vibration    13          0.803              1.375              0.815
 Vibration    14          0.858              1.244              0.651
 Vibration    15          0.888              1.176              0.580
 Vibration    16          0.921              1.106              0.513
 Vibration    17          0.942              1.065              0.477

 Optimization completed.
    -- Stationary point found.
 Normal termination of Gaussian 16 at Wed Dec  9 23:27:49 2020.

 ----------------------------------------------------------------------
 # B3LYP/6-311++G(d,p) empiricaldispersion=gd3bj scf=xqc pop=npa geom=c
 heck
 ----------------------------------------------------------------------

 ---------------------------------------
 CID_106518704_JID_3473_Energie_neutraal
 ---------------------------------------
 Structure from the checkpoint file:  "JID_3473.chk"
 Charge =  0 Multiplicity = 1

 SCF Done:  E(RB3LYP) =  -1237.82131772     A.U. after   17 cycles
 Normal termination of Gaussian 16 at Wed Dec  9 23:29:56 2020.

 ----------------------------------------------------------------------
 # B3LYP/6-311++G(d,p) empiricaldispersion=gd3bj scf=xqc pop=npa geom=c
 heck
 ----------------------------------------------------------------------

 -------------------------------------
 CID_106518704_JID_3473_Energie_kation
 -------------------------------------
 Structure from the checkpoint file:  "JID_3473.chk"
 Charge =  1 Multiplicity = 2

 SCF Done:  E(UB3LYP) =  -1237.55948353     A.U. after   33 cycles
 SCF Done:  E(UB3LYP) =  -1237.55948353     a.u. after    1 cycles
 Normal termination of Gaussian 16 at Wed Dec  9 23:35:25 2020.
 Gaussian 16:  ES64L-G16RevA.03 25-Dec-2016

 ----------------------------------------------------------------------
 # B3LYP/6-311++G(d,p) empiricaldispersion=gd3bj scf=xqc pop=npa geom=c
 heck
 ----------------------------------------------------------------------

 ------------------------------------
 CID_106518704_JID_3473_Energie_anion
 ------------------------------------
 Structure from the checkpoint file:  "JID_3473.chk"
 Charge = -1 Multiplicity = 2

                         Standard orientation:
 ---------------------------------------------------------------------
 Center     Atomic      Atomic             Coordinates (Angstroms)
 Number     Number       Type             X           Y           Z
 ---------------------------------------------------------------------
      1          6           0        4.909455   -0.065479    0.283035
      2          6           0        3.458304   -0.343546    0.041957
      3          6           0        2.874252   -1.488158   -0.434154
      4          6           0        1.457082   -1.410415   -0.545588
      5          6           0        0.947146   -0.199977   -0.144811
      6         16           0        2.241337    0.862927    0.389837
      7          6           0       -0.446536    0.222108   -0.121681
      8          6           0       -1.496798   -0.637720    0.079336
      9          6           0       -2.868026   -0.204131    0.071061
     10         16           0       -4.154462   -1.264704    0.284091
     11          6           0       -3.049802    1.216782   -0.119569
     12          6           0       -1.990195    2.046896   -0.304064
     13          7           0       -0.706791    1.564366   -0.307520
     14          1           0        5.268704    0.777882   -0.318535
     15          1           0        5.110530    0.169787    1.334791
     16          1           0        5.500624   -0.946300    0.016090
     17          1           0        3.451423   -2.364341   -0.709513
     18          1           0        0.834165   -2.207791   -0.934006
     19          1           0       -1.289228   -1.682627    0.273540
     20          1           0       -4.055591    1.618794   -0.114722
     21          1           0       -2.089353    3.114996   -0.459422
     22          1           0        0.056974    2.179309   -0.551566
 ---------------------------------------------------------------------

 SCF Done:  E(UB3LYP) =  -1237.84630441     A.U. after   28 cycles

 The electronic state is 2-A.
 Alpha  occ. eigenvalues --  -88.74579 -88.63015 -14.24051 -10.10106 -10.08904
 Alpha  occ. eigenvalues --  -10.07781 -10.07416 -10.07008 -10.06480 -10.05254
 Alpha  occ. eigenvalues --  -10.04661 -10.04110 -10.03378  -7.83256  -7.71767
 Alpha  occ. eigenvalues --   -5.79551  -5.79202  -5.78845  -5.68118  -5.67703
 Alpha  occ. eigenvalues --   -5.67311  -0.85973  -0.75790  -0.68617  -0.67508
 Alpha  occ. eigenvalues --   -0.63914  -0.60969  -0.57938  -0.55348  -0.51548
 Alpha  occ. eigenvalues --   -0.46936  -0.45238  -0.42091  -0.41203  -0.37632
 Alpha  occ. eigenvalues --   -0.35946  -0.33894  -0.32768  -0.32185  -0.31118
 Alpha  occ. eigenvalues --   -0.30201  -0.28922  -0.26653  -0.25331  -0.24846
 Alpha  occ. eigenvalues --   -0.23419  -0.22178  -0.19602  -0.18908  -0.16576
 Alpha  occ. eigenvalues --   -0.13703  -0.10428  -0.06451  -0.05209   0.02769
 Alpha virt. eigenvalues --    0.06816   0.07706   0.08667   0.09157   0.10155
 Alpha virt. eigenvalues --    0.10528   0.10953   0.12336   0.12569   0.12828
 Alpha virt. eigenvalues --    0.13485   0.13549   0.14024   0.14917   0.15328

  Beta  occ. eigenvalues --  -88.74542 -88.62960 -14.23846 -10.10066 -10.08610
  Beta  occ. eigenvalues --  -10.07806 -10.07064 -10.06912 -10.06250 -10.05349
  Beta  occ. eigenvalues --  -10.04662 -10.03889 -10.03399  -7.83222  -7.71717
  Beta  occ. eigenvalues --   -5.79531  -5.79186  -5.78727  -5.68096  -5.67525
  Beta  occ. eigenvalues --   -5.67279  -0.85572  -0.75466  -0.68270  -0.67061
  Beta  occ. eigenvalues --   -0.63664  -0.60749  -0.57610  -0.55141  -0.51403
  Beta  occ. eigenvalues --   -0.46502  -0.45034  -0.41796  -0.40918  -0.37459
  Beta  occ. eigenvalues --   -0.35708  -0.33744  -0.32382  -0.32084  -0.30725
  Beta  occ. eigenvalues --   -0.29521  -0.28722  -0.26440  -0.25186  -0.24144
  Beta  occ. eigenvalues --   -0.23273  -0.21953  -0.19324  -0.17779  -0.15503
  Beta  occ. eigenvalues --   -0.12966  -0.09189  -0.05449  -0.05067
  Beta virt. eigenvalues --    0.06697   0.07518   0.07942   0.09104   0.09467
  Beta virt. eigenvalues --    0.10215   0.10698   0.10966   0.12334   0.12750
  Beta virt. eigenvalues --    0.13274   0.13441   0.13656   0.14223   0.14909

 Mulliken charges and spin densities:
               1          2
     1  C   -0.395030  -0.023119
     2  C    0.499602   0.206740
     3  C   -0.748962  -0.114996
     4  C    0.417665   0.268859
     5  C    0.038881  -0.025774
     6  S   -0.539595   0.078214
     7  C   -0.250145   0.158779
     8  C   -0.234385  -0.085502
     9  C    0.641395   0.185368
    10  S   -1.226214   0.120602
    11  C   -0.168121  -0.013593
    12  C   -0.173336   0.043930
    13  N   -0.012622   0.072543
    14  H    0.071612   0.076244
    15  H    0.141847   0.005564
    16  H    0.130105   0.005048
    17  H    0.090272   0.003929
    18  H    0.130792  -0.009972
    19  H    0.115792   0.003007
    20  H    0.156565  -0.001369
    21  H    0.131517   0.005772
    22  H    0.182364   0.039727
 Sum of Mulliken charges =  -1.00000   1.00000

 Dipole moment (field-independent basis, Debye):
    X=              8.5083    Y=              4.4293    Z=             -1.0851  Tot=              9.6533
 Quadrupole moment (field-independent basis, Debye-Ang):
   XX=           -164.1954   YY=           -100.1281   ZZ=           -103.4256
   XY=            -17.6665   XZ=              4.2372   YZ=              0.3208

 Summary of Natural Population Analysis:

                                       Natural Population
                Natural  -----------------------------------------------
    Atom  No    Charge         Core      Valence    Rydberg      Total
 -----------------------------------------------------------------------
      C    1   -0.29858      0.99962     2.29356    0.00540     3.29858
      C    2   -0.04001      0.99952     2.02854    0.01195     3.04001
      C    3   -0.15615      0.99947     2.14746    0.00922     3.15615
      C    4   -0.07004      0.99949     2.06193    0.00863     3.07004
      C    5   -0.10414      0.99946     2.09056    0.01411     3.10414
      S    6    0.19057      4.99940     2.79155    0.01849     7.80943
      C    7    0.13785      0.99946     1.85054    0.01215     2.86215
      C    8   -0.12833      0.99946     2.11911    0.00976     3.12833
      C    9   -0.04256      0.99953     2.02845    0.01458     3.04256
      S   10   -0.13671      4.99958     3.12048    0.01665     8.13671
      C   11   -0.15439      0.99954     2.13569    0.01916     3.15439
      C   12    0.07074      0.99958     1.92147    0.00821     2.92926
      N   13   -0.25988      0.99967     2.74418    0.01602     3.75988
      H   14    0.10221      0.00000     0.39633    0.00146     0.39779
      H   15    0.10157      0.00000     0.39717    0.00126     0.39843
      H   16    0.10081      0.00000     0.39821    0.00098     0.39919
      H   17    0.09773      0.00000     0.40115    0.00112     0.40227
      H   18    0.10299      0.00000     0.39602    0.00098     0.39701
      H   19    0.10675      0.00000     0.39153    0.00171     0.39325
      H   20    0.10333      0.00000     0.39436    0.00231     0.39667
      H   21    0.09052      0.00000     0.40797    0.00151     0.40948
      H   22    0.19483      0.00000     0.30207    0.00310     0.30517
 =======================================================================
   * Total *    0.00912     20.99379    32.81833    0.17876    53.99088

 Normal termination of Gaussian 16 at Wed Dec  9 23:39:50 2020.
