 Gaussian 16, Revision A.03,

 -----------------------------------------------------------
 # opt freq B3LYP/6-31G(d) empiricaldispersion=gd3bj scf=xqc
 -----------------------------------------------------------

 -------------------------------
 CID_104226083_JID_4802_neutraal
 -------------------------------
 Symbolic Z-matrix:
 Charge =  0 Multiplicity = 1

 SCF Done:  E(RB3LYP) =  -1018.12405408     A.U. after   15 cycles
 SCF Done:  E(RB3LYP) =  -1018.12875601     A.U. after   13 cycles
 SCF Done:  E(RB3LYP) =  -1018.13238271     A.U. after   13 cycles
 SCF Done:  E(RB3LYP) =  -1018.13410991     A.U. after   13 cycles
 SCF Done:  E(RB3LYP) =  -1018.13430309     A.U. after   14 cycles
 SCF Done:  E(RB3LYP) =  -1018.13456094     A.U. after   13 cycles
 SCF Done:  E(RB3LYP) =  -1018.13493362     A.U. after   12 cycles
 SCF Done:  E(RB3LYP) =  -1018.13500623     A.U. after   11 cycles
 SCF Done:  E(RB3LYP) =  -1018.13508489     A.U. after   12 cycles
 SCF Done:  E(RB3LYP) =  -1018.13511984     A.U. after   10 cycles
 SCF Done:  E(RB3LYP) =  -1018.13514580     A.U. after    8 cycles
 SCF Done:  E(RB3LYP) =  -1018.13514601     A.U. after    8 cycles
 SCF Done:  E(RB3LYP) =  -1018.13514608     A.U. after    7 cycles
 SCF Done:  E(RB3LYP) =  -1018.13514616     A.U. after    7 cycles
 SCF Done:  E(RB3LYP) =  -1018.13514620     A.U. after    7 cycles
 SCF Done:  E(RB3LYP) =  -1018.13514622     A.U. after    7 cycles
 Optimization completed.
    -- Stationary point found.
 Normal termination of Gaussian 16 at Thu Dec 10 10:40:48 2020.

 --------------------------------------------------------------------
 #N Geom=AllCheck Guess=TCheck SCRF=Check GenChk RB3LYP/6-31G(d) Freq
 --------------------------------------------------------------------

 Structure from the checkpoint file:  "JID_4802.chk"
 -------------------------------
 CID_104226083_JID_4802_neutraal
 -------------------------------
 Charge =  0 Multiplicity = 1

 SCF Done:  E(RB3LYP) =  -1018.13514622     A.U. after    1 cycles

  Exact polarizability: 200.257   5.759 118.948   2.966  -2.272  57.732
 Approx polarizability: 276.550   0.852 224.736   5.660  -7.125  91.805

                      1                      2                      3
                      A                      A                      A
 Frequencies --     35.4249                47.1445                74.0201
 Red. masses --      5.8309                 4.2655                 6.3885
 Frc consts  --      0.0043                 0.0056                 0.0206
 IR Inten    --      0.4551                 4.5056                 0.8857

                      4                      5                      6
                      A                      A                      A
 Frequencies --     91.5506               113.7842               194.4243
 Red. masses --      6.5715                 4.5751                 6.7122
 Frc consts  --      0.0325                 0.0349                 0.1495
 IR Inten    --      0.3748                 1.9513                 1.7085

                      7                      8                      9
                      A                      A                      A
 Frequencies --    237.9688               253.6606               278.1784
 Red. masses --      8.3372                 4.9071                 6.9959
 Frc consts  --      0.2782                 0.1860                 0.3190
 IR Inten    --      0.0998                 3.3141                 9.8907

                     10                     11                     12
                      A                      A                      A
 Frequencies --    310.3827               381.8821               414.8204
 Red. masses --      3.6946                 1.4319                 3.5274
 Frc consts  --      0.2097                 0.1230                 0.3576
 IR Inten    --     27.7998               127.9764                11.7725

                     13                     14                     15
                      A                      A                      A
 Frequencies --    429.0560               474.6043               516.3826
 Red. masses --      4.4202                 3.8997                 9.0084
 Frc consts  --      0.4794                 0.5175                 1.4153
 IR Inten    --     31.6482                 8.9544                 4.3992

                     16                     17                     18
                      A                      A                      A
 Frequencies --    535.4970               619.9119               666.8451
 Red. masses --      8.2148                 3.5769                 9.6553
 Frc consts  --      1.3879                 0.8099                 2.5297
 IR Inten    --      6.7480                11.4912                 6.7983

                     19                     20                     21
                      A                      A                      A
 Frequencies --    692.4518               706.0621               756.1923
 Red. masses --      5.4051                 5.4078                 1.4291
 Frc consts  --      1.5270                 1.5884                 0.4815
 IR Inten    --      0.4270                20.5602                34.8196

                     22                     23                     24
                      A                      A                      A
 Frequencies --    787.7996               854.6473               890.7968
 Red. masses --      4.9681                 7.2652                 1.3413
 Frc consts  --      1.8167                 3.1266                 0.6271
 IR Inten    --     33.5811                20.2293                13.1787

                     25                     26                     27
                      A                      A                      A
 Frequencies --    937.7009               980.6076              1002.9790
 Red. masses --      1.4266                 8.3408                 1.5599
 Frc consts  --      0.7390                 4.7255                 0.9246
 IR Inten    --     18.9513                15.7955                26.4421

                     28                     29                     30
                      A                      A                      A
 Frequencies --   1004.9995              1028.7935              1055.4924
 Red. masses --      1.3666                 6.3405                 4.5085
 Frc consts  --      0.8133                 3.9539                 2.9593
 IR Inten    --      2.5541                33.3893                15.6842

                     31                     32                     33
                      A                      A                      A
 Frequencies --   1086.1896              1101.1211              1197.5973
 Red. masses --      5.2651                 2.5892                 6.5825
 Frc consts  --      3.6599                 1.8496                 5.5624
 IR Inten    --     53.2365                52.8950               126.0152

                     34                     35                     36
                      A                      A                      A
 Frequencies --   1212.8921              1217.0934              1250.3100
 Red. masses --      2.4952                 1.2193                 2.5481
 Frc consts  --      2.1627                 1.0642                 2.3469
 IR Inten    --     23.1101                21.9078                 3.8245

                     37                     38                     39
                      A                      A                      A
 Frequencies --   1268.5366              1275.7942              1295.0868
 Red. masses --      4.2722                 2.0466                 1.9143
 Frc consts  --      4.0505                 1.9626                 1.8917
 IR Inten    --      2.6346                69.2978                 0.5762

                     40                     41                     42
                      A                      A                      A
 Frequencies --   1310.2210              1381.1315              1382.1381
 Red. masses --      3.5150                 3.4924                 2.0442
 Frc consts  --      3.5552                 3.9250                 2.3008
 IR Inten    --     35.1930                26.2193                47.0646

                     43                     44                     45
                      A                      A                      A
 Frequencies --   1420.1763              1443.9163              1451.7132
 Red. masses --      1.3254                 1.7862                 2.6312
 Frc consts  --      1.5750                 2.1941                 3.2672
 IR Inten    --    105.9935               131.2671               146.0772

                     46                     47                     48
                      A                      A                      A
 Frequencies --   1469.7429              1527.8904              1540.5736
 Red. masses --      3.6767                 1.0831                 3.5493
 Frc consts  --      4.6794                 1.4897                 4.9631
 IR Inten    --     96.2294                 0.8325               102.4964

                     49                     50                     51
                      A                      A                      A
 Frequencies --   1591.3097              1648.7888              3011.2036
 Red. masses --      6.3552                 5.0434                 1.0703
 Frc consts  --      9.4817                 8.0779                 5.7180
 IR Inten    --     71.0245               142.0655                53.7949

                     52                     53                     54
                      A                      A                      A
 Frequencies --   3088.4692              3167.8396              3204.9857
 Red. masses --      1.0935                 1.0912                 1.0918
 Frc consts  --      6.1454                 6.4519                 6.6075
 IR Inten    --     17.1777                25.1136                 5.3951

                     55                     56                     57
                      A                      A                      A
 Frequencies --   3282.3434              3583.9697              3733.5554
 Red. masses --      1.0971                 1.0838                 1.0663
 Frc consts  --      6.9640                 8.2025                 8.7571
 IR Inten    --      9.3256               207.0777                17.3960

 - Thermochemistry -
 -------------------
 Temperature   298.150 Kelvin.  Pressure   1.00000 Atm.
 Atom     1 has atomic number  6 and mass  12.00000

 Molecular mass:   209.03713 amu.
 Principal axes and moments of inertia in atomic units:
                           1         2         3
     Eigenvalues --  1129.648875913.872496990.90659
           X            1.00000   0.00268  -0.00011
           Y           -0.00268   0.99999   0.00240
           Z            0.00012  -0.00240   1.00000
 This molecule is an asymmetric top.
 Rotational symmetry number  1.
 Warning -- assumption of classical behavior for rotation
           may cause significant error
 Rotational temperatures (Kelvin)      0.07667     0.01465     0.01239
 Rotational constants (GHZ):           1.59761     0.30517     0.25816
 Zero-point vibrational energy     397869.9 (Joules/Mol)
                                   95.09319 (Kcal/Mol)
 Warning -- explicit consideration of  17 degrees of freedom as
           vibrations may cause significant error
 Vibrational temperatures:     50.97    67.83   106.50   131.72   163.71
          (Kelvin)            279.73   342.38   364.96   400.24   446.57
                              549.44   596.83   617.32   682.85   742.96
                              770.46   891.92   959.44   996.28  1015.87
                             1087.99  1133.47  1229.65  1281.66  1349.14
                             1410.88  1443.06  1445.97  1480.20  1518.62
                             1562.78  1584.27  1723.08  1745.08  1751.13
                             1798.92  1825.14  1835.58  1863.34  1885.12
                             1987.14  1988.59  2043.32  2077.47  2088.69
                             2114.63  2198.29  2216.54  2289.54  2372.24
                             4332.45  4443.62  4557.81  4611.26  4722.56
                             5156.53  5371.75

 Zero-point correction=                           0.151541 (Hartree/Particle)
 Thermal correction to Energy=                    0.163528
 Thermal correction to Enthalpy=                  0.164472
 Thermal correction to Gibbs Free Energy=         0.111249
 Sum of electronic and zero-point Energies=          -1017.983606
 Sum of electronic and thermal Energies=             -1017.971618
 Sum of electronic and thermal Enthalpies=           -1017.970674
 Sum of electronic and thermal Free Energies=        -1018.023897

                     E (Thermal)             CV                S
                      KCal/Mol        Cal/Mol-Kelvin    Cal/Mol-Kelvin
 Total                  102.615             43.643            112.017
 Electronic               0.000              0.000              0.000
 Translational            0.889              2.981             41.916
 Rotational               0.889              2.981             32.213
 Vibrational            100.838             37.681             37.888
 Vibration     1          0.594              1.982              5.500
 Vibration     2          0.595              1.979              4.934
 Vibration     3          0.599              1.966              4.043
 Vibration     4          0.602              1.955              3.627
 Vibration     5          0.607              1.938              3.203
 Vibration     6          0.635              1.848              2.185
 Vibration     7          0.656              1.783              1.818
 Vibration     8          0.665              1.757              1.705
 Vibration     9          0.679              1.714              1.545
 Vibration    10          0.699              1.654              1.360
 Vibration    11          0.751              1.509              1.032
 Vibration    12          0.778              1.438              0.910
 Vibration    13          0.790              1.407              0.862
 Vibration    14          0.831              1.306              0.725
 Vibration    15          0.871              1.214              0.618
 Vibration    16          0.890              1.172              0.575
 Vibration    17          0.980              0.990              0.417

                           ! Non-Optimized Parameters !
 Normal termination of Gaussian 16 at Thu Dec 10 10:45:57 2020.

 ----------------------------------------------------------------------
 # B3LYP/6-311++G(d,p) empiricaldispersion=gd3bj scf=xqc pop=npa geom=c
 heck
 ----------------------------------------------------------------------

 ---------------------------------------
 CID_104226083_JID_4802_Energie_neutraal
 ---------------------------------------
 Structure from the checkpoint file:  "JID_4802.chk"
 Charge =  0 Multiplicity = 1

 SCF Done:  E(RB3LYP) =  -1018.33814859     A.U. after   15 cycles
 Normal termination of Gaussian 16 at Thu Dec 10 10:48:37 2020.

 ----------------------------------------------------------------------
 # B3LYP/6-311++G(d,p) empiricaldispersion=gd3bj scf=xqc pop=npa geom=c
 heck
 ----------------------------------------------------------------------

 -------------------------------------
 CID_104226083_JID_4802_Energie_kation
 -------------------------------------
 Structure from the checkpoint file:  "JID_4802.chk"
 Charge =  1 Multiplicity = 2

 SCF Done:  E(UB3LYP) =  -1018.02835640     A.U. after   23 cycles
 Normal termination of Gaussian 16 at Thu Dec 10 10:53:44 2020.
 Gaussian 16:  ES64L-G16RevA.03 25-Dec-2016

 ----------------------------------------------------------------------
 # B3LYP/6-311++G(d,p) empiricaldispersion=gd3bj scf=xqc pop=npa geom=c
 heck
 ----------------------------------------------------------------------

 ------------------------------------
 CID_104226083_JID_4802_Energie_anion
 ------------------------------------
 Structure from the checkpoint file:  "JID_4802.chk"
 Charge = -1 Multiplicity = 2

                         Standard orientation:
 ---------------------------------------------------------------------
 Center     Atomic      Atomic             Coordinates (Angstroms)
 Number     Number       Type             X           Y           Z
 ---------------------------------------------------------------------
      1          6           0       -2.445829   -1.402942   -0.031562
      2          6           0       -2.805696   -0.055386   -0.141805
      3          6           0       -1.741626    0.844221   -0.161100
      4          7           0       -0.460349    0.457896   -0.093899
      5          6           0       -0.244211   -0.860165   -0.005979
      6          7           0       -1.181755   -1.815764    0.034207
      7         16           0        1.389235   -1.552159    0.082593
      8          6           0        2.488700   -0.172219    0.029032
      9          7           0        3.801344   -0.353952    0.081351
     10          6           0        4.273386    0.924152    0.014671
     11          7           0        3.348907    1.870377   -0.074097
     12          7           0        2.201139    1.142652   -0.063742
     13          6           0       -4.241116    0.407372   -0.242039
     14          8           0       -4.455122    1.677496    0.353904
     15          1           0       -3.206933   -2.181715    0.010385
     16          1           0       -1.926867    1.913533   -0.221029
     17          1           0        5.328418    1.159308    0.032399
     18          1           0        1.270922    1.543190   -0.117215
     19          1           0       -4.522518    0.534463   -1.293329
     20          1           0       -4.908326   -0.362265    0.176094
     21          1           0       -4.288121    1.589401    1.305926
 ---------------------------------------------------------------------

 SCF Done:  E(UB3LYP) =  -1018.35801725     A.U. after   29 cycles

 The electronic state is 2-A.
 Alpha  occ. eigenvalues --  -88.75164 -19.01961 -14.27211 -14.23018 -14.19605
 Alpha  occ. eigenvalues --  -14.15434 -14.14672 -10.15209 -10.12486 -10.11323
 Alpha  occ. eigenvalues --  -10.10921 -10.04333 -10.03843 -10.03760  -7.83781
 Alpha  occ. eigenvalues --   -5.80204  -5.79717  -5.79199  -0.96671  -0.92031
 Alpha  occ. eigenvalues --   -0.83709  -0.78852  -0.73761  -0.72912  -0.67306
 Alpha  occ. eigenvalues --   -0.63270  -0.56145  -0.52074  -0.51259  -0.50163
 Alpha  occ. eigenvalues --   -0.48075  -0.42538  -0.40569  -0.37295  -0.36440
 Alpha  occ. eigenvalues --   -0.35542  -0.33580  -0.33239  -0.31433  -0.28776
 Alpha  occ. eigenvalues --   -0.28435  -0.25778  -0.24667  -0.23503  -0.21708
 Alpha  occ. eigenvalues --   -0.20819  -0.19215  -0.18638  -0.17847  -0.17522
 Alpha  occ. eigenvalues --   -0.15750  -0.14812  -0.10705  -0.10141   0.04478
 Alpha virt. eigenvalues --    0.07954   0.08837   0.09904   0.10273   0.10877
 Alpha virt. eigenvalues --    0.11375   0.12156   0.13044   0.13164   0.14169
 Alpha virt. eigenvalues --    0.14427   0.14492   0.15399   0.15413   0.16404

  Beta  occ. eigenvalues --  -88.75167 -19.01964 -14.27210 -14.23021 -14.19605
  Beta  occ. eigenvalues --  -14.15023 -14.14234 -10.15211 -10.12575 -10.11320
  Beta  occ. eigenvalues --  -10.10908 -10.04011 -10.03852 -10.03209  -7.83784
  Beta  occ. eigenvalues --   -5.80205  -5.79720  -5.79206  -0.96670  -0.92036
  Beta  occ. eigenvalues --   -0.83039  -0.78851  -0.73295  -0.72338  -0.67068
  Beta  occ. eigenvalues --   -0.63197  -0.55869  -0.52024  -0.50658  -0.49661
  Beta  occ. eigenvalues --   -0.47948  -0.42399  -0.40474  -0.37068  -0.36194
  Beta  occ. eigenvalues --   -0.35532  -0.33474  -0.33177  -0.31206  -0.28369
  Beta  occ. eigenvalues --   -0.27301  -0.25436  -0.24604  -0.23389  -0.21669
  Beta  occ. eigenvalues --   -0.20569  -0.19064  -0.18465  -0.17841  -0.15318
  Beta  occ. eigenvalues --   -0.14439  -0.14080  -0.10219  -0.09430
  Beta virt. eigenvalues --    0.07898   0.08832   0.09871   0.10270   0.10929
  Beta virt. eigenvalues --    0.11321   0.12011   0.12367   0.13018   0.13141
  Beta virt. eigenvalues --    0.14196   0.14426   0.14496   0.15367   0.15461

 Mulliken charges and spin densities:
               1          2
     1  C   -0.354505   0.441760
     2  C    0.467444  -0.078523
     3  C   -0.156539   0.429322
     4  N   -0.036182   0.186086
     5  C   -0.496375  -0.090965
     6  N   -0.069534   0.187748
     7  S    0.001423   0.005673
     8  C   -0.337283   0.000481
     9  N   -0.137245  -0.000577
    10  C   -0.056706   0.002714
    11  N    0.058007  -0.003614
    12  N   -0.369143  -0.003178
    13  C   -0.497334  -0.102757
    14  O   -0.256893  -0.008319
    15  H    0.124709  -0.021846
    16  H    0.141409  -0.026854
    17  H    0.153347  -0.000210
    18  H    0.382969  -0.001973
    19  H    0.127036   0.018345
    20  H    0.087251   0.063958
    21  H    0.224144   0.002730
 Sum of Mulliken charges =  -1.00000   1.00000

 Dipole moment (field-independent basis, Debye):
    X=              0.1772    Y=              1.1678    Z=              0.6155  Tot=              1.3319
 Quadrupole moment (field-independent basis, Debye-Ang):
   XX=           -133.3135   YY=           -114.1066   ZZ=            -93.4733
   XY=              3.2088   XZ=             -2.5435   YZ=              2.8175

 Summary of Natural Population Analysis:

                                       Natural Population
                Natural  -----------------------------------------------
    Atom  No    Charge         Core      Valence    Rydberg      Total
 -----------------------------------------------------------------------
      C    1    0.12707      0.99955     1.85880    0.01457     2.87293
      C    2   -0.11144      0.99949     2.10421    0.00774     3.11144
      C    3    0.14339      0.99954     1.84288    0.01418     2.85661
      N    4   -0.24709      0.99963     2.73355    0.01391     3.74709
      C    5    0.12161      0.99957     1.85474    0.02409     2.87839
      N    6   -0.21553      0.99965     2.70093    0.01495     3.71553
      S    7    0.16782      4.99944     2.81099    0.02176     7.83218
      C    8    0.10667      0.99958     1.87325    0.02050     2.89333
      N    9   -0.28123      0.99969     2.77028    0.01126     3.78123
      C   10    0.07874      0.99972     1.90048    0.02106     2.92126
      N   11   -0.16928      0.99974     2.65684    0.01270     3.66928
      N   12   -0.19161      0.99961     2.67942    0.01258     3.69161
      C   13   -0.00907      0.99957     1.99674    0.01277     3.00907
      O   14   -0.37056      0.99990     3.36357    0.00709     4.37056
      H   15    0.07359      0.00000     0.42469    0.00172     0.42641
      H   16    0.08034      0.00000     0.41807    0.00158     0.41966
      H   17    0.08684      0.00000     0.41210    0.00106     0.41316
      H   18    0.22745      0.00000     0.27014    0.00241     0.27255
      H   19    0.08461      0.00000     0.41377    0.00163     0.41539
      H   20    0.07313      0.00000     0.42418    0.00269     0.42687
      H   21    0.22455      0.00000     0.27226    0.00319     0.27545
 =======================================================================
   * Total *   -0.00000     17.99467    35.78188    0.22344    54.00000

 Normal termination of Gaussian 16 at Thu Dec 10 10:59:50 2020.
