 Gaussian 16, Revision A.03,

 -----------------------------------------------------------
 # opt freq B3LYP/6-31G(d) empiricaldispersion=gd3bj scf=xqc
 -----------------------------------------------------------

 -------------------------------
 CID_130967061_JID_4518_neutraal
 -------------------------------
 Symbolic Z-matrix:
 Charge =  0 Multiplicity = 1

 SCF Done:  E(RB3LYP) =  -968.818478038     A.U. after   15 cycles
 SCF Done:  E(RB3LYP) =  -968.823576205     A.U. after   13 cycles
 SCF Done:  E(RB3LYP) =  -968.825218244     A.U. after   13 cycles
 SCF Done:  E(RB3LYP) =  -968.825621796     A.U. after   12 cycles
 SCF Done:  E(RB3LYP) =  -968.825133035     A.U. after   13 cycles
 SCF Done:  E(RB3LYP) =  -968.825645589     A.U. after   13 cycles
 SCF Done:  E(RB3LYP) =  -968.825698672     A.U. after   11 cycles
 SCF Done:  E(RB3LYP) =  -968.825724526     A.U. after   11 cycles
 SCF Done:  E(RB3LYP) =  -968.825740020     A.U. after   10 cycles
 SCF Done:  E(RB3LYP) =  -968.825749791     A.U. after   10 cycles
 SCF Done:  E(RB3LYP) =  -968.825751174     A.U. after    9 cycles
 SCF Done:  E(RB3LYP) =  -968.825751296     A.U. after    7 cycles
 SCF Done:  E(RB3LYP) =  -968.825751326     A.U. after    7 cycles
 Optimization completed.
    -- Stationary point found.
 Normal termination of Gaussian 16 at Thu Dec 10 09:57:48 2020.

 --------------------------------------------------------------------
 #N Geom=AllCheck Guess=TCheck SCRF=Check GenChk RB3LYP/6-31G(d) Freq
 --------------------------------------------------------------------

 Structure from the checkpoint file:  "JID_4518.chk"
 -------------------------------
 CID_130967061_JID_4518_neutraal
 -------------------------------
 Charge =  0 Multiplicity = 1

 SCF Done:  E(RB3LYP) =  -968.825751326     A.U. after    1 cycles

  Exact polarizability: 207.077  12.175 157.486   0.003   0.001  54.818
 Approx polarizability: 316.019  18.870 296.676   0.006   0.004  88.877

                      1                      2                      3
                      A                      A                      A
 Frequencies --     38.2129                87.8152                97.1899
 Red. masses --      5.8723                 4.4061                 6.4654
 Frc consts  --      0.0051                 0.0200                 0.0360
 IR Inten    --      1.6556                10.7753                 3.1277

                      4                      5                      6
                      A                      A                      A
 Frequencies --     98.2627               135.6451               188.1889
 Red. masses --      2.7254                 1.2971                 4.5895
 Frc consts  --      0.0155                 0.0141                 0.0958
 IR Inten    --      0.5873                 0.0223                 2.3699

                      7                      8                      9
                      A                      A                      A
 Frequencies --    198.1097               220.7847               276.0770
 Red. masses --      8.5675                 3.0955                 4.2884
 Frc consts  --      0.1981                 0.0889                 0.1926
 IR Inten    --      2.7855                 0.7938                 0.2015

                     10                     11                     12
                      A                      A                      A
 Frequencies --    290.8287               358.3487               433.6663
 Red. masses --      4.3515                 5.5362                 3.7717
 Frc consts  --      0.2169                 0.4189                 0.4179
 IR Inten    --      1.3823                 3.4925                 0.5366

                     13                     14                     15
                      A                      A                      A
 Frequencies --    447.4299               458.2745               485.7596
 Red. masses --      7.8758                 5.7507                 4.8379
 Frc consts  --      0.9290                 0.7116                 0.6726
 IR Inten    --      2.1033                 0.4105                 0.0442

                     16                     17                     18
                      A                      A                      A
 Frequencies --    564.9910               602.5885               657.1673
 Red. masses --      5.4470                 3.9282                 3.5345
 Frc consts  --      1.0244                 0.8404                 0.8993
 IR Inten    --      1.9825                 2.1927                 4.8211

                     19                     20                     21
                      A                      A                      A
 Frequencies --    683.2502               689.3021               735.2095
 Red. masses --      7.6064                 7.6718                 7.3422
 Frc consts  --      2.0921                 2.1477                 2.3383
 IR Inten    --     44.7388                 6.9675                23.0981

                     22                     23                     24
                      A                      A                      A
 Frequencies --    738.0103               816.5880               839.5420
 Red. masses --      1.3060                 3.7823                 1.4809
 Frc consts  --      0.4191                 1.4860                 0.6150
 IR Inten    --     30.8567                 4.0442                30.1907

                     25                     26                     27
                      A                      A                      A
 Frequencies --    846.8965               887.7213               895.1206
 Red. masses --      5.0033                 6.4543                 1.2686
 Frc consts  --      2.1143                 2.9968                 0.5989
 IR Inten    --     23.3932                10.9985                 0.5233

                     28                     29                     30
                      A                      A                      A
 Frequencies --    968.7433               996.0627              1005.8656
 Red. masses --      2.6075                 1.4109                 9.8747
 Frc consts  --      1.4418                 0.8248                 5.8865
 IR Inten    --     12.4091                 0.1217                11.4416

                     31                     32                     33
                      A                      A                      A
 Frequencies --   1022.7927              1057.5827              1065.3034
 Red. masses --      1.8660                 1.7254                 1.5109
 Frc consts  --      1.1501                 1.1370                 1.0103
 IR Inten    --      0.5899                 6.2566                 3.6038

                     34                     35                     36
                      A                      A                      A
 Frequencies --   1101.9552              1118.0164              1140.4874
 Red. masses --      3.6411                 1.4636                 1.4333
 Frc consts  --      2.6050                 1.0779                 1.0984
 IR Inten    --     33.3776                 3.2594                 5.2700

                     37                     38                     39
                      A                      A                      A
 Frequencies --   1231.5016              1265.5990              1273.5057
 Red. masses --      2.5934                 1.8060                 6.6068
 Frc consts  --      2.3173                 1.7043                 6.3131
 IR Inten    --     23.2129                 2.4319                 8.7689

                     40                     41                     42
                      A                      A                      A
 Frequencies --   1337.6845              1412.2739              1433.1434
 Red. masses --      3.0778                 2.7742                 2.1640
 Frc consts  --      3.2449                 3.2600                 2.6187
 IR Inten    --     13.5639                13.1899                11.2804

                     43                     44                     45
                      A                      A                      A
 Frequencies --   1441.7172              1446.3448              1475.9252
 Red. masses --      1.3986                 1.6104                 2.3980
 Frc consts  --      1.7128                 1.9849                 3.0777
 IR Inten    --     10.2971                51.6787                22.0224

                     46                     47                     48
                      A                      A                      A
 Frequencies --   1498.3171              1505.5212              1512.2692
 Red. masses --      5.9753                 1.0437                 1.1657
 Frc consts  --      7.9034                 1.3937                 1.5707
 IR Inten    --    385.1036                 6.4328                 8.9366

                     49                     50                     51
                      A                      A                      A
 Frequencies --   1588.9446              1604.7809              1629.2044
 Red. masses --      6.7109                 6.1476                 6.6068
 Frc consts  --      9.9827                 9.3280                10.3323
 IR Inten    --    127.3380                82.7934               165.5173

                     52                     53                     54
                      A                      A                      A
 Frequencies --   1828.4437              2915.2857              3064.5466
 Red. masses --     10.4813                 1.0846                 1.0360
 Frc consts  --     20.6457                 5.4311                 5.7325
 IR Inten    --    137.0963               147.4625                21.0075

                     55                     56                     57
                      A                      A                      A
 Frequencies --   3130.6491              3137.6297              3178.2494
 Red. masses --      1.0996                 1.1037                 1.0906
 Frc consts  --      6.3499                 6.4016                 6.4907
 IR Inten    --      6.4445                24.7931                27.8318

                     58                     59                     60
                      A                      A                      A
 Frequencies --   3217.8644              3218.8625              3265.8581
 Red. masses --      1.0910                 1.0937                 1.0964
 Frc consts  --      6.6560                 6.6768                 6.8901
 IR Inten    --     11.9049                 5.4830                 0.6194

 - Thermochemistry -
 -------------------
 Temperature   298.150 Kelvin.  Pressure   1.00000 Atm.
 Atom     1 has atomic number  6 and mass  12.00000

 Molecular mass:   204.03573 amu.
 Principal axes and moments of inertia in atomic units:
                           1         2         3
     Eigenvalues --  1543.184074133.095895665.36058
           X            0.99948   0.03239   0.00000
           Y           -0.03239   0.99948  -0.00000
           Z           -0.00000   0.00000   1.00000
 This molecule is an asymmetric top.
 Rotational symmetry number  1.
 Warning -- assumption of classical behavior for rotation
           may cause significant error
 Rotational temperatures (Kelvin)      0.05613     0.02096     0.01529
 Rotational constants (GHZ):           1.16949     0.43666     0.31856
 Zero-point vibrational energy     423848.4 (Joules/Mol)
                                  101.30219 (Kcal/Mol)
 Warning -- explicit consideration of  17 degrees of freedom as
           vibrations may cause significant error
 Vibrational temperatures:     54.98   126.35   139.83   141.38   195.16
          (Kelvin)            270.76   285.04   317.66   397.21   418.44
                              515.58   623.95   643.75   659.35   698.90
                              812.90   866.99   945.52   983.04   991.75
                             1057.80  1061.83  1174.89  1207.91  1218.50
                             1277.23  1287.88  1393.81  1433.11  1447.22
                             1471.57  1521.63  1532.73  1585.47  1608.58
                             1640.91  1771.86  1820.91  1832.29  1924.63
                             2031.95  2061.97  2074.31  2080.97  2123.53
                             2155.74  2166.11  2175.82  2286.14  2308.92
                             2344.06  2630.72  4194.45  4409.20  4504.31
                             4514.35  4572.79  4629.79  4631.23  4698.84

 Zero-point correction=                           0.161435 (Hartree/Particle)
 Thermal correction to Energy=                    0.173580
 Thermal correction to Enthalpy=                  0.174524
 Thermal correction to Gibbs Free Energy=         0.121962
 Sum of electronic and zero-point Energies=           -968.664316
 Sum of electronic and thermal Energies=              -968.652171
 Sum of electronic and thermal Enthalpies=            -968.651227
 Sum of electronic and thermal Free Energies=         -968.703789

                     E (Thermal)             CV                S
                      KCal/Mol        Cal/Mol-Kelvin    Cal/Mol-Kelvin
 Total                  108.923             45.112            110.627
 Electronic               0.000              0.000              0.000
 Translational            0.889              2.981             41.844
 Rotational               0.889              2.981             31.958
 Vibrational            107.146             39.151             36.825
 Vibration     1          0.594              1.982              5.350
 Vibration     2          0.601              1.958              3.708
 Vibration     3          0.603              1.951              3.510
 Vibration     4          0.604              1.950              3.488
 Vibration     5          0.613              1.918              2.864
 Vibration     6          0.633              1.856              2.246
 Vibration     7          0.637              1.843              2.151
 Vibration     8          0.647              1.809              1.953
 Vibration     9          0.678              1.718              1.558
 Vibration    10          0.687              1.691              1.469
 Vibration    11          0.733              1.558              1.129
 Vibration    12          0.794              1.397              0.847
 Vibration    13          0.807              1.367              0.804
 Vibration    14          0.816              1.343              0.771
 Vibration    15          0.842              1.282              0.695
 Vibration    16          0.921              1.107              0.514
 Vibration    17          0.961              1.026              0.445

 Optimization completed.
    -- Stationary point found.
 Normal termination of Gaussian 16 at Thu Dec 10 10:03:18 2020.

 ----------------------------------------------------------------------
 # B3LYP/6-311++G(d,p) empiricaldispersion=gd3bj scf=xqc pop=npa geom=c
 heck
 ----------------------------------------------------------------------

 ---------------------------------------
 CID_130967061_JID_4518_Energie_neutraal
 ---------------------------------------
 Structure from the checkpoint file:  "JID_4518.chk"
 Charge =  0 Multiplicity = 1

 SCF Done:  E(RB3LYP) =  -969.000994041     A.U. after   15 cycles
 Normal termination of Gaussian 16 at Thu Dec 10 10:05:15 2020.

 ----------------------------------------------------------------------
 # B3LYP/6-311++G(d,p) empiricaldispersion=gd3bj scf=xqc pop=npa geom=c
 heck
 ----------------------------------------------------------------------

 -------------------------------------
 CID_130967061_JID_4518_Energie_kation
 -------------------------------------
 Structure from the checkpoint file:  "JID_4518.chk"
 Charge =  1 Multiplicity = 2

 SCF Done:  E(UB3LYP) =  -968.702229225     A.U. after   26 cycles
 Normal termination of Gaussian 16 at Thu Dec 10 10:10:31 2020.
 Gaussian 16:  ES64L-G16RevA.03 25-Dec-2016

 ----------------------------------------------------------------------
 # B3LYP/6-311++G(d,p) empiricaldispersion=gd3bj scf=xqc pop=npa geom=c
 heck
 ----------------------------------------------------------------------

 ------------------------------------
 CID_130967061_JID_4518_Energie_anion
 ------------------------------------
 Structure from the checkpoint file:  "JID_4518.chk"
 Charge = -1 Multiplicity = 2

                         Standard orientation:
 ---------------------------------------------------------------------
 Center     Atomic      Atomic             Coordinates (Angstroms)
 Number     Number       Type             X           Y           Z
 ---------------------------------------------------------------------
      1          6           0        0.797358    2.494290   -0.000145
      2          6           0        1.639998    1.249327   -0.000079
      3          6           0        1.169754   -0.057422   -0.000028
      4         16           0        2.477105   -1.224007    0.000043
      5          6           0        3.647150    0.044338    0.000080
      6          6           0        3.066289    1.285019    0.000007
      7          6           0       -0.197484   -0.543898   -0.000017
      8          7           0       -0.364764   -1.891820    0.000031
      9          6           0       -1.612159   -2.344518    0.000031
     10          6           0       -2.720516   -1.491034   -0.000068
     11          6           0       -2.441670   -0.125576   -0.000074
     12          7           0       -1.194179    0.355730   -0.000049
     13          6           0       -3.568410    0.864382   -0.000080
     14          8           0       -3.424348    2.064662    0.000315
     15          1           0        1.436919    3.382379   -0.000743
     16          1           0        0.136107    2.531598   -0.870714
     17          1           0        0.137031    2.532229    0.871121
     18          1           0        4.703183   -0.191167    0.000073
     19          1           0        3.630225    2.211703   -0.000009
     20          1           0       -1.735318   -3.426130    0.000043
     21          1           0       -3.737218   -1.869945   -0.000153
     22          1           0       -4.579090    0.399332   -0.000464
 ---------------------------------------------------------------------

 SCF Done:  E(UB3LYP) =  -969.042594264     A.U. after   26 cycles

 The electronic state is 2-A.
 Alpha  occ. eigenvalues --  -88.75611 -18.93699 -14.15653 -14.14897 -10.10067
 Alpha  occ. eigenvalues --  -10.08274 -10.07653 -10.07252 -10.06658 -10.06528
 Alpha  occ. eigenvalues --  -10.06260 -10.04882 -10.04285 -10.03216  -7.84181
 Alpha  occ. eigenvalues --   -5.80464  -5.80094  -5.79796  -0.87623  -0.83402
 Alpha  occ. eigenvalues --   -0.76352  -0.73549  -0.66001  -0.64649  -0.60606
 Alpha  occ. eigenvalues --   -0.55751  -0.52987  -0.51143  -0.45841  -0.43166
 Alpha  occ. eigenvalues --   -0.41137  -0.37760  -0.35960  -0.33947  -0.31512
 Alpha  occ. eigenvalues --   -0.30601  -0.30406  -0.28799  -0.28189  -0.26999
 Alpha  occ. eigenvalues --   -0.26088  -0.25653  -0.25072  -0.24810  -0.23373
 Alpha  occ. eigenvalues --   -0.22517  -0.16998  -0.16080  -0.15769  -0.13240
 Alpha  occ. eigenvalues --   -0.10447  -0.09980  -0.08970   0.02137
 Alpha virt. eigenvalues --    0.07000   0.07765   0.09257   0.09372   0.11080
 Alpha virt. eigenvalues --    0.11754   0.12369   0.13194   0.13488   0.13611
 Alpha virt. eigenvalues --    0.13881   0.14936   0.15236   0.15614   0.16680

  Beta  occ. eigenvalues --  -88.75610 -18.93126 -14.15532 -14.14376 -10.10108
  Beta  occ. eigenvalues --  -10.08241 -10.07637 -10.07051 -10.06596 -10.06517
  Beta  occ. eigenvalues --  -10.06262 -10.04610 -10.04286 -10.03110  -7.84181
  Beta  occ. eigenvalues --   -5.80465  -5.80095  -5.79793  -0.86621  -0.82913
  Beta  occ. eigenvalues --   -0.76306  -0.72862  -0.65675  -0.64606  -0.60391
  Beta  occ. eigenvalues --   -0.55707  -0.52115  -0.50964  -0.45546  -0.42957
  Beta  occ. eigenvalues --   -0.40889  -0.37726  -0.35748  -0.33639  -0.31351
  Beta  occ. eigenvalues --   -0.30298  -0.30285  -0.28566  -0.27280  -0.26811
  Beta  occ. eigenvalues --   -0.25977  -0.25233  -0.24756  -0.24658  -0.22492
  Beta  occ. eigenvalues --   -0.20981  -0.15828  -0.15326  -0.14326  -0.13067
  Beta  occ. eigenvalues --   -0.10013  -0.09125  -0.08455
  Beta virt. eigenvalues --    0.07214   0.07761   0.09116   0.09248   0.09355
  Beta virt. eigenvalues --    0.11062   0.11745   0.12662   0.13178   0.13483
  Beta virt. eigenvalues --    0.13862   0.13932   0.15260   0.15355   0.15876

 Mulliken charges and spin densities:
               1          2
     1  C   -0.911132  -0.004225
     2  C   -0.003147   0.011271
     3  C    0.756590   0.008985
     4  S   -0.466354   0.003777
     5  C   -0.257742   0.023466
     6  C    0.015865   0.001659
     7  C   -0.825770  -0.037683
     8  N   -0.047575   0.249462
     9  C    0.161604   0.066378
    10  C   -0.723205   0.087769
    11  C    0.923234   0.205864
    12  N    0.009195   0.056173
    13  C   -0.327540   0.154965
    14  O   -0.349893   0.196189
    15  H    0.098568  -0.000482
    16  H    0.177196   0.003568
    17  H    0.177098   0.003571
    18  H    0.197279  -0.001737
    19  H    0.110442  -0.000030
    20  H    0.141962  -0.008305
    21  H    0.117382  -0.004507
    22  H    0.025945  -0.016128
 Sum of Mulliken charges =  -1.00000   1.00000

 Dipole moment (field-independent basis, Debye):
    X=              5.6745    Y=             -1.6671    Z=             -0.0007  Tot=              5.9143
 Quadrupole moment (field-independent basis, Debye-Ang):
   XX=           -121.5033   YY=           -110.5962   ZZ=            -96.0454
   XY=             16.4689   XZ=              0.0026   YZ=             -0.0016

 Summary of Natural Population Analysis:

                                       Natural Population
                Natural  -----------------------------------------------
    Atom  No    Charge         Core      Valence    Rydberg      Total
 -----------------------------------------------------------------------
      C    1   -0.29330      0.99963     2.28853    0.00514     3.29330
      C    2   -0.04171      0.99952     2.02938    0.01281     3.04171
      C    3   -0.05386      0.99934     2.04678    0.00774     3.05386
      S    4    0.21658      4.99946     2.75924    0.02473     7.78342
      C    5   -0.20699      0.99957     2.19246    0.01497     3.20699
      C    6   -0.13294      0.99950     2.12285    0.01059     3.13294
      C    7    0.15716      0.99958     1.81943    0.02383     2.84284
      N    8   -0.18409      0.99967     2.67328    0.01114     3.68409
      C    9    0.04340      0.99962     1.94214    0.01483     2.95660
      C   10   -0.11579      0.99952     2.10826    0.00800     3.11579
      C   11    0.11072      0.99952     1.87736    0.01241     2.88928
      N   12   -0.22126      0.99965     2.70815    0.01346     3.72126
      C   13    0.21984      0.99971     1.75903    0.02141     2.78016
      O   14   -0.21766      0.99988     3.20979    0.00800     4.21766
      H   15    0.08746      0.00000     0.41155    0.00099     0.41254
      H   16    0.11733      0.00000     0.38168    0.00099     0.38267
      H   17    0.11730      0.00000     0.38172    0.00099     0.38270
      H   18    0.10123      0.00000     0.39760    0.00116     0.39877
      H   19    0.09883      0.00000     0.40024    0.00093     0.40117
      H   20    0.07793      0.00000     0.42074    0.00134     0.42207
      H   21    0.09462      0.00000     0.40394    0.00145     0.40538
      H   22    0.02544      0.00000     0.47146    0.00310     0.47456
 =======================================================================
   * Total *    0.00024     17.99418    34.80559    0.19999    52.99976

 Normal termination of Gaussian 16 at Thu Dec 10 10:15:36 2020.
