 Gaussian 16, Revision A.03,

 -----------------------------------------------------------
 # opt freq B3LYP/6-31G(d) empiricaldispersion=gd3bj scf=xqc
 -----------------------------------------------------------

 ------------------------------
 CID_63013424_JID_5884_neutraal
 ------------------------------
 Symbolic Z-matrix:
 Charge =  0 Multiplicity = 1

 SCF Done:  E(RB3LYP) =  -650.236665325     A.U. after   14 cycles
 SCF Done:  E(RB3LYP) =  -650.241916408     A.U. after   12 cycles
 SCF Done:  E(RB3LYP) =  -650.241528654     A.U. after   13 cycles
 SCF Done:  E(RB3LYP) =  -650.242700331     A.U. after   11 cycles
 SCF Done:  E(RB3LYP) =  -650.242916373     A.U. after   11 cycles
 SCF Done:  E(RB3LYP) =  -650.242978014     A.U. after   11 cycles
 SCF Done:  E(RB3LYP) =  -650.243050759     A.U. after   10 cycles
 SCF Done:  E(RB3LYP) =  -650.243098197     A.U. after   11 cycles
 SCF Done:  E(RB3LYP) =  -650.243139470     A.U. after   11 cycles
 SCF Done:  E(RB3LYP) =  -650.243159475     A.U. after   10 cycles
 SCF Done:  E(RB3LYP) =  -650.243211999     A.U. after   11 cycles
 SCF Done:  E(RB3LYP) =  -650.243216360     A.U. after   10 cycles
 SCF Done:  E(RB3LYP) =  -650.243217420     A.U. after    9 cycles
 SCF Done:  E(RB3LYP) =  -650.243217235     A.U. after    9 cycles
 SCF Done:  E(RB3LYP) =  -650.243217469     A.U. after    9 cycles
 SCF Done:  E(RB3LYP) =  -650.243217511     A.U. after    7 cycles
 Optimization completed on the basis of negligible forces.
    -- Stationary point found.
 Normal termination of Gaussian 16 at Thu Dec 10 17:38:20 2020.

 --------------------------------------------------------------------
 #N Geom=AllCheck Guess=TCheck SCRF=Check GenChk RB3LYP/6-31G(d) Freq
 --------------------------------------------------------------------

 Structure from the checkpoint file:  "JID_5884.chk"
 ------------------------------
 CID_63013424_JID_5884_neutraal
 ------------------------------
 Charge =  0 Multiplicity = 1

 SCF Done:  E(RB3LYP) =  -650.243217511     A.U. after    1 cycles

  Exact polarizability: 151.057   9.427 139.124  13.266  -2.531 112.810
 Approx polarizability: 190.196  10.982 209.384  23.257 -10.635 182.396

                      1                      2                      3
                      A                      A                      A
 Frequencies --     20.1831                33.0469                60.9646
 Red. masses --      4.5492                 2.3617                 1.8689
 Frc consts  --      0.0011                 0.0015                 0.0041
 IR Inten    --      0.9955                 0.7796                 0.9825

                      4                      5                      6
                      A                      A                      A
 Frequencies --     65.9592               102.5135               104.3964
 Red. masses --      2.9443                 1.7052                 2.8078
 Frc consts  --      0.0075                 0.0106                 0.0180
 IR Inten    --      1.9929                 1.1240                 0.5188

                      7                      8                      9
                      A                      A                      A
 Frequencies --    120.0006               158.8544               192.3234
 Red. masses --      3.1488                 3.2529                 3.2097
 Frc consts  --      0.0267                 0.0484                 0.0699
 IR Inten    --      0.1076                 0.2579                 0.3867

                     10                     11                     12
                      A                      A                      A
 Frequencies --    251.0165               270.6940               288.4458
 Red. masses --      2.6938                 2.6385                 1.1418
 Frc consts  --      0.1000                 0.1139                 0.0560
 IR Inten    --      6.4420                 2.1355                 0.8822

                     13                     14                     15
                      A                      A                      A
 Frequencies --    301.5386               322.5018               360.0120
 Red. masses --      2.4017                 2.6577                 2.6486
 Frc consts  --      0.1287                 0.1629                 0.2023
 IR Inten    --      6.9831                 1.4761                 1.3194

                     16                     17                     18
                      A                      A                      A
 Frequencies --    405.4561               432.3129               456.7803
 Red. masses --      2.3520                 2.4386                 3.7409
 Frc consts  --      0.2278                 0.2685                 0.4599
 IR Inten    --      2.8889                 4.5840                 0.8869

                     19                     20                     21
                      A                      A                      A
 Frequencies --    491.1081               632.5242               634.9617
 Red. masses --      1.9807                 2.7790                 3.5183
 Frc consts  --      0.2815                 0.6551                 0.8357
 IR Inten    --      1.0013                 0.5830                 0.1318

                     22                     23                     24
                      A                      A                      A
 Frequencies --    654.6115               668.4952               700.6104
 Red. masses --      2.5461                 4.3904                 3.3721
 Frc consts  --      0.6428                 1.1560                 0.9752
 IR Inten    --      2.2403                 3.9279                15.8126

                     25                     26                     27
                      A                      A                      A
 Frequencies --    720.2447               812.3826               821.1413
 Red. masses --      1.4325                 1.6829                 4.5186
 Frc consts  --      0.4378                 0.6544                 1.7951
 IR Inten    --     17.8537                 4.1591                 4.4676

                     28                     29                     30
                      A                      A                      A
 Frequencies --    846.5003               857.9105               862.1700
 Red. masses --      1.3162                 2.7218                 2.3031
 Frc consts  --      0.5557                 1.1803                 1.0087
 IR Inten    --      6.3127                14.5924               109.2999

                     31                     32                     33
                      A                      A                      A
 Frequencies --    872.4000               916.4122               938.1168
 Red. masses --      2.1899                 1.7001                 5.5923
 Frc consts  --      0.9820                 0.8412                 2.8997
 IR Inten    --     25.2688                 2.3647                 3.6084

                     34                     35                     36
                      A                      A                      A
 Frequencies --    941.6156               961.4593               990.3207
 Red. masses --      2.8840                 2.2851                 1.8514
 Frc consts  --      1.5066                 1.2446                 1.0698
 IR Inten    --     30.9784                 7.7171                10.3956

                     37                     38                     39
                      A                      A                      A
 Frequencies --   1018.7734              1048.2866              1065.8415
 Red. masses --      2.1169                 1.3892                 1.9359
 Frc consts  --      1.2945                 0.8994                 1.2957
 IR Inten    --      1.7248                 9.2251                 9.7702

                     40                     41                     42
                      A                      A                      A
 Frequencies --   1073.1857              1079.5929              1096.1203
 Red. masses --      1.7774                 2.0128                 2.8171
 Frc consts  --      1.2061                 1.3822                 1.9942
 IR Inten    --     28.9454                20.5616                 3.9858

                     43                     44                     45
                      A                      A                      A
 Frequencies --   1112.7811              1117.6966              1153.9691
 Red. masses --      1.2412                 4.6684                 1.5266
 Frc consts  --      0.9056                 3.4361                 1.1978
 IR Inten    --      7.2661                22.6619                28.9442

                     46                     47                     48
                      A                      A                      A
 Frequencies --   1157.2972              1176.1711              1182.5734
 Red. masses --      1.3175                 1.6330                 1.8543
 Frc consts  --      1.0397                 1.3310                 1.5278
 IR Inten    --      7.2165                 6.5477                 5.6774

                     49                     50                     51
                      A                      A                      A
 Frequencies --   1218.4331              1228.9281              1245.7817
 Red. masses --      2.1329                 2.1517                 1.4419
 Frc consts  --      1.8656                 1.9147                 1.3184
 IR Inten    --      2.1836                 4.0826                 2.4216

                     52                     53                     54
                      A                      A                      A
 Frequencies --   1267.9948              1300.2511              1305.7119
 Red. masses --      1.4042                 1.3702                 1.3525
 Frc consts  --      1.3302                 1.3649                 1.3586
 IR Inten    --     14.2536                 4.9631                 3.0311

                     55                     56                     57
                      A                      A                      A
 Frequencies --   1313.8364              1323.1831              1341.4630
 Red. masses --      1.8294                 2.3950                 1.4180
 Frc consts  --      1.8606                 2.4705                 1.5034
 IR Inten    --     14.5930                31.6614                 2.5845

                     58                     59                     60
                      A                      A                      A
 Frequencies --   1350.4976              1359.8540              1384.1579
 Red. masses --      1.2839                 1.2855                 1.3287
 Frc consts  --      1.3796                 1.4006                 1.4998
 IR Inten    --      3.1661                 1.4924                 4.7819

                     61                     62                     63
                      A                      A                      A
 Frequencies --   1398.5368              1404.9974              1415.2786
 Red. masses --      2.2988                 1.6462                 1.3155
 Frc consts  --      2.6491                 1.9146                 1.5525
 IR Inten    --      0.3747                 9.8713                14.9011

                     64                     65                     66
                      A                      A                      A
 Frequencies --   1420.7879              1464.7006              1483.1692
 Red. masses --      1.6282                 1.5813                 1.1932
 Frc consts  --      1.9365                 1.9988                 1.5464
 IR Inten    --     30.4735                38.1377                 0.8057

                     67                     68                     69
                      A                      A                      A
 Frequencies --   1485.3940              1495.4149              1509.5949
 Red. masses --      1.1504                 2.2285                 1.0917
 Frc consts  --      1.4955                 2.9362                 1.4657
 IR Inten    --      5.7769                 3.4308                 3.3470

                     70                     71                     72
                      A                      A                      A
 Frequencies --   1512.9805              1515.8444              1521.4692
 Red. masses --      1.0920                 1.1084                 1.1053
 Frc consts  --      1.4728                 1.5005                 1.5076
 IR Inten    --     30.4375                 4.7137                 4.4177

                     73                     74                     75
                      A                      A                      A
 Frequencies --   1522.3305              1528.7739              1532.2095
 Red. masses --      1.0970                 1.4280                 1.4817
 Frc consts  --      1.4979                 1.9664                 2.0495
 IR Inten    --      0.0671                17.7496                16.8505

                     76                     77                     78
                      A                      A                      A
 Frequencies --   1536.1416              1538.1131              1547.4264
 Red. masses --      1.2011                 1.1075                 1.0717
 Frc consts  --      1.6698                 1.5437                 1.5119
 IR Inten    --      3.5943                 1.0294                 8.6053

                     79                     80                     81
                      A                      A                      A
 Frequencies --   1575.1231              2930.0499              2942.9998
 Red. masses --      4.3237                 1.0712                 1.0630
 Frc consts  --      6.3203                 5.4185                 5.4243
 IR Inten    --      4.2997                41.4034               115.9850

                     82                     83                     84
                      A                      A                      A
 Frequencies --   3027.0808              3031.3855              3045.7557
 Red. masses --      1.0678                 1.0697                 1.0754
 Frc consts  --      5.7649                 5.7913                 5.8780
 IR Inten    --     20.7698                11.7128                46.0907

                     85                     86                     87
                      A                      A                      A
 Frequencies --   3051.4552              3065.7457              3068.2409
 Red. masses --      1.0675                 1.0623                 1.0718
 Frc consts  --      5.8564                 5.8825                 5.9448
 IR Inten    --     53.7800                36.0674                32.7371

                     88                     89                     90
                      A                      A                      A
 Frequencies --   3068.9775              3072.1628              3082.6554
 Red. masses --      1.0372                 1.0841                 1.1006
 Frc consts  --      5.7556                 6.0284                 6.1619
 IR Inten    --     34.0505                37.5189                19.7314

                     91                     92                     93
                      A                      A                      A
 Frequencies --   3097.7647              3100.5383              3116.7726
 Red. masses --      1.0981                 1.1009                 1.1024
 Frc consts  --      6.2085                 6.2353                 6.3096
 IR Inten    --     26.4719                44.2366                34.8554

                     94                     95                     96
                      A                      A                      A
 Frequencies --   3119.8346              3136.5190              3162.5053
 Red. masses --      1.1033                 1.1009                 1.1041
 Frc consts  --      6.3272                 6.3810                 6.5064
 IR Inten    --     56.0660                18.6832                10.9045

                     97                     98                     99
                      A                      A                      A
 Frequencies --   3256.5395              3284.4520              3455.4469
 Red. masses --      1.0914                 1.1039                 1.0741
 Frc consts  --      6.8192                 7.0165                 7.5561
 IR Inten    --      9.1481                 5.8014                 3.6748

 - Thermochemistry -
 -------------------
 Temperature   298.150 Kelvin.  Pressure   1.00000 Atm.
 Atom     1 has atomic number  6 and mass  12.00000

 Molecular mass:   208.16880 amu.
 Principal axes and moments of inertia in atomic units:
                           1         2         3
     Eigenvalues --  1858.255974805.675845870.56393
           X            0.99988   0.01558  -0.00178
           Y           -0.01557   0.99988   0.00122
           Z            0.00180  -0.00119   1.00000
 This molecule is an asymmetric top.
 Rotational symmetry number  1.
 Warning -- assumption of classical behavior for rotation
           may cause significant error
 Rotational temperatures (Kelvin)      0.04661     0.01802     0.01475
 Rotational constants (GHZ):           0.97120     0.37554     0.30742
 Zero-point vibrational energy     823733.8 (Joules/Mol)
                                  196.87710 (Kcal/Mol)
 Warning -- explicit consideration of  19 degrees of freedom as
           vibrations may cause significant error
 Vibrational temperatures:     29.04    47.55    87.71    94.90   147.49
          (Kelvin)            150.20   172.65   228.56   276.71   361.16
                              389.47   415.01   433.85   464.01   517.98
                              583.36   622.00   657.20   706.60   910.06
                              913.57   941.84   961.82  1008.02  1036.27
                             1168.84  1181.44  1217.93  1234.34  1240.47
                             1255.19  1318.51  1349.74  1354.77  1383.33
                             1424.85  1465.79  1508.25  1533.51  1544.07
                             1553.29  1577.07  1601.04  1608.12  1660.30
                             1665.09  1692.25  1701.46  1753.05  1768.15
                             1792.40  1824.36  1870.77  1878.63  1890.32
                             1903.77  1930.07  1943.06  1956.53  1991.49
                             2012.18  2021.48  2036.27  2044.20  2107.38
                             2133.95  2137.15  2151.57  2171.97  2176.84
                             2180.96  2189.05  2190.29  2199.56  2204.51
                             2210.17  2213.00  2226.40  2266.25  4215.69
                             4234.32  4355.29  4361.49  4382.16  4390.36
                             4410.92  4414.51  4415.57  4420.16  4435.25
                             4456.99  4460.98  4484.34  4488.75  4512.75
                             4550.14  4685.43  4725.59  4971.62

 Zero-point correction=                           0.313744 (Hartree/Particle)
 Thermal correction to Energy=                    0.328839
 Thermal correction to Enthalpy=                  0.329783
 Thermal correction to Gibbs Free Energy=         0.269575
 Sum of electronic and zero-point Energies=           -649.929474
 Sum of electronic and thermal Energies=              -649.914379
 Sum of electronic and thermal Enthalpies=            -649.913435
 Sum of electronic and thermal Free Energies=         -649.973643

                     E (Thermal)             CV                S
                      KCal/Mol        Cal/Mol-Kelvin    Cal/Mol-Kelvin
 Total                  206.349             56.541            126.718
 Electronic               0.000              0.000              0.000
 Translational            0.889              2.981             41.903
 Rotational               0.889              2.981             32.328
 Vibrational            204.572             50.579             52.487
 Vibration     1          0.593              1.986              6.616
 Vibration     2          0.594              1.983              5.638
 Vibration     3          0.597              1.973              4.426
 Vibration     4          0.597              1.971              4.270
 Vibration     5          0.605              1.947              3.406
 Vibration     6          0.605              1.946              3.371
 Vibration     7          0.609              1.933              3.100
 Vibration     8          0.621              1.893              2.563
 Vibration     9          0.634              1.851              2.205
 Vibration    10          0.663              1.761              1.723
 Vibration    11          0.674              1.727              1.592
 Vibration    12          0.685              1.695              1.483
 Vibration    13          0.694              1.671              1.408
 Vibration    14          0.708              1.630              1.297
 Vibration    15          0.735              1.555              1.122
 Vibration    16          0.770              1.458              0.943
 Vibration    17          0.793              1.400              0.851
 Vibration    18          0.815              1.346              0.776
 Vibration    19          0.847              1.270              0.681

 Optimization completed on the basis of negligible forces.
    -- Stationary point found.
 Normal termination of Gaussian 16 at Thu Dec 10 17:50:27 2020.

 ----------------------------------------------------------------------
 # B3LYP/6-311++G(d,p) empiricaldispersion=gd3bj scf=xqc pop=npa geom=c
 heck
 ----------------------------------------------------------------------

 --------------------------------------
 CID_63013424_JID_5884_Energie_neutraal
 --------------------------------------
 Structure from the checkpoint file:  "JID_5884.chk"
 Charge =  0 Multiplicity = 1

 SCF Done:  E(RB3LYP) =  -650.423033991     A.U. after   15 cycles
 Normal termination of Gaussian 16 at Thu Dec 10 17:55:38 2020.

 ----------------------------------------------------------------------
 # B3LYP/6-311++G(d,p) empiricaldispersion=gd3bj scf=xqc pop=npa geom=c
 heck
 ----------------------------------------------------------------------

 ------------------------------------
 CID_63013424_JID_5884_Energie_kation
 ------------------------------------
 Structure from the checkpoint file:  "JID_5884.chk"
 Charge =  1 Multiplicity = 2

 SCF Done:  E(UB3LYP) =  -650.145872700     A.U. after   22 cycles
 Normal termination of Gaussian 16 at Thu Dec 10 18:05:52 2020.
 Gaussian 16:  ES64L-G16RevA.03 25-Dec-2016

 ----------------------------------------------------------------------
 # B3LYP/6-311++G(d,p) empiricaldispersion=gd3bj scf=xqc pop=npa geom=c
 heck
 ----------------------------------------------------------------------

 -----------------------------------
 CID_63013424_JID_5884_Energie_anion
 -----------------------------------
 Structure from the checkpoint file:  "JID_5884.chk"
 Charge = -1 Multiplicity = 2

                         Standard orientation:
 ---------------------------------------------------------------------
 Center     Atomic      Atomic             Coordinates (Angstroms)
 Number     Number       Type             X           Y           Z
 ---------------------------------------------------------------------
      1          6           0       -1.425729   -1.679067    1.490523
      2          7           0       -2.216591   -0.930538    0.528927
      3          6           0       -3.212037   -1.478529   -0.258470
      4          6           0       -3.670767   -0.452480   -1.045261
      5          7           0       -2.989874    0.707532   -0.766766
      6          6           0       -2.116374    0.399209    0.176131
      7          6           0       -1.133380    1.364986    0.766783
      8          7           0       -0.126805    1.810728   -0.193141
      9          6           0        0.692619    2.875362    0.352638
     10          6           0        0.612350    0.742973   -0.854822
     11          6           0        1.590588   -0.099378   -0.009908
     12          6           0        2.983392    0.535855    0.263004
     13          6           0        4.006854   -0.569319   -0.130973
     14          7           0        3.272758   -1.842918   -0.219780
     15          6           0        1.950559   -1.436333   -0.706936
     16          1           0       -2.017988   -2.519726    1.858944
     17          1           0       -0.505699   -2.065446    1.039544
     18          1           0       -1.163450   -1.045267    2.339397
     19          1           0       -3.491676   -2.517744   -0.168751
     20          1           0       -4.458534   -0.480152   -1.785952
     21          1           0       -1.685295    2.256444    1.086107
     22          1           0       -0.684581    0.934500    1.683096
     23          1           0        1.284807    2.584207    1.241632
     24          1           0        1.389822    3.229572   -0.413795
     25          1           0        0.049763    3.714986    0.641877
     26          1           0       -0.132588    0.076940   -1.305939
     27          1           0        1.169298    1.192084   -1.688561
     28          1           0        1.116149   -0.334566    0.951451
     29          1           0        3.088116    0.822823    1.314518
     30          1           0        3.136208    1.442965   -0.331188
     31          1           0        4.427561   -0.352540   -1.120634
     32          1           0        4.845033   -0.658984    0.566144
     33          1           0        3.159063   -2.208187    0.726548
     34          1           0        1.211274   -2.227594   -0.542368
     35          1           0        2.017863   -1.277620   -1.793009
 ---------------------------------------------------------------------

 SCF Done:  E(UB3LYP) =  -650.416159925     A.U. after   31 cycles

 The electronic state is 2-A.
 Alpha  occ. eigenvalues --  -14.27656 -14.21042 -14.19655 -14.19436 -10.12962
 Alpha  occ. eigenvalues --  -10.11105 -10.10918 -10.10089 -10.09581 -10.09552
 Alpha  occ. eigenvalues --  -10.09175 -10.09060 -10.08854 -10.07090 -10.06565
 Alpha  occ. eigenvalues --   -0.92261  -0.83343  -0.81825  -0.78950  -0.68299
 Alpha  occ. eigenvalues --   -0.66981  -0.63065  -0.62697  -0.59963  -0.59246
 Alpha  occ. eigenvalues --   -0.51467  -0.50479  -0.50255  -0.47158  -0.45296
 Alpha  occ. eigenvalues --   -0.42377  -0.41377  -0.39196  -0.38609  -0.36897
 Alpha  occ. eigenvalues --   -0.36522  -0.35583  -0.33812  -0.33450  -0.32898
 Alpha  occ. eigenvalues --   -0.32319  -0.30525  -0.30100  -0.29524  -0.28922
 Alpha  occ. eigenvalues --   -0.28022  -0.27483  -0.27225  -0.25851  -0.24629
 Alpha  occ. eigenvalues --   -0.22792  -0.22255  -0.17713  -0.17643  -0.14010
 Alpha  occ. eigenvalues --   -0.13461  -0.11591   0.04028
 Alpha virt. eigenvalues --    0.06460   0.07239   0.07575   0.08462   0.08857
 Alpha virt. eigenvalues --    0.09169   0.09737   0.10077   0.10713   0.11127
 Alpha virt. eigenvalues --    0.11298   0.11648   0.12284   0.13188   0.13331

  Beta  occ. eigenvalues --  -14.27652 -14.21039 -14.19632 -14.19436 -10.12960
  Beta  occ. eigenvalues --  -10.11029 -10.10901 -10.10075 -10.09578 -10.09541
  Beta  occ. eigenvalues --  -10.09162 -10.09044 -10.08853 -10.07076 -10.06547
  Beta  occ. eigenvalues --   -0.92252  -0.83330  -0.81785  -0.78937  -0.68271
  Beta  occ. eigenvalues --   -0.66957  -0.63025  -0.62623  -0.59929  -0.59212
  Beta  occ. eigenvalues --   -0.51443  -0.50418  -0.50231  -0.47119  -0.45236
  Beta  occ. eigenvalues --   -0.42326  -0.41314  -0.39164  -0.38586  -0.36869
  Beta  occ. eigenvalues --   -0.36487  -0.35549  -0.33766  -0.33423  -0.32853
  Beta  occ. eigenvalues --   -0.32295  -0.30469  -0.30070  -0.29501  -0.28904
  Beta  occ. eigenvalues --   -0.28004  -0.27447  -0.27206  -0.25817  -0.24600
  Beta  occ. eigenvalues --   -0.22764  -0.22217  -0.17698  -0.17638  -0.13980
  Beta  occ. eigenvalues --   -0.13453  -0.11570
  Beta virt. eigenvalues --    0.06463   0.07219   0.07773   0.07889   0.08852
  Beta virt. eigenvalues --    0.09128   0.09612   0.10029   0.10524   0.10752
  Beta virt. eigenvalues --    0.11205   0.11693   0.12016   0.12628   0.13343

 Mulliken charges and spin densities:
               1          2
     1  C    1.497207  -1.851001
     2  N   -0.076738   0.223194
     3  C   -0.083689   0.041000
     4  C    0.118553  -0.130963
     5  N   -0.114647   0.026583
     6  C   -1.621922   1.179226
     7  C    1.195336  -1.774746
     8  N    0.344256   0.044804
     9  C    0.101032  -0.326019
    10  C   -1.400159   0.127922
    11  C   -0.256568   1.177125
    12  C    0.326068  -0.575129
    13  C    0.287337  -0.905139
    14  N   -0.123488   0.128024
    15  C    0.218465  -1.128400
    16  H   -0.720223   0.910163
    17  H   -0.387887   0.626112
    18  H   -0.758684   0.921100
    19  H   -0.403323   0.560194
    20  H    0.113786   0.034329
    21  H    0.083045   0.062714
    22  H    0.148535  -0.032216
    23  H   -0.068370   0.210305
    24  H    0.129986  -0.003854
    25  H   -0.028406   0.182796
    26  H    0.304178  -0.078025
    27  H    0.064175   0.093143
    28  H    0.378479  -0.177697
    29  H   -0.368186   0.526079
    30  H    0.112120   0.015136
    31  H    0.115329   0.036279
    32  H   -0.165232   0.336665
    33  H   -0.176814   0.419863
    34  H    0.127393   0.020311
    35  H    0.089056   0.080120
 Sum of Mulliken charges =  -1.00000   1.00000

 Dipole moment (field-independent basis, Debye):
    X=             -0.7208    Y=              4.8118    Z=             -5.2453  Tot=              7.1544
 Quadrupole moment (field-independent basis, Debye-Ang):
   XX=           -155.7347   YY=           -144.9932   ZZ=           -135.5075
   XY=              6.7133   XZ=             -4.4043   YZ=             11.1439

 Summary of Natural Population Analysis:

                                       Natural Population
                Natural  -----------------------------------------------
    Atom  No    Charge         Core      Valence    Rydberg      Total
 -----------------------------------------------------------------------
      C    1   -0.17497      0.99963     2.16642    0.00892     3.17497
      N    2   -0.20481      0.99962     2.69414    0.01105     3.70481
      C    3   -0.03560      0.99954     2.02443    0.01163     3.03560
      C    4   -0.03761      0.99958     2.02440    0.01363     3.03761
      N    5   -0.25477      0.99969     2.74616    0.00892     3.75477
      C    6    0.18638      0.99959     1.79555    0.01848     2.81362
      C    7   -0.10565      0.99957     2.09387    0.01221     3.10565
      N    8   -0.26991      0.99972     2.75878    0.01141     3.76991
      C    9   -0.17708      0.99965     2.16940    0.00804     3.17708
      C   10   -0.07856      0.99959     2.06848    0.01049     3.07856
      C   11   -0.14093      0.99959     2.13021    0.01114     3.14093
      C   12   -0.20177      0.99963     2.19358    0.00856     3.20177
      C   13   -0.09093      0.99965     2.08006    0.01122     3.09093
      N   14   -0.33415      0.99977     2.82180    0.01258     3.83415
      C   15   -0.08633      0.99962     2.07519    0.01152     3.08633
      H   16    0.10597      0.00000     0.39104    0.00299     0.39403
      H   17    0.10149      0.00000     0.39590    0.00261     0.39851
      H   18    0.10664      0.00000     0.39065    0.00270     0.39336
      H   19    0.10446      0.00000     0.39460    0.00095     0.39554
      H   20    0.09397      0.00000     0.40520    0.00082     0.40603
      H   21    0.10560      0.00000     0.39302    0.00138     0.39440
      H   22    0.09003      0.00000     0.40821    0.00176     0.40997
      H   23    0.08377      0.00000     0.41493    0.00130     0.41623
      H   24    0.09400      0.00000     0.40518    0.00082     0.40600
      H   25    0.09259      0.00000     0.40654    0.00087     0.40741
      H   26    0.10023      0.00000     0.39847    0.00131     0.39977
      H   27    0.09220      0.00000     0.40677    0.00104     0.40780
      H   28    0.10068      0.00000     0.39524    0.00407     0.39932
      H   29    0.10279      0.00000     0.39540    0.00182     0.39721
      H   30    0.09455      0.00000     0.40432    0.00113     0.40545
      H   31    0.08438      0.00000     0.41433    0.00129     0.41562
      H   32    0.09644      0.00000     0.40253    0.00103     0.40356
      H   33    0.17278      0.00000     0.32316    0.00406     0.32722
      H   34    0.09903      0.00000     0.39984    0.00112     0.40097
      H   35    0.08511      0.00000     0.41376    0.00114     0.41489
 =======================================================================
   * Total *    0.00000     14.99443    41.80157    0.20401    57.00000

 Normal termination of Gaussian 16 at Thu Dec 10 18:20:57 2020.
