 Gaussian 16, Revision A.03,

 -----------------------------------------------------------
 # opt freq B3LYP/6-31G(d) empiricaldispersion=gd3bj scf=xqc
 -----------------------------------------------------------

 -------------------------------
 CID_130119062_JID_3294_neutraal
 -------------------------------
 Symbolic Z-matrix:
 Charge =  0 Multiplicity = 1

 SCF Done:  E(RB3LYP) =  -607.766138729     A.U. after   15 cycles
 SCF Done:  E(RB3LYP) =  -607.770969223     A.U. after   13 cycles
 SCF Done:  E(RB3LYP) =  -607.771915206     A.U. after   12 cycles
 SCF Done:  E(RB3LYP) =  -607.772633912     A.U. after   12 cycles
 SCF Done:  E(RB3LYP) =  -607.773287157     A.U. after   13 cycles
 SCF Done:  E(RB3LYP) =  -607.773616704     A.U. after   12 cycles
 SCF Done:  E(RB3LYP) =  -607.773688771     A.U. after   12 cycles
 SCF Done:  E(RB3LYP) =  -607.773794733     A.U. after   11 cycles
 SCF Done:  E(RB3LYP) =  -607.773801134     A.U. after    9 cycles
 SCF Done:  E(RB3LYP) =  -607.773802717     A.U. after    9 cycles
 SCF Done:  E(RB3LYP) =  -607.773803132     A.U. after    8 cycles
 Optimization completed.
    -- Stationary point found.
 Normal termination of Gaussian 16 at Wed Dec  9 22:46:09 2020.

 --------------------------------------------------------------------
 #N Geom=AllCheck Guess=TCheck SCRF=Check GenChk RB3LYP/6-31G(d) Freq
 --------------------------------------------------------------------

 Structure from the checkpoint file:  "JID_3294.chk"
 -------------------------------
 CID_130119062_JID_3294_neutraal
 -------------------------------
 Charge =  0 Multiplicity = 1

 SCF Done:  E(RB3LYP) =  -607.773803132     A.U. after    1 cycles

  Exact polarizability: 172.559  12.523 119.417  -2.477   1.762  47.535
 Approx polarizability: 284.164  32.580 210.225  -5.093   4.448  73.630

                      1                      2                      3
                      A                      A                      A
 Frequencies --     65.1878                82.8195               115.4436
 Red. masses --      3.6976                 6.9631                 3.6636
 Frc consts  --      0.0093                 0.0281                 0.0288
 IR Inten    --      3.9586                 2.7336                 0.2205

                      4                      5                      6
                      A                      A                      A
 Frequencies --    162.4650               238.2335               258.9917
 Red. masses --      6.0788                 3.7867                 5.1652
 Frc consts  --      0.0945                 0.1266                 0.2041
 IR Inten    --      2.1002                 6.2430                 0.3489

                      7                      8                      9
                      A                      A                      A
 Frequencies --    307.6951               372.4484               409.3605
 Red. masses --      6.0488                 1.3166                 4.8473
 Frc consts  --      0.3374                 0.1076                 0.4786
 IR Inten    --      2.2045               161.5175                12.7881

                     10                     11                     12
                      A                      A                      A
 Frequencies --    427.1470               464.3142               469.5258
 Red. masses --      2.8119                 2.6973                 6.6071
 Frc consts  --      0.3023                 0.3426                 0.8582
 IR Inten    --     10.8882                 8.7293                 4.4239

                     13                     14                     15
                      A                      A                      A
 Frequencies --    509.5049               565.3307               609.8828
 Red. masses --      6.1547                 5.2922                 4.2105
 Frc consts  --      0.9414                 0.9965                 0.9227
 IR Inten    --     14.4435                 3.2756                 8.5330

                     16                     17                     18
                      A                      A                      A
 Frequencies --    648.6637               653.2141               717.5739
 Red. masses --      1.2857                 6.7954                 5.9571
 Frc consts  --      0.3187                 1.7083                 1.8073
 IR Inten    --     49.6640                 7.7495                 7.3731

                     19                     20                     21
                      A                      A                      A
 Frequencies --    743.2327               787.3619               795.4725
 Red. masses --      4.0282                 4.9208                 6.2483
 Frc consts  --      1.3110                 1.7974                 2.3295
 IR Inten    --     16.2171                46.2255                 3.4166

                     22                     23                     24
                      A                      A                      A
 Frequencies --    819.9852               850.9789               896.4785
 Red. masses --      1.5393                 4.7399                 1.3507
 Frc consts  --      0.6098                 2.0224                 0.6396
 IR Inten    --     12.1945                 8.3141                13.1556

                     25                     26                     27
                      A                      A                      A
 Frequencies --    926.3239               954.7341               987.0356
 Red. masses --      4.4477                 1.2908                 1.9592
 Frc consts  --      2.2486                 0.6932                 1.1246
 IR Inten    --     13.3364                 0.9279                20.9407

                     28                     29                     30
                      A                      A                      A
 Frequencies --    997.4261              1008.6885              1086.5843
 Red. masses --      1.4995                 2.2680                 5.9193
 Frc consts  --      0.8789                 1.3596                 4.1176
 IR Inten    --      5.4301                12.0154                68.6383

                     31                     32                     33
                      A                      A                      A
 Frequencies --   1162.1569              1182.3202              1187.4185
 Red. masses --      2.4217                 2.1386                 1.9079
 Frc consts  --      1.9271                 1.7614                 1.5850
 IR Inten    --      7.4094                14.7994                45.8258

                     34                     35                     36
                      A                      A                      A
 Frequencies --   1219.4765              1268.0504              1291.3292
 Red. masses --      1.1065                 2.1960                 1.5172
 Frc consts  --      0.9695                 2.0805                 1.4906
 IR Inten    --     18.2334                60.4229                22.3007

                     37                     38                     39
                      A                      A                      A
 Frequencies --   1316.5459              1371.1023              1404.7011
 Red. masses --      3.2172                 1.6140                 3.3955
 Frc consts  --      3.2855                 1.7877                 3.9474
 IR Inten    --      0.8820                17.0270                 0.2738

                     40                     41                     42
                      A                      A                      A
 Frequencies --   1412.7476              1427.2459              1450.8804
 Red. masses --      1.5385                 1.3357                 1.7686
 Frc consts  --      1.8092                 1.6030                 2.1935
 IR Inten    --     14.7135                75.8121                 2.7169

                     43                     44                     45
                      A                      A                      A
 Frequencies --   1501.5268              1520.5415              1556.7086
 Red. masses --      4.2900                 1.1049                 2.7608
 Frc consts  --      5.6987                 1.5051                 3.9419
 IR Inten    --     39.2718                 2.0623                 3.5861

                     46                     47                     48
                      A                      A                      A
 Frequencies --   1611.8880              1669.6279              1689.3052
 Red. masses --      6.3281                 6.8065                 6.7969
 Frc consts  --      9.6871                11.1793                11.4282
 IR Inten    --     75.3688                34.9794               336.8179

                     49                     50                     51
                      A                      A                      A
 Frequencies --   1817.7805              3008.7432              3081.5993
 Red. masses --      9.7242                 1.0698                 1.0933
 Frc consts  --     18.9317                 5.7059                 6.1171
 IR Inten    --    727.2081                49.2205                17.7493

                     52                     53                     54
                      A                      A                      A
 Frequencies --   3126.2188              3186.9562              3202.7420
 Red. masses --      1.0899                 1.0869                 1.0951
 Frc consts  --      6.2761                 6.5039                 6.6181
 IR Inten    --     31.4098                 4.2260                16.8801

                     55                     56                     57
                      A                      A                      A
 Frequencies --   3209.0017              3595.8764              3733.0193
 Red. masses --      1.0903                 1.0773                 1.0661
 Frc consts  --      6.6153                 8.2071                 8.7535
 IR Inten    --      1.1224                35.1101                15.6230

 - Thermochemistry -
 -------------------
 Temperature   298.150 Kelvin.  Pressure   1.00000 Atm.
 Atom     1 has atomic number  6 and mass  12.00000

 Molecular mass:   176.05858 amu.
 Principal axes and moments of inertia in atomic units:
                           1         2         3
     Eigenvalues --   989.321243689.044604643.84650
           X            0.99999  -0.00416   0.00050
           Y            0.00416   0.99999  -0.00084
           Z           -0.00050   0.00085   1.00000
 This molecule is an asymmetric top.
 Rotational symmetry number  1.
 Warning -- assumption of classical behavior for rotation
           may cause significant error
 Rotational temperatures (Kelvin)      0.08755     0.02348     0.01865
 Rotational constants (GHZ):           1.82422     0.48922     0.38863
 Zero-point vibrational energy     425497.4 (Joules/Mol)
                                  101.69633 (Kcal/Mol)
 Warning -- explicit consideration of  15 degrees of freedom as
           vibrations may cause significant error
 Vibrational temperatures:     93.79   119.16   166.10   233.75   342.76
          (Kelvin)            372.63   442.70   535.87   588.98   614.57
                              668.04   675.54   733.06   813.38   877.49
                              933.28   939.83  1032.43  1069.35  1132.84
                             1144.51  1179.78  1224.37  1289.83  1332.77
                             1373.65  1420.12  1435.07  1451.28  1563.35
                             1672.08  1701.10  1708.43  1754.55  1824.44
                             1857.93  1894.22  1972.71  2021.05  2032.63
                             2053.49  2087.49  2160.36  2187.72  2239.76
                             2319.15  2402.22  2430.53  2615.38  4328.91
                             4433.73  4497.93  4585.32  4608.03  4617.04
                             5173.66  5370.98

 Zero-point correction=                           0.162063 (Hartree/Particle)
 Thermal correction to Energy=                    0.172374
 Thermal correction to Enthalpy=                  0.173318
 Thermal correction to Gibbs Free Energy=         0.125603
 Sum of electronic and zero-point Energies=           -607.611740
 Sum of electronic and thermal Energies=              -607.601429
 Sum of electronic and thermal Enthalpies=            -607.600485
 Sum of electronic and thermal Free Energies=         -607.648200

                     E (Thermal)             CV                S
                      KCal/Mol        Cal/Mol-Kelvin    Cal/Mol-Kelvin
 Total                  108.166             40.213            100.423
 Electronic               0.000              0.000              0.000
 Translational            0.889              2.981             41.404
 Rotational               0.889              2.981             31.206
 Vibrational            106.389             34.252             27.814
 Vibration     1          0.597              1.971              4.294
 Vibration     2          0.600              1.961              3.823
 Vibration     3          0.608              1.937              3.175
 Vibration     4          0.623              1.888              2.521
 Vibration     5          0.656              1.782              1.816
 Vibration     6          0.668              1.748              1.669
 Vibration     7          0.698              1.659              1.375
 Vibration     8          0.744              1.529              1.070
 Vibration     9          0.774              1.450              0.929
 Vibration    10          0.789              1.411              0.868
 Vibration    11          0.822              1.329              0.754
 Vibration    12          0.827              1.318              0.739
 Vibration    13          0.865              1.229              0.635
 Vibration    14          0.921              1.106              0.513
 Vibration    15          0.969              1.011              0.433

 Optimization completed.
    -- Stationary point found.
 Normal termination of Gaussian 16 at Wed Dec  9 22:50:31 2020.

 ----------------------------------------------------------------------
 # B3LYP/6-311++G(d,p) empiricaldispersion=gd3bj scf=xqc pop=npa geom=c
 heck
 ----------------------------------------------------------------------

 ---------------------------------------
 CID_130119062_JID_3294_Energie_neutraal
 ---------------------------------------
 Structure from the checkpoint file:  "JID_3294.chk"
 Charge =  0 Multiplicity = 1

 SCF Done:  E(RB3LYP) =  -607.950023260     A.U. after   15 cycles
 Normal termination of Gaussian 16 at Wed Dec  9 22:51:59 2020.

 ----------------------------------------------------------------------
 # B3LYP/6-311++G(d,p) empiricaldispersion=gd3bj scf=xqc pop=npa geom=c
 heck
 ----------------------------------------------------------------------

 -------------------------------------
 CID_130119062_JID_3294_Energie_kation
 -------------------------------------
 Structure from the checkpoint file:  "JID_3294.chk"
 Charge =  1 Multiplicity = 2

 SCF Done:  E(UB3LYP) =  -607.635019855     A.U. after   25 cycles
 Normal termination of Gaussian 16 at Wed Dec  9 22:55:40 2020.
 Gaussian 16:  ES64L-G16RevA.03 25-Dec-2016

 ----------------------------------------------------------------------
 # B3LYP/6-311++G(d,p) empiricaldispersion=gd3bj scf=xqc pop=npa geom=c
 heck
 ----------------------------------------------------------------------

 ------------------------------------
 CID_130119062_JID_3294_Energie_anion
 ------------------------------------
 Structure from the checkpoint file:  "JID_3294.chk"
 Charge = -1 Multiplicity = 2

                         Standard orientation:
 ---------------------------------------------------------------------
 Center     Atomic      Atomic             Coordinates (Angstroms)
 Number     Number       Type             X           Y           Z
 ---------------------------------------------------------------------
      1          6           0        1.756182    1.593523   -0.015094
      2          6           0        0.444495    2.029452    0.038518
      3          6           0       -0.611843    1.102878    0.023181
      4          6           0       -0.319789   -0.276067   -0.051404
      5          6           0        1.010506   -0.715949   -0.111077
      6          6           0        2.042261    0.214560   -0.094458
      7          6           0        3.481778   -0.252752   -0.187295
      8          8           0        3.678336   -1.596229    0.220402
      9          7           0       -1.391688   -1.133713   -0.062016
     10          6           0       -2.742993   -0.747563   -0.004685
     11          8           0       -3.616678   -1.593187   -0.022028
     12          7           0       -3.001280    0.631458    0.071933
     13          6           0       -2.004467    1.459729    0.083069
     14          1           0        2.572671    2.309894    0.007456
     15          1           0        0.214618    3.089856    0.101875
     16          1           0        1.243569   -1.774359   -0.173198
     17          1           0        3.810453   -0.217496   -1.232666
     18          1           0        4.128977    0.440239    0.372600
     19          1           0        3.444569   -1.652523    1.160689
     20          1           0       -1.240193   -2.133657   -0.120835
     21          1           0       -2.253925    2.522291    0.143129
 ---------------------------------------------------------------------

 SCF Done:  E(UB3LYP) =  -607.976460080     A.U. after   25 cycles

 The electronic state is 2-A.
 Alpha  occ. eigenvalues --  -19.02396 -18.93249 -14.20935 -14.12989 -10.13580
 Alpha  occ. eigenvalues --  -10.11034 -10.08345 -10.04442 -10.03920 -10.03871
 Alpha  occ. eigenvalues --  -10.03372 -10.03238 -10.03154  -0.92526  -0.89934
 Alpha  occ. eigenvalues --   -0.81445  -0.74667  -0.71671  -0.64059  -0.61034
 Alpha  occ. eigenvalues --   -0.56986  -0.50749  -0.49248  -0.48529  -0.41508
 Alpha  occ. eigenvalues --   -0.40601  -0.38638  -0.36786  -0.34160  -0.33617
 Alpha  occ. eigenvalues --   -0.31018  -0.30518  -0.29815  -0.29387  -0.26627
 Alpha  occ. eigenvalues --   -0.25765  -0.24231  -0.23171  -0.21387  -0.19444
 Alpha  occ. eigenvalues --   -0.18291  -0.16891  -0.12398  -0.11834  -0.10238
 Alpha  occ. eigenvalues --   -0.08668   0.03523
 Alpha virt. eigenvalues --    0.07597   0.09038   0.10060   0.10328   0.11389
 Alpha virt. eigenvalues --    0.11736   0.12484   0.13683   0.14382   0.15133
 Alpha virt. eigenvalues --    0.15641   0.16657   0.17061   0.17438   0.18550

  Beta  occ. eigenvalues --  -19.02377 -18.93153 -14.20815 -14.12610 -10.13544
  Beta  occ. eigenvalues --  -10.11060 -10.08261 -10.04050 -10.04024 -10.03540
  Beta  occ. eigenvalues --  -10.03276 -10.03099 -10.03060  -0.92474  -0.89713
  Beta  occ. eigenvalues --   -0.81186  -0.73907  -0.71307  -0.63612  -0.60722
  Beta  occ. eigenvalues --   -0.56743  -0.50157  -0.49161  -0.48043  -0.41340
  Beta  occ. eigenvalues --   -0.40450  -0.38399  -0.36482  -0.33989  -0.33367
  Beta  occ. eigenvalues --   -0.30845  -0.29713  -0.29650  -0.29175  -0.26451
  Beta  occ. eigenvalues --   -0.25574  -0.23730  -0.22735  -0.21239  -0.18074
  Beta  occ. eigenvalues --   -0.17763  -0.15745  -0.12155  -0.10166  -0.09843
  Beta  occ. eigenvalues --   -0.07816
  Beta virt. eigenvalues --    0.07491   0.08968   0.09622   0.10136   0.10485
  Beta virt. eigenvalues --    0.11457   0.12068   0.12749   0.14307   0.14476
  Beta virt. eigenvalues --    0.15105   0.15626   0.16745   0.17333   0.17561

 Mulliken charges and spin densities:
               1          2
     1  C   -0.621889  -0.109160
     2  C   -1.166520   0.239087
     3  C    1.859192   0.007509
     4  C   -0.389151   0.057469
     5  C   -0.910243   0.029338
     6  C    0.452574   0.291256
     7  C   -0.167919  -0.114154
     8  O   -0.251328  -0.012565
     9  N   -0.325702   0.048120
    10  C    0.250308   0.024004
    11  O   -0.403802   0.034128
    12  N   -0.270843   0.176156
    13  C   -0.186392   0.249797
    14  H    0.097485   0.004204
    15  H    0.076182  -0.015528
    16  H    0.097856   0.007103
    17  H    0.100043   0.074142
    18  H    0.138752   0.006067
    19  H    0.204137   0.029447
    20  H    0.287211  -0.001382
    21  H    0.130048  -0.025037
 Sum of Mulliken charges =  -1.00000   1.00000

 Dipole moment (field-independent basis, Debye):
    X=              7.6295    Y=              0.9719    Z=              0.8384  Tot=              7.7367
 Quadrupole moment (field-independent basis, Debye-Ang):
   XX=           -138.9129   YY=            -87.6088   ZZ=            -80.8204
   XY=             -1.1953   XZ=              3.8140   YZ=             -1.8709

 Summary of Natural Population Analysis:

                                       Natural Population
                Natural  -----------------------------------------------
    Atom  No    Charge         Core      Valence    Rydberg      Total
 -----------------------------------------------------------------------
      C    1   -0.15610      0.99954     2.14765    0.00891     3.15610
      C    2   -0.01952      0.99955     2.01121    0.00876     3.01952
      C    3   -0.08569      0.99948     2.07879    0.00743     3.08569
      C    4    0.12531      0.99948     1.86541    0.00980     2.87469
      C    5   -0.13253      0.99949     2.12393    0.00911     3.13253
      C    6    0.03745      0.99951     1.95456    0.00847     2.96255
      C    7   -0.01342      0.99956     2.00139    0.01247     3.01342
      O    8   -0.36939      0.99990     3.36239    0.00710     4.36939
      N    9   -0.29060      0.99963     2.78042    0.01055     3.79060
      C   10    0.39748      0.99971     1.57867    0.02415     2.60252
      O   11   -0.32926      0.99987     3.32228    0.00712     4.32926
      N   12   -0.22534      0.99966     2.71372    0.01195     3.72534
      C   13    0.13670      0.99961     1.84825    0.01544     2.86330
      H   14    0.09041      0.00000     0.40840    0.00119     0.40959
      H   15    0.08784      0.00000     0.41029    0.00187     0.41216
      H   16    0.09821      0.00000     0.39993    0.00186     0.40179
      H   17    0.08894      0.00000     0.40929    0.00177     0.41106
      H   18    0.07476      0.00000     0.42379    0.00145     0.42524
      H   19    0.22410      0.00000     0.27221    0.00369     0.27590
      H   20    0.19088      0.00000     0.30719    0.00193     0.30912
      H   21    0.06977      0.00000     0.42830    0.00194     0.43023
 =======================================================================
   * Total *    0.00000     12.99499    32.84807    0.15694    46.00000

 Normal termination of Gaussian 16 at Wed Dec  9 22:59:48 2020.
