 Gaussian 16, Revision A.03,

 -----------------------------------------------------------
 # opt freq B3LYP/6-31G(d) empiricaldispersion=gd3bj scf=xqc
 -----------------------------------------------------------

 ------------------------------
 CID_83626019_JID_1360_neutraal
 ------------------------------
 Symbolic Z-matrix:
 Charge =  0 Multiplicity = 1

 SCF Done:  E(RB3LYP) =  -499.220761257     A.U. after   14 cycles
 SCF Done:  E(RB3LYP) =  -499.222607628     A.U. after   13 cycles
 SCF Done:  E(RB3LYP) =  -499.222862621     A.U. after   12 cycles
 SCF Done:  E(RB3LYP) =  -499.223907553     A.U. after   12 cycles
 SCF Done:  E(RB3LYP) =  -499.224445822     A.U. after   11 cycles
 SCF Done:  E(RB3LYP) =  -499.224515581     A.U. after   10 cycles
 SCF Done:  E(RB3LYP) =  -499.224533237     A.U. after   11 cycles
 SCF Done:  E(RB3LYP) =  -499.224545810     A.U. after    9 cycles
 SCF Done:  E(RB3LYP) =  -499.224552604     A.U. after    9 cycles
 SCF Done:  E(RB3LYP) =  -499.224556600     A.U. after    9 cycles
 SCF Done:  E(RB3LYP) =  -499.224566266     A.U. after    9 cycles
 SCF Done:  E(RB3LYP) =  -499.224579778     A.U. after   10 cycles
 SCF Done:  E(RB3LYP) =  -499.224587661     A.U. after    9 cycles
 SCF Done:  E(RB3LYP) =  -499.224590874     A.U. after    9 cycles
 SCF Done:  E(RB3LYP) =  -499.224591031     A.U. after    7 cycles
 SCF Done:  E(RB3LYP) =  -499.224591062     A.U. after    6 cycles
 Optimization completed.
    -- Stationary point found.
 Normal termination of Gaussian 16 at Tue Dec  8 19:52:06 2020.

 --------------------------------------------------------------------
 #N Geom=AllCheck Guess=TCheck SCRF=Check GenChk RB3LYP/6-31G(d) Freq
 --------------------------------------------------------------------

 Structure from the checkpoint file:  "JID_1360.chk"
 ------------------------------
 CID_83626019_JID_1360_neutraal
 ------------------------------
 Charge =  0 Multiplicity = 1

 SCF Done:  E(RB3LYP) =  -499.224591062     A.U. after    1 cycles

  Exact polarizability: 105.954  -5.308  92.485  -3.043   2.416  89.913
 Approx polarizability: 136.064  -8.785 127.205 -10.647   5.750 143.621

                      1                      2                      3
                      A                      A                      A
 Frequencies --     24.4617                37.3391                54.4132
 Red. masses --      6.4240                 2.7370                 3.2917
 Frc consts  --      0.0023                 0.0022                 0.0057
 IR Inten    --      2.3758                 1.5671                 1.1816

                      4                      5                      6
                      A                      A                      A
 Frequencies --     90.7749               111.2945               190.0776
 Red. masses --      2.8582                 3.6048                 3.2833
 Frc consts  --      0.0139                 0.0263                 0.0699
 IR Inten    --      1.0605                 1.5665                 0.6642

                      7                      8                      9
                      A                      A                      A
 Frequencies --    230.7919               251.2749               270.4484
 Red. masses --      2.5039                 1.2030                 1.5281
 Frc consts  --      0.0786                 0.0448                 0.0659
 IR Inten    --      0.6880                 0.4059                22.8052

                     10                     11                     12
                      A                      A                      A
 Frequencies --    275.0392               308.9628               334.7517
 Red. masses --      2.8308                 1.9982                 2.5274
 Frc consts  --      0.1262                 0.1124                 0.1669
 IR Inten    --      0.4106                27.5270                17.3756

                     13                     14                     15
                      A                      A                      A
 Frequencies --    379.5624               468.1303               491.9086
 Red. masses --      2.0195                 2.6171                 2.5715
 Frc consts  --      0.1714                 0.3379                 0.3666
 IR Inten    --      0.5287                 0.4656                 2.6125

                     16                     17                     18
                      A                      A                      A
 Frequencies --    531.9031               625.4345               648.7766
 Red. masses --      3.2125                 2.4937                 1.6555
 Frc consts  --      0.5355                 0.5747                 0.4106
 IR Inten    --     22.4441                 9.9631                55.5385

                     19                     20                     21
                      A                      A                      A
 Frequencies --    715.6285               748.5864               795.3119
 Red. masses --      2.2897                 2.9198                 1.1144
 Frc consts  --      0.6909                 0.9640                 0.4153
 IR Inten    --     19.9257                58.2594                 0.1145

                     22                     23                     24
                      A                      A                      A
 Frequencies --    816.8304               848.6224               884.9035
 Red. masses --      2.3842                 1.3946                 2.3346
 Frc consts  --      0.9372                 0.5918                 1.0771
 IR Inten    --     22.5791                 8.8679                13.6278

                     25                     26                     27
                      A                      A                      A
 Frequencies --    898.0816               912.2723               955.2553
 Red. masses --      1.5981                 2.0469                 1.7515
 Frc consts  --      0.7594                 1.0037                 0.9417
 IR Inten    --     22.5893                48.6218                 2.8620

                     28                     29                     30
                      A                      A                      A
 Frequencies --    972.1665              1031.9765              1039.4155
 Red. masses --      2.2605                 1.7139                 1.8061
 Frc consts  --      1.2587                 1.0754                 1.1497
 IR Inten    --     11.6400                53.1276                12.0103

                     31                     32                     33
                      A                      A                      A
 Frequencies --   1061.3127              1066.7521              1082.2715
 Red. masses --      1.5864                 1.9667                 1.3973
 Frc consts  --      1.0528                 1.3186                 0.9643
 IR Inten    --      9.1037                 7.2449                 0.4469

                     34                     35                     36
                      A                      A                      A
 Frequencies --   1087.9386              1113.6672              1157.4520
 Red. masses --      1.6886                 1.8276                 1.1316
 Frc consts  --      1.1776                 1.3355                 0.8932
 IR Inten    --     13.9043                10.9724                 6.0964

                     37                     38                     39
                      A                      A                      A
 Frequencies --   1167.7250              1178.0092              1197.5496
 Red. masses --      1.7214                 1.3945                 1.9521
 Frc consts  --      1.3830                 1.1402                 1.6494
 IR Inten    --      6.8201                 7.1563                 3.2208

                     40                     41                     42
                      A                      A                      A
 Frequencies --   1212.1643              1257.9777              1292.8270
 Red. masses --      1.4609                 1.8014                 1.2744
 Frc consts  --      1.2648                 1.6796                 1.2550
 IR Inten    --      4.2809                 5.1596                31.8818

                     43                     44                     45
                      A                      A                      A
 Frequencies --   1312.0571              1337.6061              1374.5050
 Red. masses --      1.2257                 1.4478                 1.4602
 Frc consts  --      1.2432                 1.5262                 1.6254
 IR Inten    --      3.7270                 6.7146                62.5696

                     46                     47                     48
                      A                      A                      A
 Frequencies --   1391.6796              1418.3225              1427.1923
 Red. masses --      1.7074                 1.3177                 1.3337
 Frc consts  --      1.9483                 1.5617                 1.6006
 IR Inten    --      8.6204                10.1332                 3.6941

                     49                     50                     51
                      A                      A                      A
 Frequencies --   1454.9204              1461.5948              1492.7042
 Red. masses --      1.5347                 1.4981                 1.0868
 Frc consts  --      1.9141                 1.8856                 1.4268
 IR Inten    --     40.3030                 2.2631                 0.1954

                     52                     53                     54
                      A                      A                      A
 Frequencies --   1510.7756              1520.9738              1533.7637
 Red. masses --      1.8758                 1.1149                 1.0541
 Frc consts  --      2.5225                 1.5196                 1.4610
 IR Inten    --     55.9640                 8.5862                 6.5211

                     55                     56                     57
                      A                      A                      A
 Frequencies --   1540.0126              1544.0287              1545.8190
 Red. masses --      1.3100                 1.0908                 1.1157
 Frc consts  --      1.8305                 1.5322                 1.5707
 IR Inten    --      5.1499                 8.9440                 1.0808

                     58                     59                     60
                      A                      A                      A
 Frequencies --   1693.6689              1784.9465              3007.6438
 Red. masses --      1.0944                 7.2086                 1.0822
 Frc consts  --      1.8496                13.5316                 5.7678
 IR Inten    --     53.2959               324.6385                23.1571

                     61                     62                     63
                      A                      A                      A
 Frequencies --   3029.5957              3033.0432              3051.9355
 Red. masses --      1.0738                 1.0635                 1.0373
 Frc consts  --      5.8068                 5.7641                 5.6923
 IR Inten    --     76.6309                52.4980                21.1439

                     64                     65                     66
                      A                      A                      A
 Frequencies --   3086.1065              3110.7715              3126.4494
 Red. masses --      1.1011                 1.1010                 1.0993
 Frc consts  --      6.1786                 6.2773                 6.3310
 IR Inten    --     28.3320                38.9964                19.8456

                     67                     68                     69
                      A                      A                      A
 Frequencies --   3146.9094              3153.7800              3157.3750
 Red. masses --      1.0536                 1.0574                 1.0907
 Frc consts  --      6.1475                 6.1968                 6.4063
 IR Inten    --     33.6645                11.8795                 6.1867

                     70                     71                     72
                      A                      A                      A
 Frequencies --   3169.4301              3217.8025              3233.1604
 Red. masses --      1.0891                 1.1182                 1.1149
 Frc consts  --      6.4460                 6.8217                 6.8666
 IR Inten    --      2.3206                 1.4742                26.6808

                     73                     74                     75
                      A                      A                      A
 Frequencies --   3463.9812              3548.3214              3582.5240
 Red. masses --      1.0497                 1.0928                 1.0744
 Frc consts  --      7.4209                 8.1065                 8.1246
 IR Inten    --      0.6456                 0.2944                 9.3270

 - Thermochemistry -
 -------------------
 Temperature   298.150 Kelvin.  Pressure   1.00000 Atm.
 Atom     1 has atomic number  6 and mass  12.00000

 Molecular mass:   156.12626 amu.
 Principal axes and moments of inertia in atomic units:
                           1         2         3
     Eigenvalues --  1185.074742408.149502671.35677
           X            0.99930  -0.02444   0.02838
           Y            0.02396   0.99957   0.01705
           Z           -0.02879  -0.01636   0.99945
 This molecule is an asymmetric top.
 Rotational symmetry number  1.
 Warning -- assumption of classical behavior for rotation
           may cause significant error
 Rotational temperatures (Kelvin)      0.07309     0.03597     0.03242
 Rotational constants (GHZ):           1.52289     0.74943     0.67559
 Zero-point vibrational energy     635716.2 (Joules/Mol)
                                  151.93981 (Kcal/Mol)
 Warning -- explicit consideration of  16 degrees of freedom as
           vibrations may cause significant error
 Vibrational temperatures:     35.19    53.72    78.29   130.60   160.13
          (Kelvin)            273.48   332.06   361.53   389.11   395.72
                              444.53   481.63   546.11   673.54   707.75
                              765.29   899.86   933.44  1029.63  1077.05
                             1144.28  1175.24  1220.98  1273.18  1292.14
                             1312.56  1374.40  1398.73  1484.78  1495.49
                             1526.99  1534.82  1557.15  1565.30  1602.32
                             1665.32  1680.10  1694.89  1723.01  1744.03
                             1809.95  1860.09  1887.76  1924.52  1977.61
                             2002.32  2040.65  2053.41  2093.31  2102.91
                             2147.67  2173.67  2188.34  2206.74  2215.73
                             2221.51  2224.09  2436.81  2568.14  4327.33
                             4358.91  4363.87  4391.05  4440.22  4475.71
                             4498.26  4527.70  4537.59  4542.76  4560.10
                             4629.70  4651.80  4983.90  5105.24  5154.45

 Zero-point correction=                           0.242132 (Hartree/Particle)
 Thermal correction to Energy=                    0.254649
 Thermal correction to Enthalpy=                  0.255593
 Thermal correction to Gibbs Free Energy=         0.201995
 Sum of electronic and zero-point Energies=           -498.982460
 Sum of electronic and thermal Energies=              -498.969942
 Sum of electronic and thermal Enthalpies=            -498.968998
 Sum of electronic and thermal Free Energies=         -499.022596

                     E (Thermal)             CV                S
                      KCal/Mol        Cal/Mol-Kelvin    Cal/Mol-Kelvin
 Total                  159.794             45.823            112.807
 Electronic               0.000              0.000              0.000
 Translational            0.889              2.981             41.046
 Rotational               0.889              2.981             30.412
 Vibrational            158.017             39.861             41.349
 Vibration     1          0.593              1.985              6.234
 Vibration     2          0.594              1.982              5.395
 Vibration     3          0.596              1.976              4.650
 Vibration     4          0.602              1.956              3.643
 Vibration     5          0.607              1.940              3.246
 Vibration     6          0.633              1.854              2.227
 Vibration     7          0.652              1.794              1.873
 Vibration     8          0.663              1.761              1.722
 Vibration     9          0.674              1.728              1.593
 Vibration    10          0.677              1.719              1.564
 Vibration    11          0.698              1.657              1.368
 Vibration    12          0.716              1.606              1.237
 Vibration    13          0.750              1.514              1.041
 Vibration    14          0.825              1.321              0.743
 Vibration    15          0.848              1.268              0.679
 Vibration    16          0.887              1.179              0.583

                           ! Non-Optimized Parameters !
 Normal termination of Gaussian 16 at Tue Dec  8 19:58:50 2020.

 ----------------------------------------------------------------------
 # B3LYP/6-311++G(d,p) empiricaldispersion=gd3bj scf=xqc pop=npa geom=c
 heck
 ----------------------------------------------------------------------

 --------------------------------------
 CID_83626019_JID_1360_Energie_neutraal
 --------------------------------------
 Structure from the checkpoint file:  "JID_1360.chk"
 Charge =  0 Multiplicity = 1

 SCF Done:  E(RB3LYP) =  -499.380394337     A.U. after   14 cycles
 Normal termination of Gaussian 16 at Tue Dec  8 20:01:57 2020.

 ----------------------------------------------------------------------
 # B3LYP/6-311++G(d,p) empiricaldispersion=gd3bj scf=xqc pop=npa geom=c
 heck
 ----------------------------------------------------------------------

 ------------------------------------
 CID_83626019_JID_1360_Energie_kation
 ------------------------------------
 Structure from the checkpoint file:  "JID_1360.chk"
 Charge =  1 Multiplicity = 2

 SCF Done:  E(UB3LYP) =  -499.061061766     A.U. after   24 cycles
 Normal termination of Gaussian 16 at Tue Dec  8 20:08:40 2020.
 Gaussian 16:  ES64L-G16RevA.03 25-Dec-2016

 ----------------------------------------------------------------------
 # B3LYP/6-311++G(d,p) empiricaldispersion=gd3bj scf=xqc pop=npa geom=c
 heck
 ----------------------------------------------------------------------

 -----------------------------------
 CID_83626019_JID_1360_Energie_anion
 -----------------------------------
 Structure from the checkpoint file:  "JID_1360.chk"
 Charge = -1 Multiplicity = 2

                         Standard orientation:
 ---------------------------------------------------------------------
 Center     Atomic      Atomic             Coordinates (Angstroms)
 Number     Number       Type             X           Y           Z
 ---------------------------------------------------------------------
      1          6           0        2.330492   -1.530989    0.112126
      2          6           0        1.462305   -0.647359   -0.792557
      3          6           0        0.042977   -1.236543   -0.959420
      4          7           0       -0.730977   -1.220882    0.274442
      5          6           0       -1.812653   -0.444363    0.578426
      6          8           0       -2.178885   -0.277808    1.737671
      7          6           0       -2.588395    0.190723   -0.578559
      8          7           0       -1.897889    1.402621   -1.048212
      9          6           0        1.379821    0.815518   -0.374984
     10          6           0        1.365507    1.264111    1.066023
     11          6           0        2.548993    1.585952    0.185061
     12          1           0        1.952000   -1.575042    1.140031
     13          1           0        3.360243   -1.164430    0.162021
     14          1           0        2.363280   -2.556283   -0.273191
     15          1           0        1.910127   -0.677693   -1.797725
     16          1           0       -0.497236   -0.651508   -1.703980
     17          1           0        0.120479   -2.268656   -1.329256
     18          1           0       -0.267331   -1.564106    1.107766
     19          1           0       -2.668830   -0.506698   -1.420074
     20          1           0       -3.598868    0.368975   -0.186480
     21          1           0       -2.478002    1.872193   -1.741910
     22          1           0       -1.812527    2.049409   -0.264922
     23          1           0        0.715718    1.383267   -1.022240
     24          1           0        0.684291    2.063208    1.344421
     25          1           0        1.507450    0.525296    1.848820
     26          1           0        3.478559    1.058800    0.381165
     27          1           0        2.689501    2.611265   -0.146126
 ---------------------------------------------------------------------

 SCF Done:  E(UB3LYP) =  -499.367397838     A.U. after   31 cycles

 The electronic state is 2-A.
 Alpha  occ. eigenvalues --  -18.98169 -14.22863 -14.19217 -10.16394 -10.09930
 Alpha  occ. eigenvalues --  -10.09378 -10.07945 -10.06973 -10.06900 -10.06728
 Alpha  occ. eigenvalues --  -10.06395  -0.93185  -0.81935  -0.77900  -0.75825
 Alpha  occ. eigenvalues --   -0.67875  -0.59734  -0.58831  -0.53433  -0.50070
 Alpha  occ. eigenvalues --   -0.47069  -0.44929  -0.40834  -0.40236  -0.38136
 Alpha  occ. eigenvalues --   -0.36219  -0.35843  -0.35142  -0.32691  -0.31776
 Alpha  occ. eigenvalues --   -0.30390  -0.30006  -0.28584  -0.27480  -0.26621
 Alpha  occ. eigenvalues --   -0.25714  -0.24968  -0.23217  -0.19424  -0.18252
 Alpha  occ. eigenvalues --   -0.15696  -0.14695  -0.14127   0.04530
 Alpha virt. eigenvalues --    0.06390   0.07485   0.08262   0.09245   0.09355
 Alpha virt. eigenvalues --    0.10456   0.10659   0.11128   0.11737   0.11996
 Alpha virt. eigenvalues --    0.12260   0.13453   0.14183   0.14666   0.15214

  Beta  occ. eigenvalues --  -18.98151 -14.22852 -14.19152 -10.16383 -10.09905
  Beta  occ. eigenvalues --  -10.09353 -10.07934 -10.06967 -10.06887 -10.06718
  Beta  occ. eigenvalues --  -10.06360  -0.93154  -0.81906  -0.77796  -0.75810
  Beta  occ. eigenvalues --   -0.67839  -0.59649  -0.58743  -0.53388  -0.50030
  Beta  occ. eigenvalues --   -0.47023  -0.44893  -0.40771  -0.40209  -0.38090
  Beta  occ. eigenvalues --   -0.36142  -0.35794  -0.35083  -0.32637  -0.31739
  Beta  occ. eigenvalues --   -0.30348  -0.29964  -0.28535  -0.27424  -0.26574
  Beta  occ. eigenvalues --   -0.25683  -0.24934  -0.23190  -0.19399  -0.18230
  Beta  occ. eigenvalues --   -0.15644  -0.14659  -0.14064
  Beta virt. eigenvalues --    0.06905   0.07735   0.08044   0.08653   0.09775
  Beta virt. eigenvalues --    0.09937   0.10716   0.11090   0.11403   0.12140
  Beta virt. eigenvalues --    0.12563   0.12730   0.13872   0.14586   0.14954

 Mulliken charges and spin densities:
               1          2
     1  C    1.024905  -1.729559
     2  C   -0.707689   0.831125
     3  C    0.301339  -0.653922
     4  N   -0.009873  -0.017716
     5  C   -0.537012   0.435205
     6  O   -0.343635   0.026035
     7  C    1.433750  -1.833747
     8  N   -0.454564   0.099792
     9  C   -0.109575   0.221540
    10  C   -0.614967   0.133312
    11  C    0.547172  -0.982192
    12  H   -0.030136   0.137633
    13  H   -0.332027   0.458514
    14  H   -0.204062   0.361912
    15  H   -0.344456   0.548789
    16  H   -0.003164   0.180203
    17  H   -0.554469   0.753047
    18  H    0.204925   0.076228
    19  H   -0.350946   0.530290
    20  H    0.014663   0.154495
    21  H   -0.461237   0.729304
    22  H    0.012636   0.210594
    23  H    0.293097  -0.000903
    24  H    0.089250   0.063726
    25  H    0.115776   0.028875
    26  H    0.152068  -0.026699
    27  H   -0.131770   0.264120
 Sum of Mulliken charges =  -1.00000   1.00000

 Dipole moment (field-independent basis, Debye):
    X=              2.5622    Y=             -0.0688    Z=              3.3058  Tot=              4.1831
 Quadrupole moment (field-independent basis, Debye-Ang):
   XX=           -125.2157   YY=           -110.9932   ZZ=           -110.3746
   XY=             11.4409   XZ=             -0.8469   YZ=              1.7405

 Summary of Natural Population Analysis:

                                       Natural Population
                Natural  -----------------------------------------------
    Atom  No    Charge         Core      Valence    Rydberg      Total
 -----------------------------------------------------------------------
      C    1   -0.29083      0.99965     2.28414    0.00704     3.29083
      C    2   -0.11349      0.99957     2.10182    0.01210     3.11349
      C    3   -0.08560      0.99958     2.07347    0.01255     3.08560
      N    4   -0.31561      0.99966     2.80570    0.01025     3.81561
      C    5    0.34202      0.99967     1.63507    0.02324     2.65798
      O    6   -0.32812      0.99988     3.32241    0.00584     4.32812
      C    7   -0.12877      0.99960     2.11754    0.01163     3.12877
      N    8   -0.42130      0.99977     2.90975    0.01177     3.92130
      C    9   -0.11950      0.99957     2.10761    0.01231     3.11950
      C   10   -0.19704      0.99962     2.19103    0.00639     3.19704
      C   11   -0.19873      0.99962     2.19291    0.00620     3.19873
      H   12    0.09178      0.00000     0.40685    0.00137     0.40822
      H   13    0.10223      0.00000     0.39653    0.00124     0.39777
      H   14    0.10417      0.00000     0.39436    0.00147     0.39583
      H   15    0.10050      0.00000     0.39798    0.00153     0.39950
      H   16    0.11111      0.00000     0.38633    0.00256     0.38889
      H   17    0.09225      0.00000     0.40625    0.00150     0.40775
      H   18    0.18949      0.00000     0.30796    0.00255     0.31051
      H   19    0.09658      0.00000     0.40173    0.00169     0.40342
      H   20    0.09304      0.00000     0.40548    0.00149     0.40696
      H   21    0.18272      0.00000     0.30847    0.00881     0.31728
      H   22    0.17522      0.00000     0.32236    0.00242     0.32478
      H   23    0.11788      0.00000     0.38003    0.00209     0.38212
      H   24    0.10215      0.00000     0.39681    0.00104     0.39785
      H   25    0.09908      0.00000     0.39982    0.00110     0.40092
      H   26    0.09879      0.00000     0.40017    0.00103     0.40121
      H   27    0.09999      0.00000     0.39909    0.00093     0.40001
 =======================================================================
   * Total *   -0.00000     10.99620    31.85166    0.15214    43.00000

 Normal termination of Gaussian 16 at Tue Dec  8 20:17:24 2020.
