 Gaussian 16, Revision A.03,

 -----------------------------------------------------------
 # opt freq B3LYP/6-31G(d) empiricaldispersion=gd3bj scf=xqc
 -----------------------------------------------------------

 ------------------------------
 CID_79777085_JID_4513_neutraal
 ------------------------------
 Symbolic Z-matrix:
 Charge =  0 Multiplicity = 1

 SCF Done:  E(RB3LYP) =  -650.712305993     A.U. after   14 cycles
 SCF Done:  E(RB3LYP) =  -650.717408182     A.U. after   12 cycles
 SCF Done:  E(RB3LYP) =  -650.717725889     A.U. after   12 cycles
 SCF Done:  E(RB3LYP) =  -650.718231658     A.U. after   12 cycles
 SCF Done:  E(RB3LYP) =  -650.718338579     A.U. after   12 cycles
 SCF Done:  E(RB3LYP) =  -650.718357781     A.U. after   11 cycles
 SCF Done:  E(RB3LYP) =  -650.718375959     A.U. after   10 cycles
 SCF Done:  E(RB3LYP) =  -650.718378781     A.U. after    8 cycles
 SCF Done:  E(RB3LYP) =  -650.718379661     A.U. after    8 cycles
 SCF Done:  E(RB3LYP) =  -650.718380017     A.U. after    7 cycles
 SCF Done:  E(RB3LYP) =  -650.718380417     A.U. after    8 cycles
 SCF Done:  E(RB3LYP) =  -650.718380519     A.U. after    7 cycles
 Optimization completed.
    -- Stationary point found.
 Normal termination of Gaussian 16 at Thu Dec 10 09:57:23 2020.

 --------------------------------------------------------------------
 #N Geom=AllCheck Guess=TCheck SCRF=Check GenChk RB3LYP/6-31G(d) Freq
 --------------------------------------------------------------------

 Structure from the checkpoint file:  "JID_4513.chk"
 ------------------------------
 CID_79777085_JID_4513_neutraal
 ------------------------------
 Charge =  0 Multiplicity = 1

 SCF Done:  E(RB3LYP) =  -650.718380519     A.U. after    1 cycles

  Exact polarizability: 132.725  -8.992 104.316  -6.936  -1.894 109.598
 Approx polarizability: 177.561 -19.069 147.327 -14.730  -2.698 176.803

                      1                      2                      3
                      A                      A                      A
 Frequencies --     26.7020                50.7341                69.3434
 Red. masses --      4.3295                 5.4173                 2.7040
 Frc consts  --      0.0018                 0.0082                 0.0077
 IR Inten    --      1.4106                 0.0210                 0.6060

                      4                      5                      6
                      A                      A                      A
 Frequencies --    114.7751               143.0750               154.6825
 Red. masses --      3.5955                 4.4313                 4.6016
 Frc consts  --      0.0279                 0.0534                 0.0649
 IR Inten    --      2.3984                 2.2631                 0.7030

                      7                      8                      9
                      A                      A                      A
 Frequencies --    177.0123               216.8930               248.2052
 Red. masses --      2.8506                 3.5034                 3.0933
 Frc consts  --      0.0526                 0.0971                 0.1123
 IR Inten    --      0.1507                 1.6161                 4.6417

                     10                     11                     12
                      A                      A                      A
 Frequencies --    278.9786               304.3900               317.2273
 Red. masses --      1.3740                 1.6870                 2.9473
 Frc consts  --      0.0630                 0.0921                 0.1748
 IR Inten    --      0.9043                 1.2814                 0.5858

                     13                     14                     15
                      A                      A                      A
 Frequencies --    374.3747               402.1029               430.9367
 Red. masses --      2.8672                 6.0065                 2.3595
 Frc consts  --      0.2368                 0.5722                 0.2582
 IR Inten    --     11.5309                19.2895                 4.7159

                     16                     17                     18
                      A                      A                      A
 Frequencies --    459.5360               478.8366               563.9087
 Red. masses --      3.5128                 3.0327                 3.8656
 Frc consts  --      0.4371                 0.4097                 0.7242
 IR Inten    --     10.8098                 1.6478                11.6272

                     19                     20                     21
                      A                      A                      A
 Frequencies --    604.2882               638.1683               679.7963
 Red. masses --      2.8344                 3.0081                 1.5335
 Frc consts  --      0.6098                 0.7218                 0.4175
 IR Inten    --      5.2734                 1.6686                52.7433

                     22                     23                     24
                      A                      A                      A
 Frequencies --    703.7280               732.8321               760.0400
 Red. masses --      3.3437                 2.8123                 8.4235
 Frc consts  --      0.9756                 0.8898                 2.8669
 IR Inten    --     10.2041                33.7890                35.5486

                     25                     26                     27
                      A                      A                      A
 Frequencies --    788.0445               817.4727               826.2650
 Red. masses --      1.2586                 1.6604                 1.7290
 Frc consts  --      0.4605                 0.6538                 0.6955
 IR Inten    --      0.5024                 0.7576                 6.5995

                     28                     29                     30
                      A                      A                      A
 Frequencies --    842.0635               878.4863               905.4914
 Red. masses --      1.8583                 1.8538                 2.4097
 Frc consts  --      0.7764                 0.8429                 1.1641
 IR Inten    --     16.0737                 1.8710                 1.9340

                     31                     32                     33
                      A                      A                      A
 Frequencies --    965.6253               969.8082               979.1643
 Red. masses --      2.1252                 2.2022                 2.2145
 Frc consts  --      1.1675                 1.2203                 1.2509
 IR Inten    --      0.2412                 1.0263                16.5358

                     34                     35                     36
                      A                      A                      A
 Frequencies --    999.6692              1052.5702              1067.8646
 Red. masses --      1.9468                 1.4012                 1.4178
 Frc consts  --      1.1463                 0.9147                 0.9526
 IR Inten    --      2.4810                 3.4220                 3.8932

                     37                     38                     39
                      A                      A                      A
 Frequencies --   1074.2025              1084.5496              1088.8938
 Red. masses --      1.8816                 1.9409                 1.3747
 Frc consts  --      1.2793                 1.3451                 0.9603
 IR Inten    --     11.1960                 6.8466                 3.2803

                     40                     41                     42
                      A                      A                      A
 Frequencies --   1124.9544              1129.8018              1150.7769
 Red. masses --      2.1358                 2.0182                 1.2996
 Frc consts  --      1.5925                 1.5178                 1.0140
 IR Inten    --      4.9985                 1.1228                 2.3313

                     43                     44                     45
                      A                      A                      A
 Frequencies --   1208.1860              1213.2972              1215.7690
 Red. masses --      1.8561                 1.3925                 1.5243
 Frc consts  --      1.5964                 1.2078                 1.3275
 IR Inten    --     44.5326                 1.5080                 1.8316

                     46                     47                     48
                      A                      A                      A
 Frequencies --   1238.8250              1245.5611              1273.3925
 Red. masses --      1.9539                 2.1960                 1.9266
 Frc consts  --      1.7667                 2.0073                 1.8406
 IR Inten    --     92.1376               161.6764                12.5852

                     49                     50                     51
                      A                      A                      A
 Frequencies --   1309.6412              1314.4851              1342.3488
 Red. masses --      1.5876                 1.4968                 1.5125
 Frc consts  --      1.6043                 1.5238                 1.6058
 IR Inten    --     26.8336                26.3202                 3.7088

                     52                     53                     54
                      A                      A                      A
 Frequencies --   1367.2951              1377.8885              1396.0341
 Red. masses --      1.4174                 1.4310                 1.9337
 Frc consts  --      1.5612                 1.6007                 2.2204
 IR Inten    --     54.6661                13.9485                67.8801

                     55                     56                     57
                      A                      A                      A
 Frequencies --   1416.9988              1435.9357              1443.3636
 Red. masses --      1.5460                 1.6864                 1.3760
 Frc consts  --      1.8289                 2.0487                 1.6889
 IR Inten    --     23.0536                30.9372                13.0571

                     58                     59                     60
                      A                      A                      A
 Frequencies --   1448.2758              1473.8348              1488.8936
 Red. masses --      1.5174                 2.0301                 1.2399
 Frc consts  --      1.8753                 2.5982                 1.6194
 IR Inten    --      4.5899               196.2907                38.7096

                     61                     62                     63
                      A                      A                      A
 Frequencies --   1494.3152              1518.1296              1528.2112
 Red. masses --      1.0910                 1.0993                 1.0878
 Frc consts  --      1.4353                 1.4927                 1.4968
 IR Inten    --      1.2173                 8.7470                 7.2455

                     64                     65                     66
                      A                      A                      A
 Frequencies --   1536.5292              1538.7818              1551.5769
 Red. masses --      1.3051                 1.0672                 1.1096
 Frc consts  --      1.8154                 1.4888                 1.5738
 IR Inten    --      3.0286                 1.3518                17.9722

                     67                     68                     69
                      A                      A                      A
 Frequencies --   1795.5502              1829.0982              3034.1369
 Red. masses --      8.9511                10.1239                 1.0678
 Frc consts  --     17.0029                19.9560                 5.7916
 IR Inten    --    378.8658               389.5605                37.0477

                     70                     71                     72
                      A                      A                      A
 Frequencies --   3052.7102              3058.2810              3064.1886
 Red. masses --      1.0717                 1.0369                 1.0668
 Frc consts  --      5.8842                 5.7142                 5.9015
 IR Inten    --     10.1929                15.3247                21.9764

                     73                     74                     75
                      A                      A                      A
 Frequencies --   3094.8679              3099.6748              3126.2936
 Red. masses --      1.0899                 1.0914                 1.1006
 Frc consts  --      6.1508                 6.1780                 6.3379
 IR Inten    --      5.5808                 3.1495                35.5823

                     76                     77                     78
                      A                      A                      A
 Frequencies --   3131.2621              3139.6717              3140.9777
 Red. masses --      1.1015                 1.0959                 1.0570
 Frc consts  --      6.3632                 6.3646                 6.1441
 IR Inten    --     25.4849                 7.7248                20.1510

                     79                     80                     81
                      A                      A                      A
 Frequencies --   3143.7112              3148.6244              3157.0020
 Red. masses --      1.0757                 1.0651                 1.0924
 Frc consts  --      6.2637                 6.2215                 6.4147
 IR Inten    --     22.3986                 8.4758                15.4309

                     82                     83                     84
                      A                      A                      A
 Frequencies --   3216.4422              3231.3986              3603.6675
 Red. masses --      1.1194                 1.1162                 1.0771
 Frc consts  --      6.8233                 6.8672                 8.2412
 IR Inten    --      0.7305                21.9250                53.1935

 - Thermochemistry -
 -------------------
 Temperature   298.150 Kelvin.  Pressure   1.00000 Atm.
 Atom     1 has atomic number  6 and mass  12.00000

 Molecular mass:   196.12118 amu.
 Principal axes and moments of inertia in atomic units:
                           1         2         3
     Eigenvalues --  1725.894303852.898354104.83338
           X            0.99994   0.01093  -0.00211
           Y           -0.01105   0.99752  -0.06958
           Z            0.00134   0.06960   0.99757
 This molecule is an asymmetric top.
 Rotational symmetry number  1.
 Warning -- assumption of classical behavior for rotation
           may cause significant error
 Rotational temperatures (Kelvin)      0.05018     0.02248     0.02110
 Rotational constants (GHZ):           1.04568     0.46841     0.43966
 Zero-point vibrational energy     682597.6 (Joules/Mol)
                                  163.14473 (Kcal/Mol)
 Warning -- explicit consideration of  19 degrees of freedom as
           vibrations may cause significant error
 Vibrational temperatures:     38.42    73.00    99.77   165.14   205.85
          (Kelvin)            222.55   254.68   312.06   357.11   401.39
                              437.95   456.42   538.64   578.54   620.02
                              661.17   688.94   811.34   869.44   918.18
                              978.08  1012.51  1054.38  1093.53  1133.82
                             1176.16  1188.81  1211.54  1263.95  1302.80
                             1389.32  1395.34  1408.80  1438.30  1514.41
                             1536.42  1545.54  1560.43  1566.68  1618.56
                             1625.53  1655.71  1738.31  1745.66  1749.22
                             1782.39  1792.08  1832.13  1884.28  1891.25
                             1931.34  1967.23  1982.47  2008.58  2038.75
                             2065.99  2076.68  2083.75  2120.52  2142.19
                             2149.99  2184.25  2198.76  2210.72  2213.96
                             2232.37  2583.40  2631.66  4365.45  4392.17
                             4400.18  4408.68  4452.82  4459.74  4498.04
                             4505.19  4517.29  4519.17  4523.10  4530.17
                             4542.22  4627.74  4649.26  5184.87

 Zero-point correction=                           0.259988 (Hartree/Particle)
 Thermal correction to Energy=                    0.273511
 Thermal correction to Enthalpy=                  0.274456
 Thermal correction to Gibbs Free Energy=         0.219024
 Sum of electronic and zero-point Energies=           -650.458393
 Sum of electronic and thermal Energies=              -650.444869
 Sum of electronic and thermal Enthalpies=            -650.443925
 Sum of electronic and thermal Free Energies=         -650.499357

                     E (Thermal)             CV                S
                      KCal/Mol        Cal/Mol-Kelvin    Cal/Mol-Kelvin
 Total                  171.631             51.639            116.666
 Electronic               0.000              0.000              0.000
 Translational            0.889              2.981             41.726
 Rotational               0.889              2.981             31.679
 Vibrational            169.854             45.678             43.261
 Vibration     1          0.593              1.984              6.060
 Vibration     2          0.595              1.977              4.789
 Vibration     3          0.598              1.969              4.172
 Vibration     4          0.608              1.937              3.187
 Vibration     5          0.616              1.910              2.762
 Vibration     6          0.620              1.897              2.614
 Vibration     7          0.628              1.871              2.360
 Vibration     8          0.646              1.815              1.985
 Vibration     9          0.662              1.766              1.743
 Vibration    10          0.679              1.712              1.540
 Vibration    11          0.695              1.665              1.393
 Vibration    12          0.704              1.641              1.324
 Vibration    13          0.745              1.525              1.062
 Vibration    14          0.768              1.466              0.955
 Vibration    15          0.792              1.403              0.856
 Vibration    16          0.817              1.340              0.767
 Vibration    17          0.835              1.297              0.713
 Vibration    18          0.920              1.109              0.516
 Vibration    19          0.963              1.023              0.442

                           ! Non-Optimized Parameters !
 Normal termination of Gaussian 16 at Thu Dec 10 10:06:07 2020.

 ----------------------------------------------------------------------
 # B3LYP/6-311++G(d,p) empiricaldispersion=gd3bj scf=xqc pop=npa geom=c
 heck
 ----------------------------------------------------------------------

 --------------------------------------
 CID_79777085_JID_4513_Energie_neutraal
 --------------------------------------
 Structure from the checkpoint file:  "JID_4513.chk"
 Charge =  0 Multiplicity = 1

 SCF Done:  E(RB3LYP) =  -650.906972133     A.U. after   14 cycles
 Normal termination of Gaussian 16 at Thu Dec 10 10:09:16 2020.

 ----------------------------------------------------------------------
 # B3LYP/6-311++G(d,p) empiricaldispersion=gd3bj scf=xqc pop=npa geom=c
 heck
 ----------------------------------------------------------------------

 ------------------------------------
 CID_79777085_JID_4513_Energie_kation
 ------------------------------------
 Structure from the checkpoint file:  "JID_4513.chk"
 Charge =  1 Multiplicity = 2

 SCF Done:  E(UB3LYP) =  -650.582785464     A.U. after   25 cycles
 Normal termination of Gaussian 16 at Thu Dec 10 10:16:56 2020.
 Gaussian 16:  ES64L-G16RevA.03 25-Dec-2016

 ----------------------------------------------------------------------
 # B3LYP/6-311++G(d,p) empiricaldispersion=gd3bj scf=xqc pop=npa geom=c
 heck
 ----------------------------------------------------------------------

 -----------------------------------
 CID_79777085_JID_4513_Energie_anion
 -----------------------------------
 Structure from the checkpoint file:  "JID_4513.chk"
 Charge = -1 Multiplicity = 2

                         Standard orientation:
 ---------------------------------------------------------------------
 Center     Atomic      Atomic             Coordinates (Angstroms)
 Number     Number       Type             X           Y           Z
 ---------------------------------------------------------------------
      1          6           0       -1.437841    2.453612   -0.650343
      2          6           0       -1.090068    1.397431    0.398845
      3          6           0       -2.220526    0.370108    0.615750
      4          6           0       -2.464144   -0.597865   -0.522951
      5          6           0       -1.740162   -1.925660   -0.555106
      6          6           0       -3.214483   -1.876298   -0.242864
      7          7           0        0.215461    0.759212    0.121794
      8          6           0        0.642875    0.416364   -1.234802
      9          6           0        2.166134    0.431620   -1.326764
     10          6           0        2.788327   -0.450378   -0.263176
     11          8           0        3.863353   -1.009646   -0.363461
     12          7           0        2.013321   -0.546899    0.882061
     13          6           0        0.823931    0.148681    1.184505
     14          8           0        0.410270    0.171593    2.336394
     15          1           0       -1.718397    2.020671   -1.616126
     16          1           0       -0.603350    3.144872   -0.809292
     17          1           0       -2.294783    3.034430   -0.295433
     18          1           0       -0.946828    1.909125    1.354108
     19          1           0       -1.984383   -0.196055    1.522811
     20          1           0       -3.141442    0.931874    0.827341
     21          1           0       -2.663970   -0.142830   -1.492059
     22          1           0       -1.434760   -2.332079   -1.515607
     23          1           0       -1.054650   -2.145850    0.259264
     24          1           0       -3.522718   -2.063347    0.782612
     25          1           0       -3.911849   -2.242810   -0.990615
     26          1           0        0.226236    1.147807   -1.926457
     27          1           0        0.255384   -0.568452   -1.524737
     28          1           0        2.542276    1.452119   -1.175881
     29          1           0        2.512650    0.087668   -2.304059
     30          1           0        2.425871   -1.024598    1.675114
 ---------------------------------------------------------------------

 SCF Done:  E(UB3LYP) =  -650.897727626     A.U. after   33 cycles
 SCF Done:  E(UB3LYP) =  -650.897727626     a.u. after    1 cycles

 The electronic state is 2-A.
 Alpha  occ. eigenvalues --  -19.01461 -19.00165 -14.26564 -14.25058 -10.21394
 Alpha  occ. eigenvalues --  -10.19621 -10.11653 -10.11533 -10.09199 -10.08210
 Alpha  occ. eigenvalues --  -10.07747 -10.07665 -10.07192 -10.06201  -0.97712
 Alpha  occ. eigenvalues --   -0.95716  -0.86330  -0.82857  -0.76716  -0.70343
 Alpha  occ. eigenvalues --   -0.67511  -0.60596  -0.58512  -0.55970  -0.52010
 Alpha  occ. eigenvalues --   -0.50932  -0.48219  -0.45084  -0.43744  -0.41190
 Alpha  occ. eigenvalues --   -0.40322  -0.38700  -0.37302  -0.35858  -0.35252
 Alpha  occ. eigenvalues --   -0.34357  -0.34061  -0.33100  -0.31546  -0.30840
 Alpha  occ. eigenvalues --   -0.29279  -0.28129  -0.27684  -0.27384  -0.26795
 Alpha  occ. eigenvalues --   -0.25906  -0.23483  -0.20257  -0.20027  -0.19569
 Alpha  occ. eigenvalues --   -0.18917  -0.17460  -0.15348   0.04293
 Alpha virt. eigenvalues --    0.06768   0.07281   0.07439   0.07947   0.09025
 Alpha virt. eigenvalues --    0.09529   0.09776   0.10105   0.10958   0.11680
 Alpha virt. eigenvalues --    0.12540   0.12797   0.13264   0.13341   0.14038

  Beta  occ. eigenvalues --  -19.01434 -19.00160 -14.26556 -14.25051 -10.21392
  Beta  occ. eigenvalues --  -10.19589 -10.11619 -10.11527 -10.09172 -10.08193
  Beta  occ. eigenvalues --  -10.07735 -10.07650 -10.07183 -10.06142  -0.97686
  Beta  occ. eigenvalues --   -0.95679  -0.86311  -0.82832  -0.76689  -0.70300
  Beta  occ. eigenvalues --   -0.67464  -0.60539  -0.58444  -0.55926  -0.51951
  Beta  occ. eigenvalues --   -0.50890  -0.48170  -0.45037  -0.43703  -0.41137
  Beta  occ. eigenvalues --   -0.40271  -0.38652  -0.37251  -0.35826  -0.35198
  Beta  occ. eigenvalues --   -0.34296  -0.34028  -0.33060  -0.31482  -0.30796
  Beta  occ. eigenvalues --   -0.29223  -0.28089  -0.27636  -0.27341  -0.26731
  Beta  occ. eigenvalues --   -0.25866  -0.23444  -0.20226  -0.20003  -0.19527
  Beta  occ. eigenvalues --   -0.18879  -0.17435  -0.15315
  Beta virt. eigenvalues --    0.06837   0.07385   0.07791   0.08067   0.08308
  Beta virt. eigenvalues --    0.09634   0.09829   0.10238   0.10634   0.11380
  Beta virt. eigenvalues --    0.12049   0.12887   0.13137   0.13483   0.13716

 Mulliken charges and spin densities:
               1          2
     1  C    1.690071  -2.267721
     2  C   -2.348829   2.340483
     3  C    1.134141  -1.710762
     4  C   -0.920458   1.214745
     5  C   -0.257201  -0.182732
     6  C    0.875907  -1.366430
     7  N    0.283904  -0.066675
     8  C    0.006700  -0.282852
     9  C    1.213292  -1.640593
    10  C   -0.065621   0.181251
    11  O   -0.357078   0.027865
    12  N   -0.278669   0.005254
    13  C    0.267968  -0.197331
    14  O   -0.342216   0.007542
    15  H   -0.375143   0.543374
    16  H   -0.402259   0.577720
    17  H   -0.305279   0.450938
    18  H   -0.028276   0.261805
    19  H    0.136016   0.064064
    20  H    0.049243   0.100924
    21  H   -0.308217   0.546598
    22  H   -0.146339   0.299133
    23  H    0.131795   0.039795
    24  H    0.110099   0.004289
    25  H   -0.179059   0.332138
    26  H   -0.725037   0.918960
    27  H    0.184237  -0.009103
    28  H   -0.217004   0.437806
    29  H   -0.126171   0.334588
    30  H    0.299483   0.034930
 Sum of Mulliken charges =  -1.00000   1.00000

 Dipole moment (field-independent basis, Debye):
    X=              0.4545    Y=             -3.6700    Z=              5.2174  Tot=              6.3951
 Quadrupole moment (field-independent basis, Debye-Ang):
   XX=           -145.0288   YY=           -131.5861   ZZ=           -132.3219
   XY=              4.0343   XZ=             -3.9140   YZ=              4.4896

 Summary of Natural Population Analysis:

                                       Natural Population
                Natural  -----------------------------------------------
    Atom  No    Charge         Core      Valence    Rydberg      Total
 -----------------------------------------------------------------------
      C    1   -0.29367      0.99964     2.28791    0.00612     3.29367
      C    2   -0.00078      0.99957     1.98806    0.01315     3.00078
      C    3   -0.19597      0.99958     2.18637    0.01002     3.19597
      C    4   -0.12111      0.99958     2.10982    0.01170     3.12111
      C    5   -0.20315      0.99961     2.19383    0.00971     3.20315
      C    6   -0.19569      0.99962     2.18822    0.00785     3.19569
      N    7   -0.26096      0.99963     2.74919    0.01214     3.76096
      C    8   -0.08820      0.99960     2.07700    0.01160     3.08820
      C    9   -0.23713      0.99959     2.22875    0.00879     3.23713
      C   10    0.35737      0.99968     1.62037    0.02258     2.64263
      O   11   -0.30535      0.99987     3.29935    0.00613     4.30535
      N   12   -0.33237      0.99964     2.82490    0.00783     3.83237
      C   13    0.41318      0.99966     1.56375    0.02341     2.58682
      O   14   -0.33196      0.99988     3.32726    0.00482     4.33196
      H   15    0.10264      0.00000     0.39474    0.00262     0.39736
      H   16    0.10732      0.00000     0.39070    0.00199     0.39268
      H   17    0.10593      0.00000     0.39280    0.00126     0.39407
      H   18    0.10723      0.00000     0.39115    0.00163     0.39277
      H   19    0.10713      0.00000     0.39160    0.00127     0.39287
      H   20    0.10123      0.00000     0.39785    0.00092     0.39877
      H   21    0.10765      0.00000     0.38992    0.00243     0.39235
      H   22    0.10477      0.00000     0.39408    0.00115     0.39523
      H   23    0.10127      0.00000     0.39767    0.00106     0.39873
      H   24    0.09813      0.00000     0.40100    0.00087     0.40187
      H   25    0.10286      0.00000     0.39618    0.00096     0.39714
      H   26    0.11427      0.00000     0.38184    0.00389     0.38573
      H   27    0.09692      0.00000     0.40074    0.00234     0.40308
      H   28    0.11770      0.00000     0.38014    0.00216     0.38230
      H   29    0.11761      0.00000     0.38142    0.00097     0.38239
      H   30    0.20312      0.00000     0.29465    0.00222     0.29688
 =======================================================================
   * Total *    0.00000     13.99516    38.82127    0.18358    53.00000

 Normal termination of Gaussian 16 at Thu Dec 10 10:26:54 2020.
