 Gaussian 16, Revision A.03,

 -----------------------------------------------------------
 # opt freq B3LYP/6-31G(d) empiricaldispersion=gd3bj scf=xqc
 -----------------------------------------------------------

 -------------------------------
 CID_154609117_JID_2372_neutraal
 -------------------------------
 Symbolic Z-matrix:
 Charge =  0 Multiplicity = 1

 SCF Done:  E(RB3LYP) =  -486.590792699     A.U. after   13 cycles
 SCF Done:  E(RB3LYP) =  -486.592996691     A.U. after   10 cycles
 SCF Done:  E(RB3LYP) =  -486.593249384     A.U. after   10 cycles
 SCF Done:  E(RB3LYP) =  -486.593289638     A.U. after    9 cycles
 SCF Done:  E(RB3LYP) =  -486.593308908     A.U. after    9 cycles
 SCF Done:  E(RB3LYP) =  -486.593312990     A.U. after    7 cycles
 SCF Done:  E(RB3LYP) =  -486.593313866     A.U. after    7 cycles
 SCF Done:  E(RB3LYP) =  -486.593313951     A.U. after    6 cycles
 Optimization completed.
    -- Stationary point found.
 Normal termination of Gaussian 16 at Wed Dec  9 17:19:33 2020.

 --------------------------------------------------------------------
 #N Geom=AllCheck Guess=TCheck SCRF=Check GenChk RB3LYP/6-31G(d) Freq
 --------------------------------------------------------------------

 Structure from the checkpoint file:  "JID_2372.chk"
 -------------------------------
 CID_154609117_JID_2372_neutraal
 -------------------------------
 Charge =  0 Multiplicity = 1

 SCF Done:  E(RB3LYP) =  -486.593313951     A.U. after    1 cycles

  Exact polarizability: 136.452   1.171 113.145   2.142   0.485 103.183
 Approx polarizability: 168.449   2.645 162.853   5.215   1.099 157.974

                      1                      2                      3
                      A                      A                      A
 Frequencies --     58.3090                70.2176               116.9999
 Red. masses --      2.5032                 3.2829                 2.7981
 Frc consts  --      0.0050                 0.0095                 0.0226
 IR Inten    --      0.0904                 0.0280                 0.2784

                      4                      5                      6
                      A                      A                      A
 Frequencies --    157.7334               217.2844               233.3796
 Red. masses --      2.7885                 1.2776                 1.0678
 Frc consts  --      0.0409                 0.0355                 0.0343
 IR Inten    --      0.3338                 0.0699                 0.0544

                      7                      8                      9
                      A                      A                      A
 Frequencies --    268.3129               278.2546               283.0300
 Red. masses --      1.7286                 2.1802                 1.5852
 Frc consts  --      0.0733                 0.0995                 0.0748
 IR Inten    --      0.1656                 0.7975                 0.2730

                     10                     11                     12
                      A                      A                      A
 Frequencies --    291.1594               302.6829               323.4104
 Red. masses --      2.3727                 1.8544                 2.0115
 Frc consts  --      0.1185                 0.1001                 0.1240
 IR Inten    --      0.2124                 0.1065                 0.0201

                     13                     14                     15
                      A                      A                      A
 Frequencies --    366.3332               392.1803               421.1075
 Red. masses --      2.5792                 1.9723                 2.2231
 Frc consts  --      0.2039                 0.1787                 0.2323
 IR Inten    --      0.4137                 1.0544                 1.1081

                     16                     17                     18
                      A                      A                      A
 Frequencies --    447.0151               474.4185               516.6546
 Red. masses --      2.7222                 2.6709                 2.5392
 Frc consts  --      0.3205                 0.3542                 0.3993
 IR Inten    --      0.2586                 4.3139                 1.1419

                     19                     20                     21
                      A                      A                      A
 Frequencies --    568.7282               614.9539               665.4483
 Red. masses --      2.6185                 2.8651                 2.8882
 Frc consts  --      0.4990                 0.6384                 0.7536
 IR Inten    --      1.2117                14.0755                 2.9273

                     22                     23                     24
                      A                      A                      A
 Frequencies --    737.1108               792.7265               832.4056
 Red. masses --      2.4171                 1.0787                 1.9156
 Frc consts  --      0.7738                 0.3994                 0.7820
 IR Inten    --      0.5649                 0.0606                 1.9827

                     25                     26                     27
                      A                      A                      A
 Frequencies --    878.3377               893.8561               901.5435
 Red. masses --      2.0275                 1.7469                 2.4571
 Frc consts  --      0.9216                 0.8223                 1.1766
 IR Inten    --      0.6294                 1.1677                11.1839

                     28                     29                     30
                      A                      A                      A
 Frequencies --    927.9748               935.3387               941.8764
 Red. masses --      1.3387                 2.5949                 1.3137
 Frc consts  --      0.6792                 1.3376                 0.6867
 IR Inten    --      0.7154                 6.8582                 3.1005

                     31                     32                     33
                      A                      A                      A
 Frequencies --    945.6126               953.7230               992.3858
 Red. masses --      1.3354                 1.5268                 1.7897
 Frc consts  --      0.7035                 0.8182                 1.0385
 IR Inten    --      0.1886                 2.2086                 6.4541

                     34                     35                     36
                      A                      A                      A
 Frequencies --   1001.8658              1052.9718              1059.0661
 Red. masses --      2.2555                 2.0020                 1.4547
 Frc consts  --      1.3338                 1.3078                 0.9613
 IR Inten    --      1.1471                22.3646                 9.8650

                     37                     38                     39
                      A                      A                      A
 Frequencies --   1078.2325              1082.2680              1112.6816
 Red. masses --      1.6479                 1.4132                 2.6170
 Frc consts  --      1.1288                 0.9753                 1.9090
 IR Inten    --      9.3777                 1.1146                 7.7799

                     40                     41                     42
                      A                      A                      A
 Frequencies --   1127.0246              1141.3717              1144.7520
 Red. masses --      2.2019                 1.9986                 2.0025
 Frc consts  --      1.6478                 1.5340                 1.5462
 IR Inten    --     24.4615                 8.0358                12.4803

                     43                     44                     45
                      A                      A                      A
 Frequencies --   1173.4713              1197.1651              1206.7417
 Red. masses --      2.4055                 1.2871                 1.7197
 Frc consts  --      1.9516                 1.0869                 1.4755
 IR Inten    --      5.3653                 0.2825                41.0548

                     46                     47                     48
                      A                      A                      A
 Frequencies --   1220.5468              1235.3445              1282.7203
 Red. masses --      1.6613                 1.7739                 1.6649
 Frc consts  --      1.4581                 1.5949                 1.6140
 IR Inten    --     14.9489                14.4932                 4.8779

                     49                     50                     51
                      A                      A                      A
 Frequencies --   1288.2747              1334.9043              1359.8664
 Red. masses --      1.8345                 1.3019                 1.3383
 Frc consts  --      1.7939                 1.3669                 1.4582
 IR Inten    --     10.4917                 1.3537                 8.3472

                     52                     53                     54
                      A                      A                      A
 Frequencies --   1365.3643              1383.8713              1390.2467
 Red. masses --      1.4620                 1.9305                 1.5754
 Frc consts  --      1.6058                 2.1782                 1.7940
 IR Inten    --      0.2684                 5.4515                 4.6802

                     55                     56                     57
                      A                      A                      A
 Frequencies --   1409.8314              1417.1060              1419.8618
 Red. masses --      1.3942                 1.3080                 1.4417
 Frc consts  --      1.6327                 1.5476                 1.7124
 IR Inten    --      4.1904                15.7449                26.9460

                     58                     59                     60
                      A                      A                      A
 Frequencies --   1422.7530              1434.5842              1442.7818
 Red. masses --      1.3116                 1.3047                 1.2822
 Frc consts  --      1.5643                 1.5820                 1.5726
 IR Inten    --     15.2570                10.3816                19.0212

                     61                     62                     63
                      A                      A                      A
 Frequencies --   1444.9969              1491.3942              1503.4277
 Red. masses --      1.2866                 1.0865                 1.0808
 Frc consts  --      1.5829                 1.4238                 1.4393
 IR Inten    --      8.2151                 1.2001                 2.7717

                     64                     65                     66
                      A                      A                      A
 Frequencies --   1508.9698              1511.3806              1519.3730
 Red. masses --      1.0941                 1.0728                 1.0694
 Frc consts  --      1.4678                 1.4439                 1.4545
 IR Inten    --      3.6054                 3.3978                 1.7060

                     67                     68                     69
                      A                      A                      A
 Frequencies --   1524.0379              1530.3060              1533.9911
 Red. masses --      1.0632                 1.1467                 1.0507
 Frc consts  --      1.4549                 1.5821                 1.4568
 IR Inten    --      0.4116                 7.6159                 7.4958

                     70                     71                     72
                      A                      A                      A
 Frequencies --   1537.3086              1540.4125              1542.5735
 Red. masses --      1.0511                 1.0695                 1.2126
 Frc consts  --      1.4635                 1.4952                 1.7001
 IR Inten    --      8.3543                 1.4917                 2.0230

                     73                     74                     75
                      A                      A                      A
 Frequencies --   2986.0570              3004.7547              3020.6468
 Red. masses --      1.0698                 1.0725                 1.0811
 Frc consts  --      5.6201                 5.7053                 5.8119
 IR Inten    --     35.4636                47.7893                42.6114

                     76                     77                     78
                      A                      A                      A
 Frequencies --   3037.3803              3038.1469              3045.2889
 Red. masses --      1.0614                 1.0842                 1.0378
 Frc consts  --      5.7691                 5.8964                 5.6708
 IR Inten    --     38.9514                 6.4099                21.4073

                     79                     80                     81
                      A                      A                      A
 Frequencies --   3049.6506              3051.6867              3077.2881
 Red. masses --      1.0363                 1.0373                 1.0932
 Frc consts  --      5.6788                 5.6918                 6.0993
 IR Inten    --     33.2234                19.5752                31.0264

                     82                     83                     84
                      A                      A                      A
 Frequencies --   3080.5601              3102.3007              3106.0418
 Red. masses --      1.1005                 1.0940                 1.0996
 Frc consts  --      6.1532                 6.2033                 6.2504
 IR Inten    --     57.7414                45.8563                11.3688

                     85                     86                     87
                      A                      A                      A
 Frequencies --   3109.3309              3115.7264              3121.6089
 Red. masses --      1.1012                 1.0994                 1.1000
 Frc consts  --      6.2726                 6.2880                 6.3152
 IR Inten    --     44.7053                74.3510                19.3720

                     88                     89                     90
                      A                      A                      A
 Frequencies --   3132.0143              3136.0080              3143.1142
 Red. masses --      1.1011                 1.1022                 1.0539
 Frc consts  --      6.3641                 6.3864                 6.1347
 IR Inten    --     33.2051                32.0244                31.3062

                     91                     92                     93
                      A                      A                      A
 Frequencies --   3147.5058              3216.2756              3229.6822
 Red. masses --      1.0580                 1.1172                 1.1148
 Frc consts  --      6.1752                 6.8090                 6.8513
 IR Inten    --     16.1867                 0.9205                26.4187

 - Thermochemistry -
 -------------------
 Temperature   298.150 Kelvin.  Pressure   1.00000 Atm.
 Atom     1 has atomic number  6 and mass  12.00000

 Molecular mass:   167.16740 amu.
 Principal axes and moments of inertia in atomic units:
                           1         2         3
     Eigenvalues --  1069.176842945.063653274.77237
           X            0.99992  -0.01080   0.00583
           Y            0.01079   0.99994   0.00202
           Z           -0.00585  -0.00196   0.99998
 This molecule is an asymmetric top.
 Rotational symmetry number  1.
 Warning -- assumption of classical behavior for rotation
           may cause significant error
 Rotational temperatures (Kelvin)      0.08101     0.02941     0.02645
 Rotational constants (GHZ):           1.68797     0.61280     0.55110
 Zero-point vibrational energy     805836.9 (Joules/Mol)
                                  192.59965 (Kcal/Mol)
 Warning -- explicit consideration of  20 degrees of freedom as
           vibrations may cause significant error
 Vibrational temperatures:     83.89   101.03   168.34   226.94   312.62
          (Kelvin)            335.78   386.04   400.35   407.22   418.91
                              435.49   465.32   527.07   564.26   605.88
                              643.16   682.58   743.35   818.27   884.78
                              957.43  1060.54  1140.56  1197.65  1263.73
                             1286.06  1297.12  1335.15  1345.74  1355.15
                             1360.53  1372.19  1427.82  1441.46  1514.99
                             1523.76  1551.34  1557.14  1600.90  1621.54
                             1642.18  1647.04  1688.36  1722.45  1736.23
                             1756.09  1777.39  1845.55  1853.54  1920.63
                             1956.54  1964.45  1991.08  2000.25  2028.43
                             2038.90  2042.86  2047.02  2064.05  2075.84
                             2079.03  2145.78  2163.10  2171.07  2174.54
                             2186.04  2192.75  2201.77  2207.07  2211.84
                             2216.31  2219.42  4296.27  4323.17  4346.04
                             4370.11  4371.22  4381.49  4387.77  4390.70
                             4427.53  4432.24  4463.52  4468.90  4473.63
                             4482.84  4491.30  4506.27  4512.02  4522.24
                             4528.56  4627.50  4646.79

 Zero-point correction=                           0.306927 (Hartree/Particle)
 Thermal correction to Energy=                    0.319636
 Thermal correction to Enthalpy=                  0.320580
 Thermal correction to Gibbs Free Energy=         0.269080
 Sum of electronic and zero-point Energies=           -486.286387
 Sum of electronic and thermal Energies=              -486.273678
 Sum of electronic and thermal Enthalpies=            -486.272734
 Sum of electronic and thermal Free Energies=         -486.324234

                     E (Thermal)             CV                S
                      KCal/Mol        Cal/Mol-Kelvin    Cal/Mol-Kelvin
 Total                  200.574             50.966            108.391
 Electronic               0.000              0.000              0.000
 Translational            0.889              2.981             41.250
 Rotational               0.889              2.981             30.712
 Vibrational            198.797             45.004             36.430
 Vibration     1          0.596              1.974              4.514
 Vibration     2          0.598              1.968              4.147
 Vibration     3          0.608              1.935              3.149
 Vibration     4          0.621              1.894              2.577
 Vibration     5          0.646              1.815              1.982
 Vibration     6          0.654              1.790              1.853
 Vibration     7          0.673              1.731              1.607
 Vibration     8          0.679              1.714              1.544
 Vibration     9          0.682              1.705              1.515
 Vibration    10          0.687              1.690              1.467
 Vibration    11          0.694              1.669              1.402
 Vibration    12          0.708              1.629              1.293
 Vibration    13          0.739              1.542              1.095
 Vibration    14          0.760              1.487              0.992
 Vibration    15          0.784              1.424              0.888
 Vibration    16          0.806              1.367              0.805
 Vibration    17          0.831              1.307              0.725
 Vibration    18          0.872              1.213              0.618
 Vibration    19          0.925              1.099              0.507
 Vibration    20          0.974              1.000              0.425

                           ! Non-Optimized Parameters !
 Normal termination of Gaussian 16 at Wed Dec  9 17:28:36 2020.

 ----------------------------------------------------------------------
 # B3LYP/6-311++G(d,p) empiricaldispersion=gd3bj scf=xqc pop=npa geom=c
 heck
 ----------------------------------------------------------------------

 ---------------------------------------
 CID_154609117_JID_2372_Energie_neutraal
 ---------------------------------------
 Structure from the checkpoint file:  "JID_2372.chk"
 Charge =  0 Multiplicity = 1

 SCF Done:  E(RB3LYP) =  -486.723985787     A.U. after   13 cycles
 Normal termination of Gaussian 16 at Wed Dec  9 17:32:25 2020.

 ----------------------------------------------------------------------
 # B3LYP/6-311++G(d,p) empiricaldispersion=gd3bj scf=xqc pop=npa geom=c
 heck
 ----------------------------------------------------------------------

 -------------------------------------
 CID_154609117_JID_2372_Energie_kation
 -------------------------------------
 Structure from the checkpoint file:  "JID_2372.chk"
 Charge =  1 Multiplicity = 2

 SCF Done:  E(UB3LYP) =  -486.460372690     A.U. after   16 cycles
 Normal termination of Gaussian 16 at Wed Dec  9 17:39:53 2020.
 Gaussian 16:  ES64L-G16RevA.03 25-Dec-2016

 ----------------------------------------------------------------------
 # B3LYP/6-311++G(d,p) empiricaldispersion=gd3bj scf=xqc pop=npa geom=c
 heck
 ----------------------------------------------------------------------

 ------------------------------------
 CID_154609117_JID_2372_Energie_anion
 ------------------------------------
 Structure from the checkpoint file:  "JID_2372.chk"
 Charge = -1 Multiplicity = 2

                         Standard orientation:
 ---------------------------------------------------------------------
 Center     Atomic      Atomic             Coordinates (Angstroms)
 Number     Number       Type             X           Y           Z
 ---------------------------------------------------------------------
      1          6           0       -2.065023    2.072639    0.050061
      2          6           0       -1.027376    0.966792    0.254105
      3          6           0        0.096635    1.101174   -0.801283
      4          7           0        1.168021    0.121344   -0.722794
      5          6           0        0.664340   -1.246409   -0.685271
      6          6           0       -0.439373   -1.483585    0.361815
      7          6           0       -1.561274   -0.466940    0.201670
      8          6           0       -2.679948   -0.835173   -0.747806
      9          6           0       -2.915636   -0.834905    0.746955
     10          6           0        2.346104    0.456486    0.083102
     11          6           0        2.261587    0.150785    1.592084
     12          6           0        3.602527   -0.189200   -0.518618
     13          1           0       -2.881529    2.013920    0.776765
     14          1           0       -2.501459    2.036715   -0.954818
     15          1           0       -1.593767    3.055558    0.164978
     16          1           0       -0.581031    1.107289    1.249406
     17          1           0        0.537276    2.103752   -0.752181
     18          1           0       -0.379211    1.010293   -1.791808
     19          1           0        0.248109   -1.483199   -1.676705
     20          1           0        1.499839   -1.933988   -0.523213
     21          1           0       -0.022233   -1.409121    1.373641
     22          1           0       -0.835383   -2.502001    0.252518
     23          1           0       -3.156592   -0.055471   -1.333943
     24          1           0       -2.617617   -1.792263   -1.259522
     25          1           0       -3.011587   -1.792716    1.252683
     26          1           0       -3.550199   -0.055528    1.158403
     27          1           0        2.461307    1.542804   -0.023704
     28          1           0        2.186502   -0.927474    1.773524
     29          1           0        3.163681    0.507689    2.103611
     30          1           0        1.397213    0.634983    2.055924
     31          1           0        3.681511    0.054752   -1.581948
     32          1           0        4.503200    0.165577   -0.004640
     33          1           0        3.580449   -1.280962   -0.420299
 ---------------------------------------------------------------------

 SCF Done:  E(UB3LYP) =  -486.705455874     A.U. after   31 cycles

 The electronic state is 2-A.
 Alpha  occ. eigenvalues --  -14.18920 -10.09528 -10.08543 -10.08428 -10.08012
 Alpha  occ. eigenvalues --  -10.06932 -10.06717 -10.06677 -10.06061 -10.05791
 Alpha  occ. eigenvalues --  -10.05092 -10.05046  -0.82066  -0.76556  -0.68305
 Alpha  occ. eigenvalues --   -0.66643  -0.63345  -0.58311  -0.57400  -0.52355
 Alpha  occ. eigenvalues --   -0.50837  -0.50024  -0.45654  -0.42689  -0.39375
 Alpha  occ. eigenvalues --   -0.38681  -0.37329  -0.34257  -0.33382  -0.32814
 Alpha  occ. eigenvalues --   -0.32233  -0.30707  -0.29738  -0.29399  -0.28348
 Alpha  occ. eigenvalues --   -0.27882  -0.26933  -0.26525  -0.25890  -0.24597
 Alpha  occ. eigenvalues --   -0.23860  -0.22966  -0.22145  -0.21049  -0.18881
 Alpha  occ. eigenvalues --   -0.17609  -0.09399   0.04749
 Alpha virt. eigenvalues --    0.06723   0.06962   0.07821   0.08731   0.08878
 Alpha virt. eigenvalues --    0.09306   0.10151   0.10240   0.11151   0.11375
 Alpha virt. eigenvalues --    0.11852   0.12453   0.12574   0.13479   0.13891

  Beta  occ. eigenvalues --  -14.18920 -10.09515 -10.08526 -10.08417 -10.08013
  Beta  occ. eigenvalues --  -10.06921 -10.06697 -10.06659 -10.06046 -10.05761
  Beta  occ. eigenvalues --  -10.05063 -10.05016  -0.82053  -0.76543  -0.68277
  Beta  occ. eigenvalues --   -0.66611  -0.63316  -0.58255  -0.57347  -0.52307
  Beta  occ. eigenvalues --   -0.50787  -0.49966  -0.45604  -0.42649  -0.39343
  Beta  occ. eigenvalues --   -0.38656  -0.37295  -0.34224  -0.33345  -0.32771
  Beta  occ. eigenvalues --   -0.32202  -0.30677  -0.29703  -0.29364  -0.28315
  Beta  occ. eigenvalues --   -0.27848  -0.26902  -0.26489  -0.25867  -0.24563
  Beta  occ. eigenvalues --   -0.23824  -0.22938  -0.22105  -0.21018  -0.18857
  Beta  occ. eigenvalues --   -0.17583  -0.09380
  Beta virt. eigenvalues --    0.06874   0.07563   0.07855   0.08137   0.09378
  Beta virt. eigenvalues --    0.09514   0.09719   0.10521   0.10581   0.11633
  Beta virt. eigenvalues --    0.11818   0.12214   0.12758   0.12924   0.13771

 Mulliken charges and spin densities:
               1          2
     1  C    1.516902  -2.257654
     2  C   -1.489166   1.962362
     3  C    0.047959  -0.826404
     4  N    0.133964   0.099761
     5  C    1.089890  -1.531844
     6  C    0.725425  -0.989293
     7  C   -1.043769   1.625439
     8  C    0.324397  -0.948862
     9  C   -0.131434  -0.233218
    10  C   -2.086082   1.963203
    11  C    1.505443  -2.076274
    12  C    0.645921  -1.106360
    13  H   -0.226784   0.357648
    14  H   -0.049001   0.180374
    15  H   -0.296333   0.451637
    16  H    0.010591   0.176514
    17  H    0.099430   0.057688
    18  H    0.061410   0.112791
    19  H    0.289104  -0.131359
    20  H   -0.029035   0.166864
    21  H    0.150633  -0.003995
    22  H   -0.335530   0.501104
    23  H    0.081883   0.049380
    24  H   -0.169665   0.323626
    25  H   -0.252612   0.390662
    26  H   -0.059733   0.190354
    27  H   -0.427751   0.558172
    28  H   -0.038587   0.189667
    29  H   -0.270484   0.422903
    30  H   -0.198040   0.331927
    31  H   -0.002157   0.156503
    32  H   -0.317527   0.446684
    33  H   -0.259262   0.390000
 Sum of Mulliken charges =  -1.00000   1.00000

 Dipole moment (field-independent basis, Debye):
    X=             -1.8695    Y=             -1.1459    Z=             -1.8780  Tot=              2.8870
 Quadrupole moment (field-independent basis, Debye-Ang):
   XX=           -151.0326   YY=           -126.1896   ZZ=           -111.8171
   XY=             -0.9603   XZ=             -2.6545   YZ=             -2.8153

 Summary of Natural Population Analysis:

                                       Natural Population
                Natural  -----------------------------------------------
    Atom  No    Charge         Core      Valence    Rydberg      Total
 -----------------------------------------------------------------------
      C    1   -0.28653      0.99965     2.28045    0.00644     3.28653
      C    2   -0.11551      0.99954     2.10574    0.01022     3.11551
      C    3   -0.07441      0.99959     2.06322    0.01161     3.07441
      N    4   -0.28583      0.99971     2.77219    0.01394     3.78583
      C    5   -0.08242      0.99960     2.07147    0.01135     3.08242
      C    6   -0.19264      0.99958     2.18407    0.00899     3.19264
      C    7   -0.04139      0.99953     2.02844    0.01341     3.04139
      C    8   -0.19897      0.99958     2.19069    0.00869     3.19897
      C    9   -0.19522      0.99958     2.18688    0.00876     3.19522
      C   10   -0.00140      0.99959     1.98888    0.01293     3.00140
      C   11   -0.29581      0.99964     2.29018    0.00599     3.29581
      C   12   -0.28674      0.99964     2.28070    0.00639     3.28674
      H   13    0.10097      0.00000     0.39783    0.00121     0.39903
      H   14    0.09596      0.00000     0.40291    0.00113     0.40404
      H   15    0.10268      0.00000     0.39624    0.00108     0.39732
      H   16    0.09629      0.00000     0.40150    0.00221     0.40371
      H   17    0.09722      0.00000     0.40138    0.00139     0.40278
      H   18    0.08838      0.00000     0.41024    0.00138     0.41162
      H   19    0.09003      0.00000     0.40870    0.00128     0.40997
      H   20    0.09820      0.00000     0.40075    0.00105     0.40180
      H   21    0.09860      0.00000     0.39978    0.00162     0.40140
      H   22    0.09837      0.00000     0.40019    0.00144     0.40163
      H   23    0.10236      0.00000     0.39665    0.00099     0.39764
      H   24    0.10094      0.00000     0.39794    0.00112     0.39906
      H   25    0.10069      0.00000     0.39826    0.00106     0.39931
      H   26    0.10242      0.00000     0.39656    0.00102     0.39758
      H   27    0.09306      0.00000     0.40532    0.00162     0.40694
      H   28    0.09572      0.00000     0.40307    0.00122     0.40428
      H   29    0.10054      0.00000     0.39820    0.00125     0.39946
      H   30    0.09935      0.00000     0.39908    0.00157     0.40065
      H   31    0.10116      0.00000     0.39740    0.00143     0.39884
      H   32    0.09906      0.00000     0.39988    0.00106     0.40094
      H   33    0.09488      0.00000     0.40393    0.00119     0.40512
 =======================================================================
   * Total *   -0.00000     11.99524    34.85872    0.14604    47.00000

 Normal termination of Gaussian 16 at Wed Dec  9 17:54:26 2020.
