 Gaussian 16, Revision A.03,

 -----------------------------------------------------------
 # opt freq B3LYP/6-31G(d) empiricaldispersion=gd3bj scf=xqc
 -----------------------------------------------------------

 ------------------------------
 CID_82490458_JID_2010_neutraal
 ------------------------------
 Symbolic Z-matrix:
 Charge =  0 Multiplicity = 1

 SCF Done:  E(RB3LYP) =  -536.097324190     A.U. after   14 cycles
 SCF Done:  E(RB3LYP) =  -536.104703013     A.U. after   12 cycles
 SCF Done:  E(RB3LYP) =  -536.106173268     A.U. after   11 cycles
 SCF Done:  E(RB3LYP) =  -536.106445327     A.U. after   11 cycles
 SCF Done:  E(RB3LYP) =  -536.106531629     A.U. after   10 cycles
 SCF Done:  E(RB3LYP) =  -536.106565068     A.U. after   10 cycles
 SCF Done:  E(RB3LYP) =  -536.106586704     A.U. after   10 cycles
 SCF Done:  E(RB3LYP) =  -536.106605863     A.U. after   10 cycles
 SCF Done:  E(RB3LYP) =  -536.106617262     A.U. after   10 cycles
 SCF Done:  E(RB3LYP) =  -536.106620127     A.U. after    8 cycles
 SCF Done:  E(RB3LYP) =  -536.106620994     A.U. after    8 cycles
 SCF Done:  E(RB3LYP) =  -536.106621202     A.U. after    7 cycles
 SCF Done:  E(RB3LYP) =  -536.106621409     A.U. after    7 cycles
 SCF Done:  E(RB3LYP) =  -536.106621492     A.U. after    7 cycles
 Optimization completed.
    -- Stationary point found.
 Normal termination of Gaussian 16 at Wed Dec  9 16:46:42 2020.

 --------------------------------------------------------------------
 #N Geom=AllCheck Guess=TCheck SCRF=Check GenChk RB3LYP/6-31G(d) Freq
 --------------------------------------------------------------------

 Structure from the checkpoint file:  "JID_2010.chk"
 ------------------------------
 CID_82490458_JID_2010_neutraal
 ------------------------------
 Charge =  0 Multiplicity = 1

 SCF Done:  E(RB3LYP) =  -536.106621492     A.U. after    1 cycles

  Exact polarizability: 154.627   1.378 126.481  -1.061  -2.343  61.085
 Approx polarizability: 220.412   0.422 195.151  -2.198  -3.534  91.942

                      1                      2                      3
                      A                      A                      A
 Frequencies --     68.4465                73.2655                93.0042
 Red. masses --      2.7252                 2.0083                 1.3753
 Frc consts  --      0.0075                 0.0064                 0.0070
 IR Inten    --      4.6963                 4.3603                 0.2387

                      4                      5                      6
                      A                      A                      A
 Frequencies --    115.1191               149.9696               170.4372
 Red. masses --      1.5383                 2.0789                 2.3595
 Frc consts  --      0.0120                 0.0275                 0.0404
 IR Inten    --      0.2388                 1.0537                 1.6297

                      7                      8                      9
                      A                      A                      A
 Frequencies --    194.2129               203.4014               264.4112
 Red. masses --      1.7656                 1.6468                 1.8695
 Frc consts  --      0.0392                 0.0401                 0.0770
 IR Inten    --     47.8951                20.4169                 1.3540

                     10                     11                     12
                      A                      A                      A
 Frequencies --    268.0391               274.1318               359.1805
 Red. masses --      2.8978                 1.5039                 2.4905
 Frc consts  --      0.1227                 0.0666                 0.1893
 IR Inten    --      7.9746                 2.3836                 0.1831

                     13                     14                     15
                      A                      A                      A
 Frequencies --    363.4788               378.6755               386.4141
 Red. masses --      3.6966                 3.6881                 4.8575
 Frc consts  --      0.2877                 0.3116                 0.4273
 IR Inten    --      1.2373                 4.1803                 6.5287

                     16                     17                     18
                      A                      A                      A
 Frequencies --    502.4864               508.3390               512.1823
 Red. masses --      4.7692                 3.8818                 4.6192
 Frc consts  --      0.7095                 0.5910                 0.7139
 IR Inten    --      5.7841                 2.7378                 5.4320

                     19                     20                     21
                      A                      A                      A
 Frequencies --    596.6596               606.2370               690.2977
 Red. masses --      3.1529                 3.3157                 4.0223
 Frc consts  --      0.6613                 0.7180                 1.1293
 IR Inten    --     16.0582                 2.9998                25.4833

                     22                     23                     24
                      A                      A                      A
 Frequencies --    708.1219               731.0376               804.5919
 Red. masses --      4.1046                 4.6879                 1.5211
 Frc consts  --      1.2127                 1.4761                 0.5802
 IR Inten    --     56.5791                 8.9677                33.1418

                     25                     26                     27
                      A                      A                      A
 Frequencies --    846.1348               884.8130               911.7917
 Red. masses --      2.3816                 2.0628                 1.3247
 Frc consts  --      1.0046                 0.9515                 0.6489
 IR Inten    --     62.8278                27.6116                 1.7103

                     28                     29                     30
                      A                      A                      A
 Frequencies --    967.5060              1016.8061              1054.5509
 Red. masses --      2.2601                 2.3029                 2.1194
 Frc consts  --      1.2465                 1.4028                 1.3887
 IR Inten    --      9.0720                29.3125                 3.2498

                     31                     32                     33
                      A                      A                      A
 Frequencies --   1056.4715              1082.3496              1112.3902
 Red. masses --      1.4130                 1.5482                 2.3442
 Frc consts  --      0.9292                 1.0686                 1.7091
 IR Inten    --      3.3695                 5.5068                 4.5815

                     34                     35                     36
                      A                      A                      A
 Frequencies --   1154.0472              1188.1053              1201.8874
 Red. masses --      3.7023                 1.2729                 1.4023
 Frc consts  --      2.9052                 1.0587                 1.1935
 IR Inten    --    130.2800                 0.9997                32.4419

                     37                     38                     39
                      A                      A                      A
 Frequencies --   1215.1571              1232.0798              1241.4014
 Red. masses --      1.4860                 1.3575                 2.2952
 Frc consts  --      1.2928                 1.2141                 2.0840
 IR Inten    --     31.9433                 1.0890                17.1713

                     40                     41                     42
                      A                      A                      A
 Frequencies --   1269.9249              1308.4257              1322.6541
 Red. masses --      1.8526                 3.9631                 2.3447
 Frc consts  --      1.7603                 3.9975                 2.4168
 IR Inten    --     50.8173               133.3801                34.6241

                     43                     44                     45
                      A                      A                      A
 Frequencies --   1389.6286              1433.4005              1442.5735
 Red. masses --      3.0656                 1.2721                 1.2152
 Frc consts  --      3.4879                 1.5400                 1.4899
 IR Inten    --     16.6023                 0.8348                 2.8421

                     46                     47                     48
                      A                      A                      A
 Frequencies --   1486.4943              1493.1579              1508.9750
 Red. masses --      2.1877                 1.7718                 1.1627
 Frc consts  --      2.8481                 2.3275                 1.5598
 IR Inten    --     21.5328                32.3159                 1.8121

                     49                     50                     51
                      A                      A                      A
 Frequencies --   1519.6954              1521.3070              1523.4766
 Red. masses --      1.0485                 1.1955                 1.1676
 Frc consts  --      1.4267                 1.6302                 1.5967
 IR Inten    --      4.7413                13.7397                24.2839

                     52                     53                     54
                      A                      A                      A
 Frequencies --   1535.3903              1538.4014              1548.1032
 Red. masses --      1.0601                 1.0806                 1.4195
 Frc consts  --      1.4724                 1.5068                 2.0044
 IR Inten    --      5.1786                63.7947                46.5968

                     55                     56                     57
                      A                      A                      A
 Frequencies --   1548.6293              1648.5280              1663.0144
 Red. masses --      1.2769                 6.2237                 5.9084
 Frc consts  --      1.8043                 9.9654                 9.6274
 IR Inten    --     38.4700                11.6372                 6.3568

                     58                     59                     60
                      A                      A                      A
 Frequencies --   1700.6613              3017.6136              3021.7019
 Red. masses --      1.0779                 1.0350                 1.0540
 Frc consts  --      1.8367                 5.5531                 5.6700
 IR Inten    --     46.2689                69.9928                33.1921

                     61                     62                     63
                      A                      A                      A
 Frequencies --   3042.0086              3072.8622              3093.4411
 Red. masses --      1.0462                 1.1062                 1.0940
 Frc consts  --      5.7042                 6.1541                 6.1679
 IR Inten    --     30.4695                48.5767                31.6081

                     64                     65                     66
                      A                      A                      A
 Frequencies --   3098.9240              3145.6033              3150.2392
 Red. masses --      1.0840                 1.1001                 1.0991
 Frc consts  --      6.1331                 6.4132                 6.4265
 IR Inten    --     10.7052                12.6020                31.8378

                     67                     68                     69
                      A                      A                      A
 Frequencies --   3171.0214              3220.0234              3235.4248
 Red. masses --      1.0954                 1.0867                 1.0929
 Frc consts  --      6.4899                 6.6385                 6.7407
 IR Inten    --      6.5698                10.4850                 8.4292

                     70                     71                     72
                      A                      A                      A
 Frequencies --   3405.8167              3474.8356              3499.0881
 Red. masses --      1.0517                 1.0769                 1.0893
 Frc consts  --      7.1876                 7.6611                 7.8577
 IR Inten    --      4.2083                 1.2668                 0.7184

 - Thermochemistry -
 -------------------
 Temperature   298.150 Kelvin.  Pressure   1.00000 Atm.
 Atom     1 has atomic number  6 and mass  12.00000

 Molecular mass:   166.11061 amu.
 Principal axes and moments of inertia in atomic units:
                           1         2         3
     Eigenvalues --  1175.181112798.128183929.06381
           X            0.99988   0.01543   0.00102
           Y           -0.01543   0.99987  -0.00425
           Z           -0.00109   0.00424   0.99999
 This molecule is an asymmetric top.
 Rotational symmetry number  1.
 Warning -- assumption of classical behavior for rotation
           may cause significant error
 Rotational temperatures (Kelvin)      0.07370     0.03095     0.02204
 Rotational constants (GHZ):           1.53571     0.64498     0.45933
 Zero-point vibrational energy     587597.8 (Joules/Mol)
                                  140.43924 (Kcal/Mol)
 Warning -- explicit consideration of  20 degrees of freedom as
           vibrations may cause significant error
 Vibrational temperatures:     98.48   105.41   133.81   165.63   215.77
          (Kelvin)            245.22   279.43   292.65   380.43   385.65
                              394.41   516.78   522.96   544.83   555.96
                              722.97   731.39   736.92   858.46   872.24
                              993.18  1018.83  1051.80  1157.63  1217.40
                             1273.05  1311.86  1392.03  1462.96  1517.26
                             1520.03  1557.26  1600.48  1660.42  1709.42
                             1729.25  1748.34  1772.69  1786.10  1827.14
                             1882.53  1903.00  1999.37  2062.34  2075.54
                             2138.73  2148.32  2171.08  2186.50  2188.82
                             2191.94  2209.08  2213.42  2227.38  2228.13
                             2371.86  2392.71  2446.87  4341.67  4347.56
                             4376.77  4421.16  4450.77  4458.66  4525.82
                             4532.49  4562.39  4632.90  4655.05  4900.21
                             4999.51  5034.41

 Zero-point correction=                           0.223804 (Hartree/Particle)
 Thermal correction to Energy=                    0.236729
 Thermal correction to Enthalpy=                  0.237674
 Thermal correction to Gibbs Free Energy=         0.184921
 Sum of electronic and zero-point Energies=           -535.882817
 Sum of electronic and thermal Energies=              -535.869892
 Sum of electronic and thermal Enthalpies=            -535.868948
 Sum of electronic and thermal Free Energies=         -535.921700

                     E (Thermal)             CV                S
                      KCal/Mol        Cal/Mol-Kelvin    Cal/Mol-Kelvin
 Total                  148.550             47.728            111.026
 Electronic               0.000              0.000              0.000
 Translational            0.889              2.981             41.231
 Rotational               0.889              2.981             30.936
 Vibrational            146.772             41.767             38.859
 Vibration     1          0.598              1.969              4.198
 Vibration     2          0.599              1.967              4.064
 Vibration     3          0.602              1.954              3.596
 Vibration     4          0.608              1.937              3.181
 Vibration     5          0.618              1.903              2.673
 Vibration     6          0.626              1.879              2.431
 Vibration     7          0.635              1.848              2.187
 Vibration     8          0.639              1.835              2.102
 Vibration     9          0.671              1.738              1.632
 Vibration    10          0.673              1.732              1.609
 Vibration    11          0.676              1.721              1.570
 Vibration    12          0.734              1.556              1.126
 Vibration    13          0.737              1.547              1.107
 Vibration    14          0.749              1.516              1.044
 Vibration    15          0.755              1.499              1.014
 Vibration    16          0.858              1.244              0.652
 Vibration    17          0.864              1.232              0.638
 Vibration    18          0.867              1.223              0.628
 Vibration    19          0.955              1.039              0.455
 Vibration    20          0.965              1.019              0.439

                           ! Non-Optimized Parameters !
 Normal termination of Gaussian 16 at Wed Dec  9 16:52:27 2020.

 ----------------------------------------------------------------------
 # B3LYP/6-311++G(d,p) empiricaldispersion=gd3bj scf=xqc pop=npa geom=c
 heck
 ----------------------------------------------------------------------

 --------------------------------------
 CID_82490458_JID_2010_Energie_neutraal
 --------------------------------------
 Structure from the checkpoint file:  "JID_2010.chk"
 Charge =  0 Multiplicity = 1

 SCF Done:  E(RB3LYP) =  -536.262469382     A.U. after   14 cycles
 Normal termination of Gaussian 16 at Wed Dec  9 16:54:34 2020.

 ----------------------------------------------------------------------
 # B3LYP/6-311++G(d,p) empiricaldispersion=gd3bj scf=xqc pop=npa geom=c
 heck
 ----------------------------------------------------------------------

 ------------------------------------
 CID_82490458_JID_2010_Energie_kation
 ------------------------------------
 Structure from the checkpoint file:  "JID_2010.chk"
 Charge =  1 Multiplicity = 2

 SCF Done:  E(UB3LYP) =  -536.007085123     A.U. after   22 cycles
 Normal termination of Gaussian 16 at Wed Dec  9 16:58:48 2020.
 Gaussian 16:  ES64L-G16RevA.03 25-Dec-2016

 ----------------------------------------------------------------------
 # B3LYP/6-311++G(d,p) empiricaldispersion=gd3bj scf=xqc pop=npa geom=c
 heck
 ----------------------------------------------------------------------

 -----------------------------------
 CID_82490458_JID_2010_Energie_anion
 -----------------------------------
 Structure from the checkpoint file:  "JID_2010.chk"
 Charge = -1 Multiplicity = 2

                         Standard orientation:
 ---------------------------------------------------------------------
 Center     Atomic      Atomic             Coordinates (Angstroms)
 Number     Number       Type             X           Y           Z
 ---------------------------------------------------------------------
      1          6           0        1.463995    2.274524    0.041152
      2          6           0        0.686643    0.981092    0.006822
      3          6           0        1.396806   -0.241371   -0.020580
      4          6           0        0.699709   -1.447050   -0.032625
      5          6           0       -0.696221   -1.455589   -0.008743
      6          6           0       -1.400726   -0.254355    0.005551
      7          6           0       -0.713391    0.978010   -0.001413
      8          6           0       -1.497047    2.269928   -0.007729
      9          8           0       -2.773422   -0.179246    0.026614
     10          6           0       -3.501659   -1.389962   -0.009273
     11          7           0        2.819967   -0.180172    0.028364
     12          7           0        3.453339   -1.499207   -0.047008
     13          1           0        1.742578    2.613850   -0.968046
     14          1           0        0.892861    3.082878    0.503128
     15          1           0        2.391759    2.140190    0.606360
     16          1           0        1.240066   -2.383568   -0.097699
     17          1           0       -1.215246   -2.406536   -0.016330
     18          1           0       -2.554575    2.079020   -0.190518
     19          1           0       -1.415027    2.795781    0.952873
     20          1           0       -1.131697    2.953957   -0.781638
     21          1           0       -3.287640   -1.965383   -0.920457
     22          1           0       -3.287563   -2.018399    0.866181
     23          1           0       -4.556477   -1.108140   -0.000130
     24          1           0        3.163447    0.332597   -0.782812
     25          1           0        4.447989   -1.286337    0.057845
     26          1           0        3.215105   -1.931658    0.849870
 ---------------------------------------------------------------------

 SCF Done:  E(UB3LYP) =  -536.247607791     A.U. after   33 cycles
 SCF Done:  E(UB3LYP) =  -536.247607791     a.u. after    1 cycles

 The electronic state is 2-A.
 Alpha  occ. eigenvalues --  -19.04920 -14.23368 -14.22213 -10.12260 -10.12190
 Alpha  occ. eigenvalues --  -10.09547 -10.07569 -10.07504 -10.06524 -10.06523
 Alpha  occ. eigenvalues --  -10.06324 -10.06101  -0.96488  -0.86741  -0.75694
 Alpha  occ. eigenvalues --   -0.69604  -0.67708  -0.64036  -0.60964  -0.57980
 Alpha  occ. eigenvalues --   -0.56857  -0.48168  -0.47854  -0.42959  -0.41880
 Alpha  occ. eigenvalues --   -0.40077  -0.36996  -0.35694  -0.34064  -0.33317
 Alpha  occ. eigenvalues --   -0.33107  -0.32018  -0.31035  -0.30109  -0.29782
 Alpha  occ. eigenvalues --   -0.28678  -0.27597  -0.26065  -0.25712  -0.24605
 Alpha  occ. eigenvalues --   -0.22368  -0.20925  -0.14266  -0.13297  -0.08556
 Alpha  occ. eigenvalues --    0.04441
 Alpha virt. eigenvalues --    0.05788   0.06906   0.08428   0.08480   0.09177
 Alpha virt. eigenvalues --    0.09553   0.10313   0.10427   0.10994   0.11677
 Alpha virt. eigenvalues --    0.11953   0.12354   0.13174   0.13977   0.14057

  Beta  occ. eigenvalues --  -19.04913 -14.23337 -14.22156 -10.12221 -10.12190
  Beta  occ. eigenvalues --  -10.09548 -10.07568 -10.07502 -10.06517 -10.06513
  Beta  occ. eigenvalues --  -10.06301 -10.06091  -0.96475  -0.86676  -0.75670
  Beta  occ. eigenvalues --   -0.69526  -0.67693  -0.63973  -0.60925  -0.57933
  Beta  occ. eigenvalues --   -0.56825  -0.48127  -0.47821  -0.42906  -0.41845
  Beta  occ. eigenvalues --   -0.40050  -0.36972  -0.35615  -0.34014  -0.33290
  Beta  occ. eigenvalues --   -0.33063  -0.31976  -0.31008  -0.30086  -0.29754
  Beta  occ. eigenvalues --   -0.28653  -0.27567  -0.26042  -0.25685  -0.24579
  Beta  occ. eigenvalues --   -0.22344  -0.20904  -0.14243  -0.13278  -0.08525
  Beta virt. eigenvalues --    0.06591   0.07084   0.07581   0.08977   0.09150
  Beta virt. eigenvalues --    0.09320   0.09773   0.10755   0.10905   0.11509
  Beta virt. eigenvalues --    0.11774   0.12267   0.12481   0.13402   0.14118

 Mulliken charges and spin densities:
               1          2
     1  C    1.478733  -1.988896
     2  C   -1.307517   2.219541
     3  C   -0.796152  -0.210007
     4  C    0.497565  -0.831015
     5  C    1.936528  -1.526640
     6  C   -0.846061  -0.380777
     7  C   -0.721935   1.283781
     8  C    0.145010  -0.694092
     9  O   -0.219979   0.057902
    10  C    0.820267  -1.114558
    11  N   -0.159735   0.042083
    12  N   -0.065688  -0.261966
    13  H   -0.118876   0.309906
    14  H    0.029589   0.114814
    15  H   -0.148909   0.336096
    16  H   -0.088756   0.295540
    17  H   -0.042049   0.225964
    18  H    0.062609   0.115516
    19  H    0.080465   0.073864
    20  H    0.047535   0.104705
    21  H   -0.161677   0.303011
    22  H   -0.187783   0.330452
    23  H   -0.551662   0.731017
    24  H   -0.193336   0.463826
    25  H   -0.379265   0.657317
    26  H   -0.108920   0.342616
 Sum of Mulliken charges =  -1.00000   1.00000

 Dipole moment (field-independent basis, Debye):
    X=             -3.1299    Y=              2.3185    Z=              0.3442  Tot=              3.9103
 Quadrupole moment (field-independent basis, Debye-Ang):
   XX=           -163.6990   YY=           -109.9857   ZZ=            -99.2444
   XY=             -2.1437   XZ=              0.8946   YZ=              0.1766

 Summary of Natural Population Analysis:

                                       Natural Population
                Natural  -----------------------------------------------
    Atom  No    Charge         Core      Valence    Rydberg      Total
 -----------------------------------------------------------------------
      C    1   -0.30200      0.99964     2.29614    0.00622     3.30200
      C    2   -0.02042      0.99946     2.01066    0.01030     3.02042
      C    3    0.06925      0.99943     1.91885    0.01246     2.93075
      C    4   -0.11808      0.99952     2.10955    0.00901     3.11808
      C    5   -0.13692      0.99952     2.12938    0.00802     3.13692
      C    6    0.15082      0.99933     1.83790    0.01195     2.84918
      C    7   -0.03103      0.99945     2.02264    0.00894     3.03103
      C    8   -0.29666      0.99964     2.29187    0.00516     3.29666
      O    9   -0.27995      0.99986     3.27020    0.00990     4.27995
      C   10   -0.09986      0.99960     2.09053    0.00972     3.09986
      N   11   -0.24085      0.99970     2.72667    0.01448     3.74085
      N   12   -0.32605      0.99978     2.81392    0.01235     3.82605
      H   13    0.10336      0.00000     0.39542    0.00122     0.39664
      H   14    0.10252      0.00000     0.39649    0.00099     0.39748
      H   15    0.11213      0.00000     0.38614    0.00173     0.38787
      H   16    0.10837      0.00000     0.39012    0.00152     0.39163
      H   17    0.10294      0.00000     0.39568    0.00138     0.39706
      H   18    0.11296      0.00000     0.38581    0.00124     0.38704
      H   19    0.10107      0.00000     0.39767    0.00126     0.39893
      H   20    0.10117      0.00000     0.39772    0.00111     0.39883
      H   21    0.08318      0.00000     0.41501    0.00181     0.41682
      H   22    0.08320      0.00000     0.41491    0.00189     0.41680
      H   23    0.09340      0.00000     0.40521    0.00139     0.40660
      H   24    0.17873      0.00000     0.31691    0.00436     0.32127
      H   25    0.17832      0.00000     0.31503    0.00665     0.32168
      H   26    0.17041      0.00000     0.32658    0.00301     0.32959
 =======================================================================
   * Total *    0.00000     11.99493    32.85702    0.14805    45.00000

 Normal termination of Gaussian 16 at Wed Dec  9 17:05:28 2020.
