 Gaussian 16, Revision A.03,

 -----------------------------------------------------------
 # opt freq B3LYP/6-31G(d) empiricaldispersion=gd3bj scf=xqc
 -----------------------------------------------------------

 -------------------------------
 CID_70124219_JID_10646_neutraal
 -------------------------------
 Symbolic Z-matrix:
 Charge =  0 Multiplicity = 1

 SCF Done:  E(RB3LYP) =  -953.580214004     A.U. after   16 cycles
 SCF Done:  E(RB3LYP) =  -953.606363833     A.U. after   13 cycles
 SCF Done:  E(RB3LYP) =  -953.601289008     A.U. after   14 cycles
 SCF Done:  E(RB3LYP) =  -953.609639831     A.U. after   14 cycles
 SCF Done:  E(RB3LYP) =  -953.612288529     A.U. after   13 cycles
 SCF Done:  E(RB3LYP) =  -953.613180725     A.U. after   14 cycles
 SCF Done:  E(RB3LYP) =  -953.615767950     A.U. after   13 cycles
 SCF Done:  E(RB3LYP) =  -953.615571187     A.U. after   13 cycles
 SCF Done:  E(RB3LYP) =  -953.616950735     A.U. after   13 cycles
 SCF Done:  E(RB3LYP) =  -953.616967491     A.U. after   12 cycles
 SCF Done:  E(RB3LYP) =  -953.617165555     A.U. after   10 cycles
 SCF Done:  E(RB3LYP) =  -953.617166234     A.U. after   10 cycles
 SCF Done:  E(RB3LYP) =  -953.617167119     A.U. after    8 cycles
 SCF Done:  E(RB3LYP) =  -953.617167111     A.U. after    7 cycles
 SCF Done:  E(RB3LYP) =  -953.617167185     A.U. after    7 cycles
 Optimization completed.
    -- Stationary point found.
 Normal termination of Gaussian 16 at Sun Dec 13 13:18:30 2020.

 --------------------------------------------------------------------
 #N Geom=AllCheck Guess=TCheck SCRF=Check GenChk RB3LYP/6-31G(d) Freq
 --------------------------------------------------------------------

 Structure from the checkpoint file:  "JID_10646.chk"
 -------------------------------
 CID_70124219_JID_10646_neutraal
 -------------------------------
 Charge =  0 Multiplicity = 1

 SCF Done:  E(RB3LYP) =  -953.617167185     A.U. after    1 cycles

  Exact polarizability: 183.069  -7.071 155.968 -13.709 -11.133 132.042
 Approx polarizability: 241.564  -0.116 266.809 -22.824 -24.438 210.659

                      1                      2                      3
                      A                      A                      A
 Frequencies --     22.9922                32.2059                39.9273
 Red. masses --      5.0066                 6.0891                 5.0727
 Frc consts  --      0.0016                 0.0037                 0.0048
 IR Inten    --      0.0758                 0.6522                 0.5642

                      4                      5                      6
                      A                      A                      A
 Frequencies --     58.4845                60.1913                77.3988
 Red. masses --      7.2011                 5.4488                 8.3027
 Frc consts  --      0.0145                 0.0116                 0.0293
 IR Inten    --      3.7455                 3.8975                 0.4484

                      7                      8                      9
                      A                      A                      A
 Frequencies --     84.4779               101.3948               128.5697
 Red. masses --      8.8806                 6.6641                 7.7121
 Frc consts  --      0.0373                 0.0404                 0.0751
 IR Inten    --      0.6697                 2.8460                 1.9587

                     10                     11                     12
                      A                      A                      A
 Frequencies --    164.8333               174.2460               190.7473
 Red. masses --      5.8784                 7.1275                 4.3919
 Frc consts  --      0.0941                 0.1275                 0.0941
 IR Inten    --      1.7219                 0.1746                 9.2847

                     13                     14                     15
                      A                      A                      A
 Frequencies --    218.2370               246.9062               265.8545
 Red. masses --      4.3242                 4.3203                 3.3546
 Frc consts  --      0.1213                 0.1552                 0.1397
 IR Inten    --      3.9872                 1.4967                 0.6509

                     16                     17                     18
                      A                      A                      A
 Frequencies --    314.6468               343.1667               380.6547
 Red. masses --      3.7317                 4.2334                 2.0976
 Frc consts  --      0.2177                 0.2937                 0.1791
 IR Inten    --      1.4799                10.4935                 1.1002

                     19                     20                     21
                      A                      A                      A
 Frequencies --    389.4492               400.4114               413.8739
 Red. masses --      3.2637                 2.6551                 5.2746
 Frc consts  --      0.2916                 0.2508                 0.5323
 IR Inten    --      0.1934                 3.1832                 0.6294

                     22                     23                     24
                      A                      A                      A
 Frequencies --    417.1596               472.9068               497.9597
 Red. masses --      2.9897                 3.4588                 2.2971
 Frc consts  --      0.3065                 0.4557                 0.3356
 IR Inten    --      0.3621                 4.4465                42.4476

                     25                     26                     27
                      A                      A                      A
 Frequencies --    520.0262               551.6201               562.4487
 Red. masses --      1.4089                 2.5353                 4.3669
 Frc consts  --      0.2245                 0.4545                 0.8139
 IR Inten    --     37.1053                 8.6472                45.4048

                     28                     29                     30
                      A                      A                      A
 Frequencies --    590.4385               621.1233               624.8251
 Red. masses --      3.1133                 4.0052                 3.0921
 Frc consts  --      0.6395                 0.9104                 0.7112
 IR Inten    --     23.7174                17.9842                37.5914

                     31                     32                     33
                      A                      A                      A
 Frequencies --    637.9379               677.6225               710.7434
 Red. masses --      5.9440                 2.1410                 3.4319
 Frc consts  --      1.4252                 0.5792                 1.0214
 IR Inten    --      2.4501                53.4683                20.2599

                     34                     35                     36
                      A                      A                      A
 Frequencies --    721.7467               759.9241               774.3707
 Red. masses --      1.6593                 9.7899                 2.3029
 Frc consts  --      0.5093                 3.3310                 0.8136
 IR Inten    --     46.3786                29.1030                19.4499

                     37                     38                     39
                      A                      A                      A
 Frequencies --    786.6037               816.7920               832.3268
 Red. masses --      2.3819                 2.4209                 3.7519
 Frc consts  --      0.8683                 0.9516                 1.5314
 IR Inten    --     14.6835                 7.4221                 1.3163

                     40                     41                     42
                      A                      A                      A
 Frequencies --    838.6300               865.3967               880.7098
 Red. masses --      3.0091                 1.2454                 3.5755
 Frc consts  --      1.2469                 0.5495                 1.6340
 IR Inten    --     18.0660                 0.1692                13.4184

                     43                     44                     45
                      A                      A                      A
 Frequencies --    928.4451               941.2796               972.8488
 Red. masses --      1.4800                 2.2104                 1.5802
 Frc consts  --      0.7517                 1.1539                 0.8812
 IR Inten    --      0.4694                 1.2414                 2.0607

                     46                     47                     48
                      A                      A                      A
 Frequencies --    975.9723              1000.7342              1004.9185
 Red. masses --      1.8184                 1.3601                 2.0412
 Frc consts  --      1.0205                 0.8025                 1.2145
 IR Inten    --      4.2644                 1.4913                18.5700

                     49                     50                     51
                      A                      A                      A
 Frequencies --   1022.6753              1048.2378              1060.9982
 Red. masses --      6.1593                 2.0659                 2.2367
 Frc consts  --      3.7954                 1.3374                 1.4835
 IR Inten    --      0.5460                 0.7513                 2.2922

                     52                     53                     54
                      A                      A                      A
 Frequencies --   1073.4510              1109.6234              1125.8535
 Red. masses --      2.2402                 2.2381                 3.0917
 Frc consts  --      1.5209                 1.6236                 2.3089
 IR Inten    --      2.8447                36.1004                58.9162

                     55                     56                     57
                      A                      A                      A
 Frequencies --   1132.0528              1184.8836              1191.6257
 Red. masses --      2.5655                 1.8443                 1.9312
 Frc consts  --      1.9371                 1.5256                 1.6157
 IR Inten    --     52.0211               119.6112                37.9479

                     58                     59                     60
                      A                      A                      A
 Frequencies --   1194.9879              1215.8691              1219.5275
 Red. masses --      1.1019                 1.2703                 1.3661
 Frc consts  --      0.9271                 1.1064                 1.1971
 IR Inten    --      0.2988                63.7392                75.8743

                     61                     62                     63
                      A                      A                      A
 Frequencies --   1231.4834              1241.8264              1245.7010
 Red. masses --      1.5714                 2.2291                 1.3053
 Frc consts  --      1.4041                 2.0253                 1.1934
 IR Inten    --     87.4576                65.6167                24.6629

                     64                     65                     66
                      A                      A                      A
 Frequencies --   1313.9067              1324.5265              1347.3398
 Red. masses --      1.2831                 1.7616                 1.4069
 Frc consts  --      1.3051                 1.8209                 1.5048
 IR Inten    --      0.6610                24.0647                 2.1586

                     67                     68                     69
                      A                      A                      A
 Frequencies --   1364.1187              1369.3181              1373.1373
 Red. masses --      1.6197                 2.9949                 1.3681
 Frc consts  --      1.7758                 3.3085                 1.5198
 IR Inten    --      6.3464                 4.6876                12.1980

                     70                     71                     72
                      A                      A                      A
 Frequencies --   1378.1508              1404.9446              1406.1032
 Red. masses --      1.3437                 1.5300                 1.3807
 Frc consts  --      1.5037                 1.7793                 1.6084
 IR Inten    --      5.7026                14.1228                24.8325

                     73                     74                     75
                      A                      A                      A
 Frequencies --   1419.0873              1431.3841              1499.2871
 Red. masses --      1.7612                 1.5213                 1.6050
 Frc consts  --      2.0896                 1.8365                 2.1257
 IR Inten    --     26.0058                 7.4237                81.4645

                     76                     77                     78
                      A                      A                      A
 Frequencies --   1500.1559              1508.5432              1511.5881
 Red. masses --      1.1329                 1.3701                 1.2721
 Frc consts  --      1.5022                 1.8371                 1.7126
 IR Inten    --      5.1372                 0.9672                11.9020

                     79                     80                     81
                      A                      A                      A
 Frequencies --   1515.9573              1524.2620              1548.9526
 Red. masses --      1.3445                 1.3811                 2.2081
 Frc consts  --      1.8205                 1.8906                 3.1213
 IR Inten    --     60.4884                43.1448                 8.1299

                     82                     83                     84
                      A                      A                      A
 Frequencies --   1649.3689              1669.1854              1821.8097
 Red. masses --      5.5451                 5.5257                 8.5088
 Frc consts  --      8.8878                 9.0709                16.6390
 IR Inten    --      1.6313                 0.7594               516.2863

                     85                     86                     87
                      A                      A                      A
 Frequencies --   1847.8640              2370.8604              3030.7193
 Red. masses --     10.1475                12.6010                 1.0810
 Frc consts  --     20.4151                41.7317                 5.8504
 IR Inten    --    256.7863                 9.4981                 8.0797

                     88                     89                     90
                      A                      A                      A
 Frequencies --   3055.4670              3065.8257              3067.5328
 Red. masses --      1.0673                 1.0694                 1.0688
 Frc consts  --      5.8707                 5.9222                 5.9253
 IR Inten    --     10.8975                10.3057                27.8977

                     91                     92                     93
                      A                      A                      A
 Frequencies --   3074.2239              3106.0422              3122.1423
 Red. masses --      1.0660                 1.0994                 1.0971
 Frc consts  --      5.9361                 6.2492                 6.3010
 IR Inten    --     33.3253                 6.1819                22.9586

                     94                     95                     96
                      A                      A                      A
 Frequencies --   3153.3771              3156.1201              3172.4714
 Red. masses --      1.0953                 1.0918                 1.0877
 Frc consts  --      6.4168                 6.4074                 6.4499
 IR Inten    --      2.2894                 0.6992                10.8318

                     97                     98                     99
                      A                      A                      A
 Frequencies --   3186.6302              3197.2081              3207.8556
 Red. masses --      1.0864                 1.0907                 1.0941
 Frc consts  --      6.4999                 6.5692                 6.6337
 IR Inten    --      0.5804                21.0175                22.4440

                    100                    101                    102
                      A                      A                      A
 Frequencies --   3214.6754              3691.2860              3736.6552
 Red. masses --      1.0972                 1.0642                 1.0647
 Frc consts  --      6.6803                 8.5430                 8.7591
 IR Inten    --     12.4598                58.8492               106.9532

 - Thermochemistry -
 -------------------
 Temperature   298.150 Kelvin.  Pressure   1.00000 Atm.
 Atom     1 has atomic number  6 and mass  12.00000

 Molecular mass:   276.11101 amu.
 Principal axes and moments of inertia in atomic units:
                           1         2         3
     Eigenvalues --  2815.506438725.241649428.07811
           X            0.99985  -0.01556  -0.00703
           Y            0.01529   0.99920  -0.03700
           Z            0.00760   0.03688   0.99929
 This molecule is an asymmetric top.
 Rotational symmetry number  1.
 Warning -- assumption of classical behavior for rotation
           may cause significant error
 Rotational temperatures (Kelvin)      0.03076     0.00993     0.00919
 Rotational constants (GHZ):           0.64100     0.20684     0.19142
 Zero-point vibrational energy     764001.4 (Joules/Mol)
                                  182.60072 (Kcal/Mol)
 Warning -- explicit consideration of  28 degrees of freedom as
           vibrations may cause significant error
 Vibrational temperatures:     33.08    46.34    57.45    84.15    86.60
          (Kelvin)            111.36   121.54   145.88   184.98   237.16
                              250.70   274.44   313.99   355.24   382.51
                              452.71   493.74   547.68   560.33   576.10
                              595.47   600.20   680.41   716.45   748.20
                              793.66   809.24   849.51   893.66   898.98
                              917.85   974.95  1022.60  1038.43  1093.36
                             1114.15  1131.75  1175.18  1197.53  1206.60
                             1245.11  1267.14  1335.83  1354.29  1399.71
                             1404.21  1439.83  1445.85  1471.40  1508.18
                             1526.54  1544.46  1596.50  1619.85  1628.77
                             1704.78  1714.48  1719.32  1749.36  1754.63
                             1771.83  1786.71  1792.29  1890.42  1905.70
                             1938.52  1962.66  1970.14  1975.64  1982.85
                             2021.40  2023.07  2041.75  2059.44  2157.14
                             2158.39  2170.46  2174.84  2181.12  2193.07
                             2228.60  2373.07  2401.59  2621.18  2658.66
                             3411.14  4360.53  4396.14  4411.04  4413.50
                             4423.12  4468.90  4492.07  4537.01  4540.95
                             4564.48  4584.85  4600.07  4615.39  4625.20
                             5310.94  5376.21

 Zero-point correction=                           0.290993 (Hartree/Particle)
 Thermal correction to Energy=                    0.309908
 Thermal correction to Enthalpy=                  0.310853
 Thermal correction to Gibbs Free Energy=         0.241627
 Sum of electronic and zero-point Energies=           -953.326174
 Sum of electronic and thermal Energies=              -953.307259
 Sum of electronic and thermal Enthalpies=            -953.306315
 Sum of electronic and thermal Free Energies=         -953.375540

                     E (Thermal)             CV                S
                      KCal/Mol        Cal/Mol-Kelvin    Cal/Mol-Kelvin
 Total                  194.470             70.618            145.698
 Electronic               0.000              0.000              0.000
 Translational            0.889              2.981             42.745
 Rotational               0.889              2.981             33.804
 Vibrational            192.693             64.656             69.149
 Vibration     1          0.593              1.985              6.357
 Vibration     2          0.594              1.983              5.689
 Vibration     3          0.594              1.981              5.263
 Vibration     4          0.596              1.974              4.508
 Vibration     5          0.597              1.973              4.451
 Vibration     6          0.599              1.964              3.956
 Vibration     7          0.601              1.960              3.784
 Vibration     8          0.604              1.948              3.427
 Vibration     9          0.611              1.925              2.967
 Vibration    10          0.623              1.886              2.494
 Vibration    11          0.627              1.874              2.389
 Vibration    12          0.634              1.853              2.221
 Vibration    13          0.646              1.813              1.974
 Vibration    14          0.661              1.768              1.753
 Vibration    15          0.672              1.736              1.623
 Vibration    16          0.702              1.646              1.338
 Vibration    17          0.722              1.589              1.197
 Vibration    18          0.750              1.511              1.037
 Vibration    19          0.757              1.493              1.002
 Vibration    20          0.766              1.469              0.961
 Vibration    21          0.777              1.440              0.913
 Vibration    22          0.780              1.433              0.902
 Vibration    23          0.830              1.310              0.729
 Vibration    24          0.853              1.255              0.663
 Vibration    25          0.875              1.206              0.610
 Vibration    26          0.907              1.136              0.541
 Vibration    27          0.918              1.113              0.519
 Vibration    28          0.948              1.052              0.466

 Optimization completed.
    -- Stationary point found.
 Normal termination of Gaussian 16 at Sun Dec 13 13:37:01 2020.

 ----------------------------------------------------------------------
 # B3LYP/6-311++G(d,p) empiricaldispersion=gd3bj scf=xqc pop=npa geom=c
 heck
 ----------------------------------------------------------------------

 ---------------------------------------
 CID_70124219_JID_10646_Energie_neutraal
 ---------------------------------------
 Structure from the checkpoint file:  "JID_10646.chk"
 Charge =  0 Multiplicity = 1

 SCF Done:  E(RB3LYP) =  -953.901015947     A.U. after   15 cycles
 Normal termination of Gaussian 16 at Sun Dec 13 13:43:31 2020.

 ----------------------------------------------------------------------
 # B3LYP/6-311++G(d,p) empiricaldispersion=gd3bj scf=xqc pop=npa geom=c
 heck
 ----------------------------------------------------------------------

 -------------------------------------
 CID_70124219_JID_10646_Energie_kation
 -------------------------------------
 Structure from the checkpoint file:  "JID_10646.chk"
 Charge =  1 Multiplicity = 2

 SCF Done:  E(UB3LYP) =  -953.576741372     A.U. after   30 cycles
 Normal termination of Gaussian 16 at Sun Dec 13 14:01:07 2020.
 Gaussian 16:  ES64L-G16RevA.03 25-Dec-2016

 ----------------------------------------------------------------------
 # B3LYP/6-311++G(d,p) empiricaldispersion=gd3bj scf=xqc pop=npa geom=c
 heck
 ----------------------------------------------------------------------

 ------------------------------------
 CID_70124219_JID_10646_Energie_anion
 ------------------------------------
 Structure from the checkpoint file:  "JID_10646.chk"
 Charge = -1 Multiplicity = 2

                         Standard orientation:
 ---------------------------------------------------------------------
 Center     Atomic      Atomic             Coordinates (Angstroms)
 Number     Number       Type             X           Y           Z
 ---------------------------------------------------------------------
      1          6           0        4.627591   -1.249089   -0.505725
      2          6           0        4.029580   -1.851124    0.599596
      3          6           0        2.963494   -1.218662    1.244168
      4          6           0        2.491200    0.015991    0.792387
      5          6           0        3.096626    0.614848   -0.320516
      6          6           0        4.158539   -0.014039   -0.963875
      7          6           0        1.321462    0.694432    1.468631
      8          7           0        0.145520    0.794406    0.593581
      9          6           0       -0.531187   -0.456667    0.247774
     10          6           0       -1.711070   -0.807491    1.172632
     11          6           0       -2.831285    0.228793    1.328760
     12          6           0       -3.855394    0.281407    0.176167
     13          6           0       -4.572174   -0.987041    0.026272
     14          7           0       -5.130807   -2.001344   -0.053269
     15          6           0       -0.830544   -0.595797   -1.243523
     16          8           0       -1.829192   -1.095119   -1.708466
     17          8           0        0.216067   -0.199821   -1.999268
     18          6           0       -0.117744    1.999775    0.018078
     19          8           0        0.546543    3.014616    0.147121
     20          8           0       -1.256860    1.973162   -0.737727
     21          1           0        5.456616   -1.737500   -1.009988
     22          1           0        4.388052   -2.810935    0.960571
     23          1           0        2.498453   -1.686629    2.109307
     24          1           0        2.726453    1.573107   -0.672603
     25          1           0        4.624945    0.458652   -1.823724
     26          1           0        1.030927    0.141477    2.369158
     27          1           0        1.574357    1.713427    1.763750
     28          1           0        0.230727   -1.233378    0.404378
     29          1           0       -2.127486   -1.765786    0.844286
     30          1           0       -1.276458   -0.979912    2.164550
     31          1           0       -3.372371    0.003266    2.254531
     32          1           0       -2.403508    1.228013    1.450574
     33          1           0       -4.589427    1.071217    0.376289
     34          1           0       -3.363140    0.517586   -0.768559
     35          1           0       -0.037063   -0.376508   -2.924554
     36          1           0       -1.311107    2.857748   -1.138377
 ---------------------------------------------------------------------

 SCF Done:  E(UB3LYP) =  -953.898091482     A.U. after   33 cycles
 SCF Done:  E(UB3LYP) =  -953.898091482     a.u. after    1 cycles

 The electronic state is 2-A.
 Alpha  occ. eigenvalues --  -19.08152 -19.07458 -19.02651 -19.00777 -14.26387
 Alpha  occ. eigenvalues --  -14.21388 -10.23347 -10.21863 -10.14528 -10.12290
 Alpha  occ. eigenvalues --  -10.11483 -10.11448 -10.09429 -10.09240 -10.09092
 Alpha  occ. eigenvalues --  -10.08791 -10.08740 -10.08647 -10.08589 -10.08012
 Alpha  occ. eigenvalues --   -1.02768  -1.01860  -0.93534  -0.92501  -0.86797
 Alpha  occ. eigenvalues --   -0.81182  -0.77058  -0.73052  -0.69320  -0.67797
 Alpha  occ. eigenvalues --   -0.65917  -0.62003  -0.61329  -0.55154  -0.52974
 Alpha  occ. eigenvalues --   -0.52192  -0.50731  -0.48372  -0.45837  -0.43250
 Alpha  occ. eigenvalues --   -0.43032  -0.41596  -0.40533  -0.39051  -0.38623
 Alpha  occ. eigenvalues --   -0.37934  -0.37428  -0.37114  -0.35948  -0.35353
 Alpha  occ. eigenvalues --   -0.34733  -0.33659  -0.32969  -0.32766  -0.32010
 Alpha  occ. eigenvalues --   -0.31464  -0.30534  -0.28194  -0.28012  -0.27124
 Alpha  occ. eigenvalues --   -0.27092  -0.26597  -0.26089  -0.25587  -0.24202
 Alpha  occ. eigenvalues --   -0.23206  -0.23114  -0.22846  -0.20176  -0.19617
 Alpha  occ. eigenvalues --   -0.17173  -0.16926  -0.16006   0.03558
 Alpha virt. eigenvalues --    0.05546   0.06045   0.06314   0.06941   0.07292
 Alpha virt. eigenvalues --    0.07470   0.08076   0.08231   0.09074   0.09291
 Alpha virt. eigenvalues --    0.09909   0.10656   0.10719   0.12062   0.12121

  Beta  occ. eigenvalues --  -19.08121 -19.07399 -19.02597 -19.00763 -14.26363
  Beta  occ. eigenvalues --  -14.21380 -10.23343 -10.21802 -10.14520 -10.12272
  Beta  occ. eigenvalues --  -10.11481 -10.11434 -10.09411 -10.09221 -10.09076
  Beta  occ. eigenvalues --  -10.08784 -10.08749 -10.08606 -10.08547 -10.07947
  Beta  occ. eigenvalues --   -1.02687  -1.01786  -0.93447  -0.92442  -0.86755
  Beta  occ. eigenvalues --   -0.81168  -0.76984  -0.73013  -0.69252  -0.67727
  Beta  occ. eigenvalues --   -0.65830  -0.61930  -0.61258  -0.55062  -0.52895
  Beta  occ. eigenvalues --   -0.52120  -0.50666  -0.48280  -0.45762  -0.43198
  Beta  occ. eigenvalues --   -0.42936  -0.41539  -0.40468  -0.38978  -0.38581
  Beta  occ. eigenvalues --   -0.37863  -0.37381  -0.37042  -0.35899  -0.35298
  Beta  occ. eigenvalues --   -0.34614  -0.33624  -0.32920  -0.32722  -0.31944
  Beta  occ. eigenvalues --   -0.31404  -0.30481  -0.28145  -0.27921  -0.27070
  Beta  occ. eigenvalues --   -0.27022  -0.26566  -0.26045  -0.25545  -0.24035
  Beta  occ. eigenvalues --   -0.23140  -0.23083  -0.22809  -0.20123  -0.19581
  Beta  occ. eigenvalues --   -0.17050  -0.16805  -0.15792
  Beta virt. eigenvalues --    0.05719   0.06383   0.06661   0.06874   0.07089
  Beta virt. eigenvalues --    0.07662   0.07981   0.08507   0.08726   0.09261
  Beta virt. eigenvalues --    0.09719   0.10056   0.10657   0.10840   0.12133

 Mulliken charges and spin densities:
               1          2
     1  C    0.405624  -0.727041
     2  C    0.317531  -0.606833
     3  C   -0.429410   0.456509
     4  C    0.316611   0.944487
     5  C   -0.651103   0.299318
     6  C   -0.430480   0.059299
     7  C    0.720144  -1.762213
     8  N    0.298585   0.030494
     9  C   -0.307563  -0.074007
    10  C    0.526136  -1.087249
    11  C   -0.519160   0.468165
    12  C    0.375632  -0.212841
    13  C    0.173892  -0.558806
    14  N   -0.341943   0.030073
    15  C   -0.362660   0.115437
    16  O   -0.252509   0.019556
    17  O   -0.169297   0.057817
    18  C    0.483708  -0.296467
    19  O   -0.323432   0.016538
    20  O   -0.312900   0.086502
    21  H    0.012450   0.120046
    22  H   -0.194637   0.361809
    23  H   -0.369460   0.538407
    24  H    0.171045   0.013833
    25  H   -0.067953   0.238769
    26  H    0.057068   0.106296
    27  H    0.097308   0.139129
    28  H    0.256887  -0.055065
    29  H    0.072013   0.120510
    30  H   -0.042406   0.200385
    31  H   -0.114135   0.307216
    32  H   -0.102807   0.303824
    33  H   -0.214096   0.417414
    34  H    0.169703   0.014778
    35  H    0.045404   0.252900
    36  H   -0.293788   0.661010
 Sum of Mulliken charges =  -1.00000   1.00000

 Dipole moment (field-independent basis, Debye):
    X=              3.6691    Y=              0.1748    Z=              0.4137  Tot=              3.6965
 Quadrupole moment (field-independent basis, Debye-Ang):
   XX=           -203.3276   YY=           -170.0880   ZZ=           -147.0113
   XY=             -8.4874   XZ=             -6.2038   YZ=              2.9815

 Summary of Natural Population Analysis:

                                       Natural Population
                Natural  -----------------------------------------------
    Atom  No    Charge         Core      Valence    Rydberg      Total
 -----------------------------------------------------------------------
      C    1   -0.09709      0.99956     2.08784    0.00969     3.09709
      C    2   -0.09661      0.99956     2.08741    0.00963     3.09661
      C    3   -0.10370      0.99951     2.09391    0.01028     3.10370
      C    4   -0.02799      0.99950     2.01828    0.01021     3.02799
      C    5   -0.08012      0.99951     2.07217    0.00844     3.08012
      C    6   -0.10237      0.99957     2.09337    0.00943     3.10237
      C    7   -0.08819      0.99956     2.07790    0.01072     3.08819
      N    8   -0.26283      0.99962     2.74994    0.01327     3.76283
      C    9   -0.04990      0.99951     2.03638    0.01402     3.04990
      C   10   -0.19549      0.99960     2.18603    0.00986     3.19549
      C   11   -0.18282      0.99961     2.17469    0.00852     3.18282
      C   12   -0.24920      0.99953     2.24208    0.00758     3.24920
      C   13    0.16684      0.99966     1.81651    0.01698     2.83316
      N   14   -0.19319      0.99979     2.68222    0.01118     3.69319
      C   15    0.41740      0.99968     1.55617    0.02674     2.58260
      O   16   -0.30190      0.99987     3.29593    0.00611     4.30190
      O   17   -0.33917      0.99987     3.33278    0.00651     4.33917
      C   18    0.46665      0.99966     1.50848    0.02521     2.53335
      O   19   -0.33425      0.99987     3.32901    0.00536     4.33425
      O   20   -0.35711      0.99988     3.34920    0.00803     4.35711
      H   21    0.09818      0.00000     0.40103    0.00079     0.40182
      H   22    0.09956      0.00000     0.39951    0.00093     0.40044
      H   23    0.10092      0.00000     0.39773    0.00135     0.39908
      H   24    0.10894      0.00000     0.38964    0.00142     0.39106
      H   25    0.09917      0.00000     0.40001    0.00082     0.40083
      H   26    0.09790      0.00000     0.40082    0.00128     0.40210
      H   27    0.12017      0.00000     0.37862    0.00122     0.37983
      H   28    0.12266      0.00000     0.37496    0.00237     0.37734
      H   29    0.11195      0.00000     0.38681    0.00123     0.38805
      H   30    0.10335      0.00000     0.39543    0.00122     0.39665
      H   31    0.09990      0.00000     0.39876    0.00134     0.40010
      H   32    0.10643      0.00000     0.39177    0.00180     0.39357
      H   33    0.11742      0.00000     0.38115    0.00144     0.38258
      H   34    0.13211      0.00000     0.36540    0.00249     0.36789
      H   35    0.24115      0.00000     0.25530    0.00355     0.25885
      H   36    0.25120      0.00000     0.23657    0.01224     0.24880
 =======================================================================
   * Total *   -0.00000     19.99290    52.74381    0.26328    73.00000

 Normal termination of Gaussian 16 at Sun Dec 13 14:20:50 2020.
