 Gaussian 16, Revision A.03,

 -----------------------------------------------------------
 # opt freq B3LYP/6-31G(d) empiricaldispersion=gd3bj scf=xqc
 -----------------------------------------------------------

 -------------------------------
 CID_150070356_JID_6577_neutraal
 -------------------------------
 Symbolic Z-matrix:
 Charge =  0 Multiplicity = 1

 SCF Done:  E(RB3LYP) =  -1026.40645674     A.U. after   15 cycles
 SCF Done:  E(RB3LYP) =  -1026.41301797     A.U. after   12 cycles
 SCF Done:  E(RB3LYP) =  -1026.41364320     A.U. after   11 cycles
 SCF Done:  E(RB3LYP) =  -1026.41377626     A.U. after   11 cycles
 SCF Done:  E(RB3LYP) =  -1026.41381017     A.U. after   10 cycles
 SCF Done:  E(RB3LYP) =  -1026.41382931     A.U. after    9 cycles
 SCF Done:  E(RB3LYP) =  -1026.41384906     A.U. after   10 cycles
 SCF Done:  E(RB3LYP) =  -1026.41385477     A.U. after    9 cycles
 SCF Done:  E(RB3LYP) =  -1026.41385657     A.U. after    8 cycles
 SCF Done:  E(RB3LYP) =  -1026.41385710     A.U. after    8 cycles
 SCF Done:  E(RB3LYP) =  -1026.41497509     A.U. after   11 cycles
 SCF Done:  E(RB3LYP) =  -1026.41500216     A.U. after   12 cycles
 SCF Done:  E(RB3LYP) =  -1026.41501594     A.U. after   11 cycles
 SCF Done:  E(RB3LYP) =  -1026.41502137     A.U. after   10 cycles
 SCF Done:  E(RB3LYP) =  -1026.41502123     A.U. after    9 cycles
 SCF Done:  E(RB3LYP) =  -1026.41502188     A.U. after    9 cycles
 Optimization completed.
    -- Stationary point found.
 Normal termination of Gaussian 16 at Fri Dec 11 00:00:59 2020.

 --------------------------------------------------------------------
 #N Geom=AllCheck Guess=TCheck SCRF=Check GenChk RB3LYP/6-31G(d) Freq
 --------------------------------------------------------------------

 Structure from the checkpoint file:  "JID_6577.chk"
 -------------------------------
 CID_150070356_JID_6577_neutraal
 -------------------------------
 Charge =  0 Multiplicity = 1

 SCF Done:  E(RB3LYP) =  -1026.41502188     A.U. after    1 cycles

  Exact polarizability: 286.258   9.700 168.567  -1.184  -0.655  66.335
 Approx polarizability: 415.150  37.948 314.448  -5.433  -4.405 106.605

                      1                      2                      3
                      A                      A                      A
 Frequencies --     40.4110                57.8463                93.5451
 Red. masses --      4.5122                 6.7611                 5.5427
 Frc consts  --      0.0043                 0.0133                 0.0286
 IR Inten    --      0.3805                 0.8264                 0.1454

                      4                      5                      6
                      A                      A                      A
 Frequencies --    111.1238               156.0313               179.4171
 Red. masses --      1.0357                 3.1075                 6.3361
 Frc consts  --      0.0075                 0.0446                 0.1202
 IR Inten    --      0.1003                 1.5010                 1.3164

                      7                      8                      9
                      A                      A                      A
 Frequencies --    239.2085               255.5869               273.8052
 Red. masses --      3.6156                 4.1796                 3.2684
 Frc consts  --      0.1219                 0.1609                 0.1444
 IR Inten    --      1.7749                 8.2257                 6.7164

                     10                     11                     12
                      A                      A                      A
 Frequencies --    285.8793               299.3979               302.9022
 Red. masses --      2.7428                 3.9396                 1.9284
 Frc consts  --      0.1321                 0.2081                 0.1042
 IR Inten    --     10.3018                12.2695                16.0263

                     13                     14                     15
                      A                      A                      A
 Frequencies --    354.3125               398.2429               416.2707
 Red. masses --      4.8631                 2.3580                 1.5433
 Frc consts  --      0.3597                 0.2203                 0.1576
 IR Inten    --      7.3940                42.7182                60.4991

                     16                     17                     18
                      A                      A                      A
 Frequencies --    448.0886               528.7470               540.2696
 Red. masses --      3.2725                 2.8858                 3.1534
 Frc consts  --      0.3871                 0.4754                 0.5423
 IR Inten    --     14.6618               125.8171                28.8769

                     19                     20                     21
                      A                      A                      A
 Frequencies --    568.8373               581.7934               587.4147
 Red. masses --      5.2073                 4.8127                 4.7061
 Frc consts  --      0.9927                 0.9598                 0.9567
 IR Inten    --      4.5215                11.6818                 5.0554

                     22                     23                     24
                      A                      A                      A
 Frequencies --    602.4190               637.5547               646.9275
 Red. masses --      5.0399                 2.4381                 2.5549
 Frc consts  --      1.0776                 0.5839                 0.6300
 IR Inten    --     28.1894               127.4480                84.3573

                     25                     26                     27
                      A                      A                      A
 Frequencies --    675.3323               679.2672               732.5967
 Red. masses --      4.3593                 1.8075                 4.6163
 Frc consts  --      1.1714                 0.4914                 1.4597
 IR Inten    --     15.5793                18.9908                27.3985

                     28                     29                     30
                      A                      A                      A
 Frequencies --    741.5752               755.9386               773.3877
 Red. masses --      4.9727                 1.4778                 3.5937
 Frc consts  --      1.6112                 0.4975                 1.2665
 IR Inten    --      9.5228                38.8532                 2.6752

                     31                     32                     33
                      A                      A                      A
 Frequencies --    787.3326               855.4486               857.8869
 Red. masses --      5.7794                 2.1180                 2.2397
 Frc consts  --      2.1108                 0.9132                 0.9712
 IR Inten    --      3.3020                13.1760                11.0048

                     34                     35                     36
                      A                      A                      A
 Frequencies --    903.9375               920.0663               937.4097
 Red. masses --      5.0825                 1.3399                 3.9447
 Frc consts  --      2.4468                 0.6683                 2.0423
 IR Inten    --      0.2537                 0.9686                 9.1218

                     37                     38                     39
                      A                      A                      A
 Frequencies --    964.1160              1041.6790              1056.3291
 Red. masses --      1.2271                 2.0879                 1.9383
 Frc consts  --      0.6720                 1.3348                 1.2743
 IR Inten    --      0.0314                 4.9264                10.3678

                     40                     41                     42
                      A                      A                      A
 Frequencies --   1081.6925              1103.6152              1140.5836
 Red. masses --      1.4530                 2.3315                 1.9952
 Frc consts  --      1.0017                 1.6731                 1.5293
 IR Inten    --      1.3333                 8.5912                19.9121

                     43                     44                     45
                      A                      A                      A
 Frequencies --   1156.6978              1185.7570              1193.2102
 Red. masses --      1.5213                 1.2378                 1.9933
 Frc consts  --      1.1992                 1.0254                 1.6721
 IR Inten    --      0.7460                 0.6308                17.6484

                     46                     47                     48
                      A                      A                      A
 Frequencies --   1233.3801              1277.1671              1305.1507
 Red. masses --      1.7775                 1.9334                 3.0972
 Frc consts  --      1.5931                 1.8581                 3.1084
 IR Inten    --      5.6906                18.9877                 7.5929

                     49                     50                     51
                      A                      A                      A
 Frequencies --   1335.2243              1368.7155              1377.5470
 Red. masses --      3.1659                 4.0040                 2.7075
 Frc consts  --      3.3255                 4.4195                 3.0272
 IR Inten    --     78.3218                73.1782                97.3753

                     52                     53                     54
                      A                      A                      A
 Frequencies --   1424.2196              1441.5118              1476.7518
 Red. masses --      3.8528                 1.2753                 3.5110
 Frc consts  --      4.6045                 1.5613                 4.5112
 IR Inten    --     19.5640                 5.7051                 1.8647

                     55                     56                     57
                      A                      A                      A
 Frequencies --   1491.0238              1514.3194              1525.6979
 Red. masses --      3.0129                 1.4156                 1.0989
 Frc consts  --      3.9464                 1.9127                 1.5071
 IR Inten    --     19.2293                 2.1940                 5.9923

                     58                     59                     60
                      A                      A                      A
 Frequencies --   1533.3398              1550.0841              1603.5455
 Red. masses --      2.5129                 2.8426                 3.5407
 Frc consts  --      3.4809                 4.0242                 5.3641
 IR Inten    --     10.0160                 3.6408               189.7858

                     61                     62                     63
                      A                      A                      A
 Frequencies --   1632.1900              1644.4304              1677.1132
 Red. masses --      5.9635                 5.3267                 2.9023
 Frc consts  --      9.3604                 8.4867                 4.8098
 IR Inten    --      5.4636                20.6467                71.5951

                     64                     65                     66
                      A                      A                      A
 Frequencies --   1680.0056              3032.7091              3074.1925
 Red. masses --      2.1257                 1.0424                 1.1001
 Frc consts  --      3.5348                 5.6484                 6.1256
 IR Inten    --    146.8121                44.9089                25.9548

                     67                     68                     69
                      A                      A                      A
 Frequencies --   3170.7948              3180.7538              3188.1316
 Red. masses --      1.0952                 1.0849                 1.0883
 Frc consts  --      6.4875                 6.4671                 6.5171
 IR Inten    --      1.8208                 0.9178                 3.7236

                     70                     71                     72
                      A                      A                      A
 Frequencies --   3198.2858              3209.2638              3280.9326
 Red. masses --      1.0934                 1.0970                 1.0937
 Frc consts  --      6.5896                 6.6565                 6.9367
 IR Inten    --     36.4997                38.9852                 7.2058

                     73                     74                     75
                      A                      A                      A
 Frequencies --   3557.4147              3654.1320              3665.6576
 Red. masses --      1.0472                 1.0787                 1.0996
 Frc consts  --      7.8082                 8.4864                 8.7053
 IR Inten    --     43.4346                30.3218                26.2535

 - Thermochemistry -
 -------------------
 Temperature   298.150 Kelvin.  Pressure   1.00000 Atm.
 Atom     1 has atomic number  6 and mass  12.00000

 Molecular mass:   229.06737 amu.
 Principal axes and moments of inertia in atomic units:
                           1         2         3
     Eigenvalues --  1284.770967498.915228691.28584
           X            0.99998  -0.00645   0.00236
           Y            0.00643   0.99997   0.00533
           Z           -0.00239  -0.00532   0.99998
 This molecule is an asymmetric top.
 Rotational symmetry number  1.
 Warning -- assumption of classical behavior for rotation
           may cause significant error
 Rotational temperatures (Kelvin)      0.06742     0.01155     0.00997
 Rotational constants (GHZ):           1.40472     0.24067     0.20765
 Zero-point vibrational energy     552995.2 (Joules/Mol)
                                  132.16903 (Kcal/Mol)
 Warning -- explicit consideration of  22 degrees of freedom as
           vibrations may cause significant error
 Vibrational temperatures:     58.14    83.23   134.59   159.88   224.49
          (Kelvin)            258.14   344.17   367.73   393.94   411.32
                              430.77   435.81   509.78   572.98   598.92
                              644.70   760.75   777.33   818.43   837.07
                              845.16   866.75   917.30   930.78   971.65
                              977.31  1054.04  1066.96  1087.63  1112.73
                             1132.80  1230.80  1234.31  1300.56  1323.77
                             1348.72  1387.15  1498.74  1519.82  1556.31
                             1587.86  1641.05  1664.23  1706.04  1716.76
                             1774.56  1837.56  1877.82  1921.09  1969.28
                             1981.98  2049.13  2074.01  2124.72  2145.25
                             2178.77  2195.14  2206.13  2230.23  2307.14
                             2348.36  2365.97  2412.99  2417.15  4363.39
                             4423.08  4562.07  4576.40  4587.01  4601.62
                             4617.41  4720.53  5118.33  5257.48  5274.06

 Zero-point correction=                           0.210625 (Hartree/Particle)
 Thermal correction to Energy=                    0.224433
 Thermal correction to Enthalpy=                  0.225378
 Thermal correction to Gibbs Free Energy=         0.169772
 Sum of electronic and zero-point Energies=          -1026.204397
 Sum of electronic and thermal Energies=             -1026.190589
 Sum of electronic and thermal Enthalpies=           -1026.189644
 Sum of electronic and thermal Free Energies=        -1026.245250

                     E (Thermal)             CV                S
                      KCal/Mol        Cal/Mol-Kelvin    Cal/Mol-Kelvin
 Total                  140.834             54.349            117.031
 Electronic               0.000              0.000              0.000
 Translational            0.889              2.981             42.189
 Rotational               0.889              2.981             32.793
 Vibrational            139.057             48.387             42.049
 Vibration     1          0.594              1.981              5.239
 Vibration     2          0.596              1.974              4.529
 Vibration     3          0.603              1.954              3.585
 Vibration     4          0.607              1.940              3.249
 Vibration     5          0.620              1.896              2.597
 Vibration     6          0.629              1.868              2.334
 Vibration     7          0.657              1.780              1.809
 Vibration     8          0.666              1.753              1.692
 Vibration     9          0.676              1.722              1.572
 Vibration    10          0.684              1.700              1.498
 Vibration    11          0.692              1.675              1.420
 Vibration    12          0.694              1.668              1.401
 Vibration    13          0.730              1.566              1.147
 Vibration    14          0.765              1.474              0.969
 Vibration    15          0.779              1.435              0.905
 Vibration    16          0.807              1.365              0.802
 Vibration    17          0.884              1.186              0.590
 Vibration    18          0.895              1.161              0.565
 Vibration    19          0.925              1.099              0.506
 Vibration    20          0.939              1.071              0.482
 Vibration    21          0.945              1.059              0.472
 Vibration    22          0.961              1.027              0.446

 Optimization completed.
    -- Stationary point found.
 Normal termination of Gaussian 16 at Fri Dec 11 00:09:20 2020.

 ----------------------------------------------------------------------
 # B3LYP/6-311++G(d,p) empiricaldispersion=gd3bj scf=xqc pop=npa geom=c
 heck
 ----------------------------------------------------------------------

 ---------------------------------------
 CID_150070356_JID_6577_Energie_neutraal
 ---------------------------------------
 Structure from the checkpoint file:  "JID_6577.chk"
 Charge =  0 Multiplicity = 1

 SCF Done:  E(RB3LYP) =  -1026.61011953     A.U. after   16 cycles
 Normal termination of Gaussian 16 at Fri Dec 11 00:12:49 2020.

 ----------------------------------------------------------------------
 # B3LYP/6-311++G(d,p) empiricaldispersion=gd3bj scf=xqc pop=npa geom=c
 heck
 ----------------------------------------------------------------------

 -------------------------------------
 CID_150070356_JID_6577_Energie_kation
 -------------------------------------
 Structure from the checkpoint file:  "JID_6577.chk"
 Charge =  1 Multiplicity = 2

 SCF Done:  E(UB3LYP) =  -1026.35803394     A.U. after   27 cycles
 Normal termination of Gaussian 16 at Fri Dec 11 00:20:57 2020.
 Gaussian 16:  ES64L-G16RevA.03 25-Dec-2016

 ----------------------------------------------------------------------
 # B3LYP/6-311++G(d,p) empiricaldispersion=gd3bj scf=xqc pop=npa geom=c
 heck
 ----------------------------------------------------------------------

 ------------------------------------
 CID_150070356_JID_6577_Energie_anion
 ------------------------------------
 Structure from the checkpoint file:  "JID_6577.chk"
 Charge = -1 Multiplicity = 2

                         Standard orientation:
 ---------------------------------------------------------------------
 Center     Atomic      Atomic             Coordinates (Angstroms)
 Number     Number       Type             X           Y           Z
 ---------------------------------------------------------------------
      1          6           0        0.461696    2.451739    0.325254
      2          6           0        0.882924    1.029570    0.123924
      3          6           0        0.087669   -0.096862    0.014196
      4          7           0        0.905184   -1.227845   -0.081424
      5          6           0        2.227882   -0.836226   -0.096494
      6          6           0        3.397798   -1.588235   -0.222933
      7          6           0        4.608470   -0.903978   -0.176844
      8          6           0        4.652988    0.494115   -0.004578
      9          6           0        3.485681    1.238003    0.115737
     10          6           0        2.248426    0.576280    0.059471
     11          6           0       -1.356264   -0.263010    0.041557
     12          6           0       -2.002541   -1.441229    0.316359
     13         16           0       -3.734172   -1.226067    0.228325
     14          6           0       -3.439128    0.469073   -0.190703
     15          7           0       -2.187608    0.811730   -0.250978
     16          7           0       -4.485160    1.345860   -0.367455
     17          1           0        0.803831    2.831252    1.297517
     18          1           0        0.903895    3.099844   -0.442788
     19          1           0       -0.622783    2.551448    0.272895
     20          1           0        0.573886   -2.115473   -0.427242
     21          1           0        3.365683   -2.667153   -0.348204
     22          1           0        5.537099   -1.459592   -0.271549
     23          1           0        5.616749    0.993809    0.033307
     24          1           0        3.526394    2.315840    0.246733
     25          1           0       -1.582948   -2.389792    0.617102
     26          1           0       -5.337519    0.961264   -0.753213
     27          1           0       -4.198042    2.211964   -0.808426
 ---------------------------------------------------------------------

 SCF Done:  E(UB3LYP) =  -1026.60815398     A.U. after   30 cycles

 The electronic state is 2-A.
 Alpha  occ. eigenvalues --  -88.75335 -14.23219 -14.21602 -14.18158 -10.14446
 Alpha  occ. eigenvalues --  -10.09058 -10.08318 -10.08244 -10.06035 -10.05896
 Alpha  occ. eigenvalues --  -10.05591 -10.05542 -10.05208 -10.05022 -10.04590
 Alpha  occ. eigenvalues --  -10.04320  -7.83958  -5.80261  -5.79919  -5.79516
 Alpha  occ. eigenvalues --   -0.86465  -0.85566  -0.78523  -0.72843  -0.68149
 Alpha  occ. eigenvalues --   -0.67153  -0.63934  -0.62276  -0.59545  -0.56827
 Alpha  occ. eigenvalues --   -0.50950  -0.49187  -0.47126  -0.45595  -0.43429
 Alpha  occ. eigenvalues --   -0.42169  -0.39744  -0.38415  -0.36312  -0.34719
 Alpha  occ. eigenvalues --   -0.32474  -0.32443  -0.31694  -0.30907  -0.29862
 Alpha  occ. eigenvalues --   -0.28588  -0.28423  -0.27412  -0.26923  -0.25455
 Alpha  occ. eigenvalues --   -0.23506  -0.22978  -0.22045  -0.20601  -0.16849
 Alpha  occ. eigenvalues --   -0.15932  -0.15865  -0.12221  -0.10330  -0.07791
 Alpha  occ. eigenvalues --    0.04372
 Alpha virt. eigenvalues --    0.06594   0.07312   0.08173   0.08820   0.09758
 Alpha virt. eigenvalues --    0.10164   0.10276   0.10990   0.11886   0.12164
 Alpha virt. eigenvalues --    0.12590   0.12659   0.13390   0.13999   0.14088

  Beta  occ. eigenvalues --  -88.75310 -14.23179 -14.21527 -14.18192 -10.14348
  Beta  occ. eigenvalues --  -10.09080 -10.08265 -10.08149 -10.05819 -10.05750
  Beta  occ. eigenvalues --  -10.05605 -10.05474 -10.05087 -10.05013 -10.04596
  Beta  occ. eigenvalues --  -10.04242  -7.83934  -5.80248  -5.79912  -5.79432
  Beta  occ. eigenvalues --   -0.86362  -0.85477  -0.78411  -0.72710  -0.67972
  Beta  occ. eigenvalues --   -0.66915  -0.63732  -0.62091  -0.59425  -0.56685
  Beta  occ. eigenvalues --   -0.50702  -0.48980  -0.46917  -0.45454  -0.43322
  Beta  occ. eigenvalues --   -0.42072  -0.39582  -0.38245  -0.36231  -0.34598
  Beta  occ. eigenvalues --   -0.32386  -0.32312  -0.31502  -0.30736  -0.29642
  Beta  occ. eigenvalues --   -0.28458  -0.28310  -0.27334  -0.26859  -0.25313
  Beta  occ. eigenvalues --   -0.23319  -0.22591  -0.21972  -0.20125  -0.16347
  Beta  occ. eigenvalues --   -0.15863  -0.15428  -0.11876  -0.09812  -0.06856
  Beta virt. eigenvalues --    0.07263   0.07910   0.08147   0.08322   0.08921
  Beta virt. eigenvalues --    0.09842   0.10534   0.10725   0.11207   0.12074
  Beta virt. eigenvalues --    0.12197   0.12694   0.12804   0.13530   0.13978

 Mulliken charges and spin densities:
               1          2
     1  C   -0.549162  -0.032980
     2  C    0.690636   0.054153
     3  C   -0.775282   0.063764
     4  N    0.055296   0.017268
     5  C   -0.863680  -0.008550
     6  C   -0.677597   0.051478
     7  C   -0.360240   0.073265
     8  C   -0.188447  -0.022020
     9  C   -0.348318   0.107660
    10  C    1.614453   0.011365
    11  C   -1.317134  -0.187206
    12  C    0.760264   0.165924
    13  S   -0.568287   0.098062
    14  C    0.970230  -0.430610
    15  N    0.125828  -0.116938
    16  N   -0.354428   0.077815
    17  H    0.125760   0.001665
    18  H    0.096150   0.030442
    19  H    0.197209  -0.016105
    20  H    0.231556   0.006350
    21  H    0.111952  -0.004555
    22  H    0.114455  -0.005361
    23  H    0.117595   0.002709
    24  H    0.118043  -0.009333
    25  H    0.233999  -0.013732
    26  H   -0.593047   0.868126
    27  H    0.032196   0.217342
 Sum of Mulliken charges =  -1.00000   1.00000

 Dipole moment (field-independent basis, Debye):
    X=              6.2932    Y=             -2.4735    Z=              1.2694  Tot=              6.8800
 Quadrupole moment (field-independent basis, Debye-Ang):
   XX=           -198.4922   YY=           -111.8234   ZZ=           -118.7069
   XY=              6.7244   XZ=             -9.4052   YZ=              2.5861

 Summary of Natural Population Analysis:

                                       Natural Population
                Natural  -----------------------------------------------
    Atom  No    Charge         Core      Valence    Rydberg      Total
 -----------------------------------------------------------------------
      C    1   -0.29293      0.99964     2.28889    0.00439     3.29293
      C    2   -0.04748      0.99950     2.03177    0.01621     3.04748
      C    3    0.07156      0.99950     1.90612    0.02283     2.92844
      N    4   -0.27585      0.99964     2.76590    0.01031     3.77585
      C    5    0.06641      0.99953     1.92035    0.01370     2.93359
      C    6   -0.11495      0.99953     2.10632    0.00910     3.11495
      C    7   -0.10112      0.99959     2.09052    0.01101     3.10112
      C    8   -0.14870      0.99964     2.13046    0.01860     3.14870
      C    9   -0.05399      0.99948     2.04795    0.00656     3.05399
      C   10   -0.00149      0.99951     1.99369    0.00829     3.00149
      C   11    0.11960      0.99946     1.86728    0.01366     2.88040
      C   12   -0.18209      0.99955     2.16833    0.01422     3.18209
      S   13    0.15980      4.99946     2.81857    0.02217     7.84020
      C   14    0.14550      0.99963     1.83022    0.02465     2.85450
      N   15   -0.29537      0.99964     2.77857    0.01716     3.79537
      N   16   -0.40170      0.99969     2.88941    0.01260     3.90170
      H   17    0.09382      0.00000     0.40473    0.00145     0.40618
      H   18    0.09328      0.00000     0.40324    0.00348     0.40672
      H   19    0.11749      0.00000     0.38071    0.00180     0.38251
      H   20    0.19494      0.00000     0.30315    0.00191     0.30506
      H   21    0.09372      0.00000     0.40489    0.00138     0.40628
      H   22    0.09092      0.00000     0.40806    0.00102     0.40908
      H   23    0.09145      0.00000     0.40693    0.00162     0.40855
      H   24    0.09165      0.00000     0.40686    0.00149     0.40835
      H   25    0.10139      0.00000     0.39726    0.00134     0.39861
      H   26    0.19638      0.00000     0.28849    0.01513     0.30362
      H   27    0.19233      0.00000     0.30498    0.00269     0.30767
 =======================================================================
   * Total *    0.00459     19.99298    39.74364    0.25879    59.99541

 Normal termination of Gaussian 16 at Fri Dec 11 00:29:34 2020.
