 Gaussian 16, Revision A.03,

 -----------------------------------------------------------
 # opt freq B3LYP/6-31G(d) empiricaldispersion=gd3bj scf=xqc
 -----------------------------------------------------------

 -------------------------------
 CID_150881605_JID_4114_neutraal
 -------------------------------
 Symbolic Z-matrix:
 Charge =  0 Multiplicity = 1

 SCF Done:  E(RB3LYP) =  -678.908864200     A.U. after   17 cycles
 SCF Done:  E(RB3LYP) =  -678.934446655     A.U. after   14 cycles
 SCF Done:  E(RB3LYP) =  -678.937116308     A.U. after   15 cycles
 SCF Done:  E(RB3LYP) =  -678.925162646     A.U. after   17 cycles
 SCF Done:  E(RB3LYP) =  -678.939183518     A.U. after   15 cycles
 SCF Done:  E(RB3LYP) =  -678.937742476     A.U. after   17 cycles
 SCF Done:  E(RB3LYP) =  -678.940803537     A.U. after   15 cycles
 SCF Done:  E(RB3LYP) =  -678.942194687     A.U. after   15 cycles
 SCF Done:  E(RB3LYP) =  -678.941559229     A.U. after   17 cycles
 SCF Done:  E(RB3LYP) =  -678.943429842     A.U. after   15 cycles
 SCF Done:  E(RB3LYP) =  -678.949332207     A.U. after   10 cycles
 SCF Done:  E(RB3LYP) =  -678.949332350     A.U. after    8 cycles
 SCF Done:  E(RB3LYP) =  -678.949332432     A.U. after    8 cycles
 SCF Done:  E(RB3LYP) =  -678.949332490     A.U. after    8 cycles
 SCF Done:  E(RB3LYP) =  -678.949332521     A.U. after    8 cycles
 Optimization completed.
    -- Stationary point found.
 Normal termination of Gaussian 16 at Thu Dec 10 09:26:05 2020.

 --------------------------------------------------------------------
 #N Geom=AllCheck Guess=TCheck SCRF=Check GenChk RB3LYP/6-31G(d) Freq
 --------------------------------------------------------------------

 Structure from the checkpoint file:  "JID_4114.chk"
 -------------------------------
 CID_150881605_JID_4114_neutraal
 -------------------------------
 Charge =  0 Multiplicity = 1

 SCF Done:  E(RB3LYP) =  -678.949332521     A.U. after    1 cycles

  Exact polarizability: 128.983   0.700 107.162   0.361 -11.488  84.857
 Approx polarizability: 194.406  15.019 161.925 -13.696 -34.890 146.061

                      1                      2                      3
                      A                      A                      A
 Frequencies --     32.0207                37.0903                76.5158
 Red. masses --      7.3201                11.2911                 4.2709
 Frc consts  --      0.0044                 0.0092                 0.0147
 IR Inten    --      0.5993                 1.0613                 1.9165

                      4                      5                      6
                      A                      A                      A
 Frequencies --     87.6754               143.7226               159.5059
 Red. masses --      2.9666                 5.2725                 6.4193
 Frc consts  --      0.0134                 0.0642                 0.0962
 IR Inten    --      4.6394                 2.5460                 0.0224

                      7                      8                      9
                      A                      A                      A
 Frequencies --    186.9643               254.8827               313.3007
 Red. masses --     11.3955                 3.5081                 6.7994
 Frc consts  --      0.2347                 0.1343                 0.3932
 IR Inten    --      0.2405                 7.2286                 1.0381

                     10                     11                     12
                      A                      A                      A
 Frequencies --    356.1620               384.9556               401.0370
 Red. masses --      5.9507                 6.6738                 6.6524
 Frc consts  --      0.4447                 0.5827                 0.6304
 IR Inten    --      2.1470                 5.9243                 5.1663

                     13                     14                     15
                      A                      A                      A
 Frequencies --    440.6623               462.3724               552.2719
 Red. masses --      5.0240                 4.7864                 7.8328
 Frc consts  --      0.5748                 0.6029                 1.4076
 IR Inten    --      4.5207                 9.5563                13.3189

                     16                     17                     18
                      A                      A                      A
 Frequencies --    559.4311               585.7706               611.1154
 Red. masses --      5.8765                 3.4017                 3.9387
 Frc consts  --      1.0836                 0.6877                 0.8667
 IR Inten    --      2.8501                 7.4724                 3.2887

                     19                     20                     21
                      A                      A                      A
 Frequencies --    621.7933               635.1674               669.5230
 Red. masses --      1.4585                 1.2389                 6.2932
 Frc consts  --      0.3322                 0.2945                 1.6621
 IR Inten    --     45.9537                42.9508                19.9244

                     22                     23                     24
                      A                      A                      A
 Frequencies --    766.5980               785.8191               830.6733
 Red. masses --      7.0897                 5.0425                 4.9086
 Frc consts  --      2.4548                 1.8346                 1.9956
 IR Inten    --      0.6098                 4.7278                 4.4340

                     25                     26                     27
                      A                      A                      A
 Frequencies --    866.8111               879.2657               909.5527
 Red. masses --      2.7861                 3.7678                 2.4843
 Frc consts  --      1.2334                 1.7162                 1.2109
 IR Inten    --      2.9055                 1.8789                 5.1578

                     28                     29                     30
                      A                      A                      A
 Frequencies --    974.3966               984.9219               993.4696
 Red. masses --      3.2630                 2.5274                 3.0275
 Frc consts  --      1.8253                 1.4445                 1.7605
 IR Inten    --     10.4176                 7.7861                 5.4310

                     31                     32                     33
                      A                      A                      A
 Frequencies --   1042.3399              1087.5608              1098.5100
 Red. masses --      2.8305                 2.1726                 2.7872
 Frc consts  --      1.8119                 1.5140                 1.9817
 IR Inten    --      2.7606                 8.2262                 7.9902

                     34                     35                     36
                      A                      A                      A
 Frequencies --   1112.8326              1142.5788              1180.3141
 Red. masses --      3.3685                 7.7430                 3.9955
 Frc consts  --      2.4578                 5.9557                 3.2795
 IR Inten    --     41.6894                38.4360                89.8022

                     37                     38                     39
                      A                      A                      A
 Frequencies --   1215.3819              1221.9130              1230.8100
 Red. masses --      1.1653                 1.5468                 5.1047
 Frc consts  --      1.0142                 1.3607                 4.5562
 IR Inten    --     11.7907                45.7871                59.1725

                     40                     41                     42
                      A                      A                      A
 Frequencies --   1259.9101              1276.5246              1316.0452
 Red. masses --      1.4955                 1.4719                 1.3246
 Frc consts  --      1.3986                 1.4131                 1.3517
 IR Inten    --     12.6487                 4.2495                11.5433

                     43                     44                     45
                      A                      A                      A
 Frequencies --   1327.4403              1335.8458              1361.8278
 Red. masses --      1.2156                 1.5060                 1.4811
 Frc consts  --      1.2620                 1.5834                 1.6184
 IR Inten    --      2.0290                 7.4582                 0.7375

                     46                     47                     48
                      A                      A                      A
 Frequencies --   1380.0418              1386.9824              1508.7506
 Red. masses --      1.4116                 1.5479                 1.0835
 Frc consts  --      1.5840                 1.7544                 1.4532
 IR Inten    --     17.9643                 3.2983                 7.0381

                     49                     50                     51
                      A                      A                      A
 Frequencies --   1538.8058              1863.8336              2234.2090
 Red. masses --      1.0859                12.6151                13.9299
 Frc consts  --      1.5150                25.8200                40.9680
 IR Inten    --      5.6766               166.9772               486.4962

                     52                     53                     54
                      A                      A                      A
 Frequencies --   2246.5737              3026.2571              3056.3452
 Red. masses --      5.9735                 1.0656                 1.0660
 Frc consts  --     17.7632                 5.7499                 5.8671
 IR Inten    --      0.9650                38.2515                25.8281

                     55                     56                     57
                      A                      A                      A
 Frequencies --   3075.5797              3087.6611              3092.8331
 Red. masses --      1.0870                 1.0846                 1.0972
 Frc consts  --      6.0578                 6.0923                 6.1836
 IR Inten    --     34.0295                 9.8739                10.6238

                     58                     59                     60
                      A                      A                      A
 Frequencies --   3115.9280              3136.1708              3495.9033
 Red. masses --      1.0873                 1.1006                 1.1610
 Frc consts  --      6.2198                 6.3778                 8.3600
 IR Inten    --     16.6142                15.9228                64.4213

 - Thermochemistry -
 -------------------
 Temperature   298.150 Kelvin.  Pressure   1.00000 Atm.
 Atom     1 has atomic number  6 and mass  12.00000

 Molecular mass:   192.06473 amu.
 Principal axes and moments of inertia in atomic units:
                           1         2         3
     Eigenvalues --  1858.596982811.834703934.17922
           X            0.99901  -0.04399   0.00654
           Y            0.04404   0.99900  -0.00786
           Z           -0.00618   0.00814   0.99995
 This molecule is an asymmetric top.
 Rotational symmetry number  1.
 Warning -- assumption of classical behavior for rotation
           may cause significant error
 Rotational temperatures (Kelvin)      0.04660     0.03080     0.02202
 Rotational constants (GHZ):           0.97102     0.64184     0.45873
 Zero-point vibrational energy     424788.9 (Joules/Mol)
                                  101.52698 (Kcal/Mol)
 Warning -- explicit consideration of  18 degrees of freedom as
           vibrations may cause significant error
 Vibrational temperatures:     46.07    53.36   110.09   126.15   206.78
          (Kelvin)            229.49   269.00   366.72   450.77   512.44
                              553.87   577.00   634.01   665.25   794.60
                              804.90   842.79   879.26   894.62   913.86
                              963.29  1102.96  1130.62  1195.15  1247.15
                             1265.07  1308.64  1401.94  1417.08  1429.38
                             1499.69  1564.76  1580.51  1601.12  1643.92
                             1698.21  1748.66  1758.06  1770.86  1812.73
                             1836.63  1893.50  1909.89  1921.98  1959.37
                             1985.57  1995.56  2170.76  2214.00  2681.64
                             3214.53  3232.32  4354.11  4397.40  4425.07
                             4442.46  4449.90  4483.13  4512.25  5029.83

 Zero-point correction=                           0.161794 (Hartree/Particle)
 Thermal correction to Energy=                    0.174081
 Thermal correction to Enthalpy=                  0.175025
 Thermal correction to Gibbs Free Energy=         0.121634
 Sum of electronic and zero-point Energies=           -678.787539
 Sum of electronic and thermal Energies=              -678.775252
 Sum of electronic and thermal Enthalpies=            -678.774308
 Sum of electronic and thermal Free Energies=         -678.827698

                     E (Thermal)             CV                S
                      KCal/Mol        Cal/Mol-Kelvin    Cal/Mol-Kelvin
 Total                  109.237             45.505            112.370
 Electronic               0.000              0.000              0.000
 Translational            0.889              2.981             41.663
 Rotational               0.889              2.981             31.398
 Vibrational            107.460             39.543             39.309
 Vibration     1          0.594              1.983              5.700
 Vibration     2          0.594              1.982              5.409
 Vibration     3          0.599              1.965              3.978
 Vibration     4          0.601              1.958              3.711
 Vibration     5          0.616              1.909              2.754
 Vibration     6          0.621              1.892              2.556
 Vibration     7          0.632              1.858              2.258
 Vibration     8          0.665              1.755              1.697
 Vibration     9          0.701              1.648              1.345
 Vibration    10          0.732              1.563              1.139
 Vibration    11          0.754              1.502              1.020
 Vibration    12          0.767              1.468              0.959
 Vibration    13          0.801              1.381              0.825
 Vibration    14          0.820              1.334              0.759
 Vibration    15          0.908              1.135              0.539
 Vibration    16          0.915              1.119              0.525
 Vibration    17          0.943              1.062              0.475
 Vibration    18          0.970              1.008              0.431

 Optimization completed.
    -- Stationary point found.
 Normal termination of Gaussian 16 at Thu Dec 10 09:32:10 2020.

 ----------------------------------------------------------------------
 # B3LYP/6-311++G(d,p) empiricaldispersion=gd3bj scf=xqc pop=npa geom=c
 heck
 ----------------------------------------------------------------------

 ---------------------------------------
 CID_150881605_JID_4114_Energie_neutraal
 ---------------------------------------
 Structure from the checkpoint file:  "JID_4114.chk"
 Charge =  0 Multiplicity = 1

 SCF Done:  E(RB3LYP) =  -679.142051932     A.U. after   16 cycles
 Normal termination of Gaussian 16 at Thu Dec 10 09:34:17 2020.

 ----------------------------------------------------------------------
 # B3LYP/6-311++G(d,p) empiricaldispersion=gd3bj scf=xqc pop=npa geom=c
 heck
 ----------------------------------------------------------------------

 -------------------------------------
 CID_150881605_JID_4114_Energie_kation
 -------------------------------------
 Structure from the checkpoint file:  "JID_4114.chk"
 Charge =  1 Multiplicity = 2

 SCF Done:  E(UB3LYP) =  -678.827234808     A.U. after   27 cycles
 Normal termination of Gaussian 16 at Thu Dec 10 09:38:57 2020.
 Gaussian 16:  ES64L-G16RevA.03 25-Dec-2016

 ----------------------------------------------------------------------
 # B3LYP/6-311++G(d,p) empiricaldispersion=gd3bj scf=xqc pop=npa geom=c
 heck
 ----------------------------------------------------------------------

 ------------------------------------
 CID_150881605_JID_4114_Energie_anion
 ------------------------------------
 Structure from the checkpoint file:  "JID_4114.chk"
 Charge = -1 Multiplicity = 2

                         Standard orientation:
 ---------------------------------------------------------------------
 Center     Atomic      Atomic             Coordinates (Angstroms)
 Number     Number       Type             X           Y           Z
 ---------------------------------------------------------------------
      1          6           0       -3.428510    1.667487   -1.043588
      2          6           0       -2.786053    0.952729   -0.314030
      3          6           0       -2.003591    0.071916    0.549869
      4          6           0       -0.833955    0.786774    1.247403
      5          7           0        0.189570    0.879789    0.189931
      6          6           0        0.030434   -0.286136   -0.737668
      7          6           0       -1.245238   -0.988488   -0.271261
      8          8           0       -0.821921   -2.013201    0.644319
      9          6           0        0.497156   -2.439241    0.342584
     10          6           0        1.102082   -1.368831   -0.560029
     11          8           0        2.195518   -1.390668   -1.069510
     12          7           0        1.489377    0.925670    0.824753
     13          7           0        2.276086    1.667650    0.195050
     14          7           0        3.114496    2.283495   -0.267366
     15          1           0       -3.991528    2.308364   -1.683299
     16          1           0       -2.651460   -0.424318    1.280455
     17          1           0       -1.090531    1.787417    1.601418
     18          1           0       -0.482681    0.180515    2.091403
     19          1           0        0.011451    0.069784   -1.770206
     20          1           0       -1.841904   -1.416609   -1.084628
     21          1           0        1.072194   -2.540241    1.270137
     22          1           0        0.505027   -3.407446   -0.180007
 ---------------------------------------------------------------------

 SCF Done:  E(UB3LYP) =  -679.149591671     A.U. after   33 cycles
 SCF Done:  E(UB3LYP) =  -679.149591671     a.u. after    1 cycles

 The electronic state is 2-A.
 Alpha  occ. eigenvalues --  -19.01849 -18.96356 -14.30248 -14.22323 -14.21498
 Alpha  occ. eigenvalues --  -14.21310 -10.12264 -10.10114 -10.09968 -10.09931
 Alpha  occ. eigenvalues --  -10.08669 -10.07928 -10.07857 -10.06620  -0.98101
 Alpha  occ. eigenvalues --   -0.93950  -0.90040  -0.86031  -0.77194  -0.69349
 Alpha  occ. eigenvalues --   -0.63823  -0.63289  -0.59550  -0.51691  -0.48443
 Alpha  occ. eigenvalues --   -0.46094  -0.43978  -0.41624  -0.39159  -0.37648
 Alpha  occ. eigenvalues --   -0.35729  -0.35125  -0.34312  -0.32465  -0.32185
 Alpha  occ. eigenvalues --   -0.30269  -0.29672  -0.28948  -0.28146  -0.26772
 Alpha  occ. eigenvalues --   -0.26152  -0.23769  -0.23360  -0.19846  -0.17997
 Alpha  occ. eigenvalues --   -0.17810  -0.15743  -0.13218  -0.11084  -0.08360
 Alpha  occ. eigenvalues --    0.04750
 Alpha virt. eigenvalues --    0.06855   0.08389   0.08609   0.09394   0.10363
 Alpha virt. eigenvalues --    0.10692   0.11531   0.12174   0.12737   0.13160
 Alpha virt. eigenvalues --    0.13738   0.15113   0.15395   0.15814   0.17078

  Beta  occ. eigenvalues --  -19.01842 -18.96005 -14.29953 -14.22403 -14.21079
  Beta  occ. eigenvalues --  -14.20968 -10.12266 -10.09997 -10.09922 -10.09781
  Beta  occ. eigenvalues --  -10.08658 -10.07927 -10.07878 -10.06607  -0.97455
  Beta  occ. eigenvalues --   -0.93880  -0.89410  -0.85647  -0.76954  -0.69157
  Beta  occ. eigenvalues --   -0.63756  -0.63068  -0.59309  -0.51463  -0.48348
  Beta  occ. eigenvalues --   -0.45693  -0.43910  -0.41488  -0.39039  -0.37412
  Beta  occ. eigenvalues --   -0.34852  -0.34442  -0.33987  -0.32083  -0.31882
  Beta  occ. eigenvalues --   -0.29649  -0.29302  -0.28667  -0.27644  -0.26587
  Beta  occ. eigenvalues --   -0.25960  -0.23615  -0.21805  -0.18915  -0.17963
  Beta  occ. eigenvalues --   -0.17744  -0.15612  -0.12989  -0.10866  -0.08079
  Beta virt. eigenvalues --    0.07007   0.08447   0.09203   0.10316   0.10613
  Beta virt. eigenvalues --    0.10980   0.11329   0.11829   0.12225   0.12780
  Beta virt. eigenvalues --    0.13537   0.13723   0.15034   0.15526   0.15986

 Mulliken charges and spin densities:
               1          2
     1  C   -0.497332   0.442398
     2  C    1.369868  -1.654233
     3  C   -0.451420   1.146418
     4  C   -0.251081  -0.396249
     5  N    0.222829  -0.071128
     6  C   -0.156683   0.393262
     7  C   -0.518538  -0.529007
     8  O   -0.127478   0.011267
     9  C    0.006924  -0.155467
    10  C   -0.270173   0.089340
    11  O   -0.347315   0.121330
    12  N   -0.157947   0.154181
    13  N    0.047402  -0.019476
    14  N   -0.193090   0.179967
    15  H   -0.273336   0.455642
    16  H    0.031732   0.247919
    17  H    0.124866   0.057777
    18  H    0.123190   0.044724
    19  H    0.143580   0.113386
    20  H    0.027906   0.184459
    21  H    0.196084  -0.021135
    22  H   -0.049986   0.204624
 Sum of Mulliken charges =  -1.00000   1.00000

 Dipole moment (field-independent basis, Debye):
    X=             -4.6076    Y=             -1.2155    Z=              1.7178  Tot=              5.0654
 Quadrupole moment (field-independent basis, Debye-Ang):
   XX=           -128.5671   YY=           -108.1924   ZZ=            -92.8033
   XY=             -5.3368   XZ=              4.1684   YZ=              0.1969

 Summary of Natural Population Analysis:

                                       Natural Population
                Natural  -----------------------------------------------
    Atom  No    Charge         Core      Valence    Rydberg      Total
 -----------------------------------------------------------------------
      C    1   -0.12903      0.99927     2.12553    0.00423     3.12903
      C    2    0.01081      0.99937     1.98027    0.00955     2.98919
      C    3   -0.16709      0.99951     2.15527    0.01232     3.16709
      C    4   -0.07372      0.99961     2.06295    0.01116     3.07372
      N    5   -0.17369      0.99971     2.65972    0.01427     3.67369
      C    6   -0.06531      0.99952     2.05128    0.01451     3.06531
      C    7    0.07623      0.99952     1.90890    0.01535     2.92377
      O    8   -0.30757      0.99989     3.29905    0.00864     4.30757
      C    9   -0.05526      0.99955     2.04419    0.01153     3.05526
      C   10    0.31981      0.99966     1.65833    0.02220     2.68019
      O   11   -0.24932      0.99987     3.24242    0.00704     4.24932
      N   12   -0.15341      0.99972     2.63814    0.01555     3.65341
      N   13    0.13600      0.99971     2.34765    0.01663     3.36400
      N   14    0.02442      0.99982     2.46296    0.01281     3.47558
      H   15    0.10916      0.00000     0.38956    0.00128     0.39084
      H   16    0.12104      0.00000     0.37717    0.00180     0.37896
      H   17    0.09747      0.00000     0.40095    0.00158     0.40253
      H   18    0.09634      0.00000     0.40143    0.00223     0.40366
      H   19    0.10877      0.00000     0.38989    0.00134     0.39123
      H   20    0.09017      0.00000     0.40850    0.00133     0.40983
      H   21    0.09630      0.00000     0.40185    0.00184     0.40370
      H   22    0.08789      0.00000     0.40944    0.00268     0.41211
 =======================================================================
   * Total *    0.00000     13.99471    35.81544    0.18984    50.00000

 Normal termination of Gaussian 16 at Thu Dec 10 09:44:40 2020.
