 Gaussian 16, Revision A.03,

 -----------------------------------------------------------
 # opt freq B3LYP/6-31G(d) empiricaldispersion=gd3bj scf=xqc
 -----------------------------------------------------------

 ------------------------------
 CID_84557642_JID_8335_neutraal
 ------------------------------
 Symbolic Z-matrix:
 Charge =  0 Multiplicity = 1

 SCF Done:  E(RB3LYP) =  -1110.07835920     A.U. after   16 cycles
 SCF Done:  E(RB3LYP) =  -1110.08324884     A.U. after   13 cycles
 SCF Done:  E(RB3LYP) =  -1110.08382071     A.U. after   12 cycles
 SCF Done:  E(RB3LYP) =  -1110.08406701     A.U. after   11 cycles
 SCF Done:  E(RB3LYP) =  -1110.08412930     A.U. after   11 cycles
 SCF Done:  E(RB3LYP) =  -1110.08419431     A.U. after   11 cycles
 SCF Done:  E(RB3LYP) =  -1110.08423708     A.U. after   10 cycles
 SCF Done:  E(RB3LYP) =  -1110.08425838     A.U. after   11 cycles
 SCF Done:  E(RB3LYP) =  -1110.08427273     A.U. after   10 cycles
 SCF Done:  E(RB3LYP) =  -1110.08428570     A.U. after   10 cycles
 SCF Done:  E(RB3LYP) =  -1110.08441972     A.U. after    9 cycles
 SCF Done:  E(RB3LYP) =  -1110.08441987     A.U. after    9 cycles
 SCF Done:  E(RB3LYP) =  -1110.08441988     A.U. after    9 cycles
 SCF Done:  E(RB3LYP) =  -1110.08441989     A.U. after    7 cycles
 Optimization completed.
    -- Stationary point found.
 Normal termination of Gaussian 16 at Fri Dec 11 20:37:47 2020.

 --------------------------------------------------------------------
 #N Geom=AllCheck Guess=TCheck SCRF=Check GenChk RB3LYP/6-31G(d) Freq
 --------------------------------------------------------------------

 Structure from the checkpoint file:  "JID_8335.chk"
 ------------------------------
 CID_84557642_JID_8335_neutraal
 ------------------------------
 Charge =  0 Multiplicity = 1

 SCF Done:  E(RB3LYP) =  -1110.08441989     A.U. after    1 cycles

  Exact polarizability: 234.015   1.579 183.306  -8.338   3.918 113.392
 Approx polarizability: 314.088   5.614 316.791 -12.476  17.786 192.721

                      1                      2                      3
                      A                      A                      A
 Frequencies --     20.6912                25.3058                32.5876
 Red. masses --      3.6777                 1.1270                 4.3325
 Frc consts  --      0.0009                 0.0004                 0.0027
 IR Inten    --      0.3997                 0.1513                 0.1028

                      4                      5                      6
                      A                      A                      A
 Frequencies --     41.3286                65.4086                94.5419
 Red. masses --      4.1343                 4.0202                 3.2495
 Frc consts  --      0.0042                 0.0101                 0.0171
 IR Inten    --      0.1080                 2.6867                 0.8693

                      7                      8                      9
                      A                      A                      A
 Frequencies --    100.2545               113.7993               144.7518
 Red. masses --      4.6264                 1.1307                 1.6266
 Frc consts  --      0.0274                 0.0086                 0.0201
 IR Inten    --      4.1933                 0.4445                 0.6703

                     10                     11                     12
                      A                      A                      A
 Frequencies --    173.2886               197.8737               220.8252
 Red. masses --      2.9110                 2.8882                 4.5049
 Frc consts  --      0.0515                 0.0666                 0.1294
 IR Inten    --      0.6948                 0.5164                 1.5748

                     13                     14                     15
                      A                      A                      A
 Frequencies --    244.1549               269.4088               272.7341
 Red. masses --      3.7872                 3.6649                 3.6048
 Frc consts  --      0.1330                 0.1567                 0.1580
 IR Inten    --      4.8679                 5.4794                 2.5007

                     16                     17                     18
                      A                      A                      A
 Frequencies --    316.1600               323.0642               388.7608
 Red. masses --      2.6940                 4.0228                 4.4733
 Frc consts  --      0.1587                 0.2474                 0.3983
 IR Inten    --      0.3825                 0.8371                 0.7980

                     19                     20                     21
                      A                      A                      A
 Frequencies --    403.9623               418.8251               425.9643
 Red. masses --      3.7103                 3.0360                 2.1135
 Frc consts  --      0.3567                 0.3138                 0.2259
 IR Inten    --      4.0950                 0.7951                10.6346

                     22                     23                     24
                      A                      A                      A
 Frequencies --    461.9075               500.4185               524.0045
 Red. masses --      3.9880                 4.2774                 7.0690
 Frc consts  --      0.5013                 0.6311                 1.1436
 IR Inten    --      2.9095                 6.6784                 0.2308

                     25                     26                     27
                      A                      A                      A
 Frequencies --    536.6894               612.0371               628.6634
 Red. masses --      4.7931                 4.7499                 4.9769
 Frc consts  --      0.8134                 1.0483                 1.1589
 IR Inten    --      9.5203                 8.6496                 7.6983

                     28                     29                     30
                      A                      A                      A
 Frequencies --    637.6276               661.6645               694.1990
 Red. masses --      6.2543                 5.6100                 4.3497
 Frc consts  --      1.4982                 1.4471                 1.2350
 IR Inten    --      0.6136                15.8908                 2.2974

                     31                     32                     33
                      A                      A                      A
 Frequencies --    720.4396               744.2890               764.8008
 Red. masses --      1.8179                 1.7897                 2.2708
 Frc consts  --      0.5559                 0.5841                 0.7826
 IR Inten    --     31.8382                42.9041                14.9815

                     34                     35                     36
                      A                      A                      A
 Frequencies --    788.4345               792.3430               835.4361
 Red. masses --      3.2468                 2.7010                 3.7804
 Frc consts  --      1.1891                 0.9991                 1.5546
 IR Inten    --      3.1575                 9.4495                 7.0447

                     37                     38                     39
                      A                      A                      A
 Frequencies --    864.9062               869.3934               902.1338
 Red. masses --      4.8067                 1.2566                 2.7484
 Frc consts  --      2.1185                 0.5596                 1.3178
 IR Inten    --     16.3557                 0.1437                 3.3120

                     40                     41                     42
                      A                      A                      A
 Frequencies --    934.9334               960.3999               977.9598
 Red. masses --      1.5622                 1.9507                 1.3262
 Frc consts  --      0.8046                 1.0601                 0.7473
 IR Inten    --      5.8105                 8.1034                 0.5610

                     43                     44                     45
                      A                      A                      A
 Frequencies --    992.2000              1006.5941              1022.3124
 Red. masses --      1.8676                 1.2778                 6.1336
 Frc consts  --      1.0832                 0.7628                 3.7769
 IR Inten    --      3.0859                 2.1855                 1.5369

                     46                     47                     48
                      A                      A                      A
 Frequencies --   1058.7198              1062.4825              1064.8970
 Red. masses --      1.9414                 1.9969                 1.4053
 Frc consts  --      1.2821                 1.3282                 0.9389
 IR Inten    --     85.3505                 9.5704                14.7427

                     49                     50                     51
                      A                      A                      A
 Frequencies --   1080.6206              1115.1785              1124.2204
 Red. masses --      1.4983                 1.5653                 1.8731
 Frc consts  --      1.0308                 1.1469                 1.3948
 IR Inten    --      0.9033                 8.4462                 8.4999

                     52                     53                     54
                      A                      A                      A
 Frequencies --   1153.8726              1165.6480              1193.7771
 Red. masses --      2.2241                 1.3061                 1.1377
 Frc consts  --      1.7447                 1.0456                 0.9553
 IR Inten    --     65.4676                 4.4392                 0.0692

                     55                     56                     57
                      A                      A                      A
 Frequencies --   1195.6157              1215.4708              1216.9630
 Red. masses --      1.6295                 1.4930                 1.3790
 Frc consts  --      1.3724                 1.2995                 1.2033
 IR Inten    --      4.5571                12.7164                21.9850

                     58                     59                     60
                      A                      A                      A
 Frequencies --   1233.4685              1240.6367              1305.2235
 Red. masses --      2.8475                 3.4262                 2.5124
 Frc consts  --      2.5525                 3.1071                 2.5218
 IR Inten    --      0.4510                13.6794               131.7255

                     61                     62                     63
                      A                      A                      A
 Frequencies --   1362.7137              1371.0283              1400.4670
 Red. masses --      3.6065                 1.4934                 1.3399
 Frc consts  --      3.9459                 1.6539                 1.5484
 IR Inten    --     23.0126                 5.1816                16.9288

                     64                     65                     66
                      A                      A                      A
 Frequencies --   1408.1229              1438.5482              1450.4617
 Red. masses --      3.3104                 1.3561                 2.1342
 Frc consts  --      3.8674                 1.6535                 2.6454
 IR Inten    --      2.4950                 0.0653               110.6039

                     67                     68                     69
                      A                      A                      A
 Frequencies --   1453.6169              1492.6261              1502.8613
 Red. masses --      1.2466                 1.3508                 1.2400
 Frc consts  --      1.5519                 1.7732                 1.6502
 IR Inten    --      5.2004                15.2971                13.0922

                     70                     71                     72
                      A                      A                      A
 Frequencies --   1506.2132              1507.7335              1511.8230
 Red. masses --      2.1413                 1.0518                 1.0825
 Frc consts  --      2.8622                 1.4087                 1.4578
 IR Inten    --      5.5284                 3.9705                 9.0196

                     73                     74                     75
                      A                      A                      A
 Frequencies --   1514.5520              1519.8227              1523.2736
 Red. masses --      1.4416                 1.1062                 1.0533
 Frc consts  --      1.9483                 1.5054                 1.4400
 IR Inten    --     53.9522                 3.4152                12.7022

                     76                     77                     78
                      A                      A                      A
 Frequencies --   1532.5097              1547.4863              1555.4984
 Red. masses --      1.7452                 2.2094                 1.2725
 Frc consts  --      2.4149                 3.1173                 1.8140
 IR Inten    --     57.7606                16.3514                77.8548

                     79                     80                     81
                      A                      A                      A
 Frequencies --   1626.6860              1647.4064              1667.9773
 Red. masses --      5.3478                 5.5316                 5.5255
 Frc consts  --      8.3374                 8.8452                 9.0574
 IR Inten    --      3.4608                 2.3423                 3.0603

                     82                     83                     84
                      A                      A                      A
 Frequencies --   1716.5409              3034.3934              3047.8657
 Red. masses --     10.4560                 1.0436                 1.0394
 Frc consts  --     18.1520                 5.6614                 5.6889
 IR Inten    --    230.1350                44.6610                36.8687

                     85                     86                     87
                      A                      A                      A
 Frequencies --   3057.8690              3059.5149              3088.8006
 Red. masses --      1.0691                 1.0417                 1.1002
 Frc consts  --      5.8900                 5.7450                 6.1844
 IR Inten    --     43.6040                21.1955                21.0257

                     88                     89                     90
                      A                      A                      A
 Frequencies --   3098.3424              3120.5223              3141.5931
 Red. masses --      1.1006                 1.0942                 1.0991
 Frc consts  --      6.2251                 6.2777                 6.3915
 IR Inten    --     15.8589                18.2391                 9.8850

                     91                     92                     93
                      A                      A                      A
 Frequencies --   3149.0930              3151.7919              3172.0655
 Red. masses --      1.0951                 1.1010                 1.0870
 Frc consts  --      6.3983                 6.4441                 6.4440
 IR Inten    --      2.3681                22.5095                 9.6717

                     94                     95                     96
                      A                      A                      A
 Frequencies --   3183.9296              3191.4252              3194.6483
 Red. masses --      1.0868                 1.0956                 1.0916
 Frc consts  --      6.4913                 6.5744                 6.5637
 IR Inten    --      1.6139                 5.2368                30.6312

                     97                     98                     99
                      A                      A                      A
 Frequencies --   3207.0987              3217.0571              3269.3626
 Red. masses --      1.0958                 1.0948                 1.0937
 Frc consts  --      6.6407                 6.6755                 6.8876
 IR Inten    --     26.6974                 7.9059                 0.3454

 - Thermochemistry -
 -------------------
 Temperature   298.150 Kelvin.  Pressure   1.00000 Atm.
 Atom     1 has atomic number  6 and mass  12.00000

 Molecular mass:   259.10309 amu.
 Principal axes and moments of inertia in atomic units:
                           1         2         3
     Eigenvalues --  2015.113149813.63280**********
           X            0.99989  -0.01505  -0.00101
           Y            0.01505   0.99989  -0.00136
           Z            0.00103   0.00135   1.00000
 This molecule is an asymmetric top.
 Rotational symmetry number  1.
 Warning -- assumption of classical behavior for rotation
           may cause significant error
 Rotational temperatures (Kelvin)      0.04298     0.00883     0.00807
 Rotational constants (GHZ):           0.89560     0.18390     0.16807
 Zero-point vibrational energy     758418.2 (Joules/Mol)
                                  181.26629 (Kcal/Mol)
 Warning -- explicit consideration of  26 degrees of freedom as
           vibrations may cause significant error
 Vibrational temperatures:     29.77    36.41    46.89    59.46    94.11
          (Kelvin)            136.02   144.24   163.73   208.27   249.32
                              284.70   317.72   351.28   387.62   392.40
                              454.88   464.82   559.34   581.21   602.60
                              612.87   664.58   719.99   753.93   772.18
                              880.58   904.51   917.40   951.99   998.80
                             1036.55  1070.87  1100.38  1134.38  1140.00
                             1202.01  1244.41  1250.86  1297.97  1345.16
                             1381.80  1407.07  1427.55  1448.26  1470.88
                             1523.26  1528.68  1532.15  1554.77  1604.49
                             1617.50  1660.17  1677.11  1717.58  1720.22
                             1748.79  1750.94  1774.69  1785.00  1877.93
                             1960.64  1972.60  2014.96  2025.97  2069.75
                             2086.89  2091.43  2147.56  2162.28  2167.10
                             2169.29  2175.18  2179.10  2186.69  2191.65
                             2204.94  2226.49  2238.02  2340.44  2370.25
                             2399.85  2469.72  4365.82  4385.20  4399.59
                             4401.96  4444.10  4457.82  4489.74  4520.05
                             4530.84  4534.73  4563.89  4580.96  4591.75
                             4596.39  4614.30  4628.63  4703.88

 Zero-point correction=                           0.288866 (Hartree/Particle)
 Thermal correction to Energy=                    0.306869
 Thermal correction to Enthalpy=                  0.307814
 Thermal correction to Gibbs Free Energy=         0.239933
 Sum of electronic and zero-point Energies=          -1109.795554
 Sum of electronic and thermal Energies=             -1109.777550
 Sum of electronic and thermal Enthalpies=           -1109.776606
 Sum of electronic and thermal Free Energies=        -1109.844487

                     E (Thermal)             CV                S
                      KCal/Mol        Cal/Mol-Kelvin    Cal/Mol-Kelvin
 Total                  192.563             66.420            142.866
 Electronic               0.000              0.000              0.000
 Translational            0.889              2.981             42.556
 Rotational               0.889              2.981             33.718
 Vibrational            190.786             60.459             66.593
 Vibration     1          0.593              1.986              6.567
 Vibration     2          0.593              1.985              6.167
 Vibration     3          0.594              1.983              5.665
 Vibration     4          0.594              1.981              5.194
 Vibration     5          0.597              1.971              4.287
 Vibration     6          0.603              1.953              3.564
 Vibration     7          0.604              1.949              3.449
 Vibration     8          0.607              1.938              3.203
 Vibration     9          0.616              1.908              2.740
 Vibration    10          0.627              1.875              2.400
 Vibration    11          0.637              1.843              2.153
 Vibration    12          0.648              1.809              1.952
 Vibration    13          0.659              1.772              1.772
 Vibration    14          0.674              1.729              1.600
 Vibration    15          0.676              1.724              1.579
 Vibration    16          0.703              1.643              1.330
 Vibration    17          0.708              1.629              1.295
 Vibration    18          0.757              1.494              1.005
 Vibration    19          0.769              1.462              0.948
 Vibration    20          0.782              1.429              0.896
 Vibration    21          0.788              1.414              0.872
 Vibration    22          0.820              1.335              0.761
 Vibration    23          0.856              1.249              0.657
 Vibration    24          0.879              1.197              0.601
 Vibration    25          0.892              1.169              0.572
 Vibration    26          0.971              1.006              0.429

 Optimization completed.
    -- Stationary point found.
 Normal termination of Gaussian 16 at Fri Dec 11 20:52:25 2020.

 ----------------------------------------------------------------------
 # B3LYP/6-311++G(d,p) empiricaldispersion=gd3bj scf=xqc pop=npa geom=c
 heck
 ----------------------------------------------------------------------

 --------------------------------------
 CID_84557642_JID_8335_Energie_neutraal
 --------------------------------------
 Structure from the checkpoint file:  "JID_8335.chk"
 Charge =  0 Multiplicity = 1

 SCF Done:  E(RB3LYP) =  -1110.29844314     A.U. after   17 cycles
 Normal termination of Gaussian 16 at Fri Dec 11 20:58:54 2020.

 ----------------------------------------------------------------------
 # B3LYP/6-311++G(d,p) empiricaldispersion=gd3bj scf=xqc pop=npa geom=c
 heck
 ----------------------------------------------------------------------

 ------------------------------------
 CID_84557642_JID_8335_Energie_kation
 ------------------------------------
 Structure from the checkpoint file:  "JID_8335.chk"
 Charge =  1 Multiplicity = 2

 SCF Done:  E(UB3LYP) =  -1110.00589468     A.U. after   33 cycles
 SCF Done:  E(UB3LYP) =  -1110.00589468     a.u. after    1 cycles
 Normal termination of Gaussian 16 at Fri Dec 11 21:15:57 2020.
 Gaussian 16:  ES64L-G16RevA.03 25-Dec-2016

 ----------------------------------------------------------------------
 # B3LYP/6-311++G(d,p) empiricaldispersion=gd3bj scf=xqc pop=npa geom=c
 heck
 ----------------------------------------------------------------------

 -----------------------------------
 CID_84557642_JID_8335_Energie_anion
 -----------------------------------
 Structure from the checkpoint file:  "JID_8335.chk"
 Charge = -1 Multiplicity = 2

                         Standard orientation:
 ---------------------------------------------------------------------
 Center     Atomic      Atomic             Coordinates (Angstroms)
 Number     Number       Type             X           Y           Z
 ---------------------------------------------------------------------
      1          6           0       -1.809670    2.258263    0.241182
      2          6           0       -2.408243    0.890618    0.058498
      3          6           0       -3.688076    0.632310   -0.364235
      4         16           0       -4.006555   -1.092025   -0.423241
      5          6           0       -2.399220   -1.457715    0.099594
      6          6           0       -1.664842   -0.323024    0.315196
      7          6           0       -0.287986   -0.312778    0.895989
      8          8           0       -0.026414    0.432581    1.843519
      9          7           0        0.642667   -1.177212    0.375703
     10          6           0        0.563093   -1.810589   -0.932492
     11          6           0        1.951720   -1.251767    1.034455
     12          6           0        2.996476   -0.381411    0.367522
     13          6           0        2.879376    1.015264    0.417026
     14          6           0        3.822709    1.821733   -0.215355
     15          6           0        4.894104    1.246606   -0.904807
     16          6           0        5.017092   -0.140832   -0.957905
     17          6           0        4.069682   -0.948788   -0.324773
     18          6           0       -4.784327    1.585997   -0.735042
     19          1           0       -1.551247    2.423854    1.290595
     20          1           0       -0.879916    2.359169   -0.331112
     21          1           0       -2.492028    3.047182   -0.083886
     22          1           0       -2.088802   -2.483351    0.243502
     23          1           0        1.442836   -1.532751   -1.524775
     24          1           0        0.540374   -2.904719   -0.840869
     25          1           0       -0.331213   -1.483402   -1.458968
     26          1           0        1.800244   -0.946109    2.070566
     27          1           0        2.272476   -2.300370    1.021468
     28          1           0        2.045760    1.452166    0.958128
     29          1           0        3.726000    2.903050   -0.167557
     30          1           0        5.628934    1.878486   -1.395941
     31          1           0        5.846792   -0.596079   -1.491743
     32          1           0        4.167218   -2.031561   -0.365494
     33          1           0       -4.397671    2.604540   -0.819596
     34          1           0       -5.240245    1.323090   -1.696408
     35          1           0       -5.583311    1.595709    0.016758
 ---------------------------------------------------------------------

 SCF Done:  E(UB3LYP) =  -1110.28593037     A.U. after   33 cycles
 SCF Done:  E(UB3LYP) =  -1110.28593037     a.u. after    2 cycles

 The electronic state is 2-A.
 Alpha  occ. eigenvalues --  -88.74857 -18.96143 -14.22923 -10.14678 -10.10218
 Alpha  occ. eigenvalues --  -10.09788 -10.07964 -10.07886 -10.07760 -10.07647
 Alpha  occ. eigenvalues --  -10.07448 -10.07347 -10.06777 -10.06757 -10.06232
 Alpha  occ. eigenvalues --  -10.06119 -10.05532 -10.04889  -7.83492  -5.79780
 Alpha  occ. eigenvalues --   -5.79422  -5.79096  -0.91691  -0.82434  -0.76203
 Alpha  occ. eigenvalues --   -0.75746  -0.67349  -0.65244  -0.64894  -0.64452
 Alpha  occ. eigenvalues --   -0.60934  -0.59750  -0.56573  -0.54319  -0.50970
 Alpha  occ. eigenvalues --   -0.49744  -0.46620  -0.43802  -0.41814  -0.40424
 Alpha  occ. eigenvalues --   -0.38720  -0.37118  -0.36590  -0.35828  -0.34807
 Alpha  occ. eigenvalues --   -0.33868  -0.32534  -0.31921  -0.31201  -0.30525
 Alpha  occ. eigenvalues --   -0.29506  -0.29317  -0.28781  -0.28704  -0.27986
 Alpha  occ. eigenvalues --   -0.26685  -0.26449  -0.25380  -0.25171  -0.24473
 Alpha  occ. eigenvalues --   -0.24158  -0.23293  -0.22066  -0.16080  -0.15947
 Alpha  occ. eigenvalues --   -0.14285  -0.13292  -0.12305  -0.11125   0.05138
 Alpha virt. eigenvalues --    0.06419   0.06992   0.07503   0.07680   0.08069
 Alpha virt. eigenvalues --    0.08469   0.09121   0.09610   0.10081   0.10643
 Alpha virt. eigenvalues --    0.10752   0.11008   0.11902   0.12050   0.12255

  Beta  occ. eigenvalues --  -88.74837 -18.96008 -14.22894 -10.14565 -10.10230
  Beta  occ. eigenvalues --  -10.09785 -10.07954 -10.07829 -10.07759 -10.07649
  Beta  occ. eigenvalues --  -10.07316 -10.07235 -10.06742 -10.06515 -10.06245
  Beta  occ. eigenvalues --  -10.06078 -10.05507 -10.04869  -7.83473  -5.79768
  Beta  occ. eigenvalues --   -5.79416  -5.79028  -0.91465  -0.82320  -0.76037
  Beta  occ. eigenvalues --   -0.75619  -0.67169  -0.65050  -0.64823  -0.64334
  Beta  occ. eigenvalues --   -0.60881  -0.59608  -0.56469  -0.54139  -0.50941
  Beta  occ. eigenvalues --   -0.49501  -0.46338  -0.43671  -0.41751  -0.40321
  Beta  occ. eigenvalues --   -0.38616  -0.37024  -0.36474  -0.35746  -0.34693
  Beta  occ. eigenvalues --   -0.33779  -0.32513  -0.31794  -0.31132  -0.30404
  Beta  occ. eigenvalues --   -0.29430  -0.29261  -0.28637  -0.28583  -0.27872
  Beta  occ. eigenvalues --   -0.26368  -0.26223  -0.25252  -0.25089  -0.24349
  Beta  occ. eigenvalues --   -0.23990  -0.22831  -0.21938  -0.15846  -0.15432
  Beta  occ. eigenvalues --   -0.13979  -0.12998  -0.11994  -0.10354
  Beta virt. eigenvalues --    0.06331   0.07365   0.07744   0.08067   0.08216
  Beta virt. eigenvalues --    0.08460   0.09087   0.09298   0.09727   0.10291
  Beta virt. eigenvalues --    0.10682   0.10913   0.11310   0.11981   0.12198

 Mulliken charges and spin densities:
               1          2
     1  C   -0.279632  -0.756079
     2  C   -0.094133   0.146208
     3  C   -0.677771   0.903921
     4  S   -0.356495  -0.337025
     5  C   -0.662312   0.772588
     6  C   -0.033123   0.376418
     7  C   -0.346866   0.087057
     8  O   -0.298529   0.042423
     9  N    0.217394   0.010962
    10  C   -0.340344  -0.105280
    11  C   -0.540201  -0.013256
    12  C    0.964144   0.007387
    13  C   -0.135312   0.009080
    14  C   -0.319123   0.030007
    15  C   -0.298412   0.081248
    16  C   -0.333543   0.002722
    17  C   -0.399146   0.028304
    18  C    2.093296  -2.134209
    19  H    0.170438   0.033242
    20  H    0.015242   0.131590
    21  H   -0.024308   0.117989
    22  H    0.217171  -0.005481
    23  H    0.093976   0.065009
    24  H    0.135536  -0.003347
    25  H    0.113402   0.083107
    26  H    0.202997   0.000786
    27  H    0.141005   0.021748
    28  H    0.215025  -0.023654
    29  H    0.128915   0.029357
    30  H    0.086741   0.025309
    31  H    0.139958   0.001067
    32  H    0.112826   0.001858
    33  H   -0.252032   0.389722
    34  H   -0.638736   0.804743
    35  H   -0.018051   0.174480
 Sum of Mulliken charges =  -1.00000   1.00000

 Dipole moment (field-independent basis, Debye):
    X=              7.4479    Y=             -4.1135    Z=              0.9952  Tot=              8.5663
 Quadrupole moment (field-independent basis, Debye-Ang):
   XX=           -205.0619   YY=           -133.3688   ZZ=           -145.0722
   XY=              8.5282   XZ=            -17.0857   YZ=              3.0248

 Summary of Natural Population Analysis:

                                       Natural Population
                Natural  -----------------------------------------------
    Atom  No    Charge         Core      Valence    Rydberg      Total
 -----------------------------------------------------------------------
      C    1   -0.29203      0.99963     2.28638    0.00602     3.29203
      C    2   -0.03545      0.99939     2.02488    0.01118     3.03545
      C    3   -0.09191      0.99944     2.07944    0.01303     3.09191
      S    4    0.19829      4.99941     2.78105    0.02124     7.80171
      C    5   -0.13855      0.99948     2.12841    0.01066     3.13855
      C    6   -0.08440      0.99940     2.07288    0.01213     3.08440
      C    7    0.36101      0.99955     1.61700    0.02244     2.63899
      O    8   -0.32192      0.99988     3.31717    0.00487     4.32192
      N    9   -0.25133      0.99965     2.74198    0.00970     3.75133
      C   10   -0.17803      0.99964     2.17112    0.00726     3.17803
      C   11   -0.09303      0.99958     2.08251    0.01093     3.09303
      C   12   -0.00988      0.99951     1.99967    0.01070     3.00988
      C   13   -0.09200      0.99947     2.08263    0.00990     3.09200
      C   14   -0.10319      0.99958     2.09410    0.00951     3.10319
      C   15   -0.09205      0.99957     2.08284    0.00964     3.09205
      C   16   -0.10628      0.99958     2.09799    0.00870     3.10628
      C   17   -0.10328      0.99945     2.09340    0.01043     3.10328
      C   18   -0.29794      0.99961     2.29153    0.00679     3.29794
      H   19    0.11351      0.00000     0.38543    0.00106     0.38649
      H   20    0.10391      0.00000     0.39495    0.00115     0.39609
      H   21    0.09754      0.00000     0.40163    0.00083     0.40246
      H   22    0.10256      0.00000     0.39659    0.00085     0.39744
      H   23    0.09567      0.00000     0.40321    0.00112     0.40433
      H   24    0.08485      0.00000     0.41429    0.00086     0.41515
      H   25    0.11270      0.00000     0.38642    0.00089     0.38730
      H   26    0.11869      0.00000     0.38027    0.00104     0.38131
      H   27    0.08955      0.00000     0.40943    0.00103     0.41045
      H   28    0.11480      0.00000     0.38334    0.00186     0.38520
      H   29    0.09764      0.00000     0.40149    0.00087     0.40236
      H   30    0.09465      0.00000     0.40452    0.00083     0.40535
      H   31    0.09488      0.00000     0.40428    0.00083     0.40512
      H   32    0.09495      0.00000     0.40413    0.00092     0.40505
      H   33    0.10622      0.00000     0.39254    0.00123     0.39378
      H   34    0.10921      0.00000     0.38692    0.00387     0.39079
      H   35    0.10068      0.00000     0.39828    0.00105     0.39932
 =======================================================================
   * Total *    0.00002     21.99182    46.79272    0.21543    68.99998

 Normal termination of Gaussian 16 at Fri Dec 11 22:03:38 2020.
