 Gaussian 16, Revision A.03,

 -----------------------------------------------------------
 # opt freq B3LYP/6-31G(d) empiricaldispersion=gd3bj scf=xqc
 -----------------------------------------------------------

 -------------------------------
 CID_106897551_JID_8880_neutraal
 -------------------------------
 Symbolic Z-matrix:
 Charge =  0 Multiplicity = 1

 SCF Done:  E(RB3LYP) =  -850.021225789     A.U. after   15 cycles
 SCF Done:  E(RB3LYP) =  -850.029369531     A.U. after   13 cycles
 SCF Done:  E(RB3LYP) =  -850.030965874     A.U. after   12 cycles
 SCF Done:  E(RB3LYP) =  -850.031590482     A.U. after   13 cycles
 SCF Done:  E(RB3LYP) =  -850.031913171     A.U. after   12 cycles
 SCF Done:  E(RB3LYP) =  -850.032156445     A.U. after   12 cycles
 SCF Done:  E(RB3LYP) =  -850.032458853     A.U. after   12 cycles
 SCF Done:  E(RB3LYP) =  -850.032914717     A.U. after   15 cycles
 SCF Done:  E(RB3LYP) =  -850.033027956     A.U. after   12 cycles
 SCF Done:  E(RB3LYP) =  -850.033086766     A.U. after   11 cycles
 SCF Done:  E(RB3LYP) =  -850.033215423     A.U. after   10 cycles
 SCF Done:  E(RB3LYP) =  -850.033211463     A.U. after   12 cycles
 SCF Done:  E(RB3LYP) =  -850.033223700     A.U. after   11 cycles
 SCF Done:  E(RB3LYP) =  -850.033222151     A.U. after   10 cycles
 SCF Done:  E(RB3LYP) =  -850.033224240     A.U. after   10 cycles
 SCF Done:  E(RB3LYP) =  -850.033224360     A.U. after    8 cycles
 Optimization completed.
    -- Stationary point found.
 Normal termination of Gaussian 16 at Fri Dec 11 22:22:49 2020.

 --------------------------------------------------------------------
 #N Geom=AllCheck Guess=TCheck SCRF=Check GenChk RB3LYP/6-31G(d) Freq
 --------------------------------------------------------------------

 Structure from the checkpoint file:  "JID_8880.chk"
 -------------------------------
 CID_106897551_JID_8880_neutraal
 -------------------------------
 Charge =  0 Multiplicity = 1

 SCF Done:  E(RB3LYP) =  -850.033224360     A.U. after    1 cycles

  Exact polarizability: 256.338  -6.359 118.781  -7.458   1.176  96.330
 Approx polarizability: 349.414 -14.202 213.435  -9.633   0.431 174.303

                      1                      2                      3
                      A                      A                      A
 Frequencies --     17.6102                32.9447                34.9057
 Red. masses --      5.8659                 5.8985                 6.2438
 Frc consts  --      0.0011                 0.0038                 0.0045
 IR Inten    --      1.0080                 4.1083                 0.4819

                      4                      5                      6
                      A                      A                      A
 Frequencies --     64.2432               103.2486               142.7674
 Red. masses --      8.2444                 5.7630                 4.9530
 Frc consts  --      0.0200                 0.0362                 0.0595
 IR Inten    --      0.3739                 0.2850                 3.2202

                      7                      8                      9
                      A                      A                      A
 Frequencies --    163.3134               189.9136               200.2425
 Red. masses --      5.6505                 4.4253                 4.5140
 Frc consts  --      0.0888                 0.0940                 0.1066
 IR Inten    --      2.4937                 0.4765                 1.6080

                     10                     11                     12
                      A                      A                      A
 Frequencies --    221.6817               305.7955               308.9701
 Red. masses --      3.3647                 3.4286                 3.8842
 Frc consts  --      0.0974                 0.1889                 0.2185
 IR Inten    --      6.6273                 1.5993                12.7309

                     13                     14                     15
                      A                      A                      A
 Frequencies --    380.8182               383.9792               395.4121
 Red. masses --      4.2436                 4.6286                 7.2744
 Frc consts  --      0.3626                 0.4021                 0.6701
 IR Inten    --      5.1483                 9.6313                 1.1499

                     16                     17                     18
                      A                      A                      A
 Frequencies --    398.1907               437.4880               468.1172
 Red. masses --      1.4145                 3.2373                 3.2353
 Frc consts  --      0.1321                 0.3651                 0.4177
 IR Inten    --     41.3546                 0.4633                13.5331

                     19                     20                     21
                      A                      A                      A
 Frequencies --    494.8199               548.8851               560.5975
 Red. masses --      4.2013                 5.0064                 2.4213
 Frc consts  --      0.6061                 0.8887                 0.4483
 IR Inten    --      7.1149                11.2233                31.8195

                     22                     23                     24
                      A                      A                      A
 Frequencies --    582.2807               618.3785               630.7585
 Red. masses --      4.4538                 5.0239                 1.5651
 Frc consts  --      0.8897                 1.1319                 0.3669
 IR Inten    --      6.2100                 9.4957                77.6142

                     25                     26                     27
                      A                      A                      A
 Frequencies --    643.7666               656.2830               720.7786
 Red. masses --      6.8991                 5.2985                 3.3711
 Frc consts  --      1.6846                 1.3446                 1.0319
 IR Inten    --     18.3470                36.7495               100.4804

                     28                     29                     30
                      A                      A                      A
 Frequencies --    741.4630               762.2170               776.7984
 Red. masses --      2.4966                 4.1995                 4.7257
 Frc consts  --      0.8087                 1.4375                 1.6801
 IR Inten    --     74.2820                 1.4772                83.7327

                     31                     32                     33
                      A                      A                      A
 Frequencies --    782.3160               807.8134               815.1509
 Red. masses --      3.1832                 1.5956                 2.3050
 Frc consts  --      1.1478                 0.6135                 0.9024
 IR Inten    --     67.0858                20.4921                 6.3199

                     34                     35                     36
                      A                      A                      A
 Frequencies --    843.8340               850.7971               916.7883
 Red. masses --      1.5881                 4.0012                 1.4584
 Frc consts  --      0.6663                 1.7065                 0.7222
 IR Inten    --     90.2188                21.5000                14.5972

                     37                     38                     39
                      A                      A                      A
 Frequencies --    951.0196               961.8865               988.4267
 Red. masses --      1.4255                 1.3587                 3.6190
 Frc consts  --      0.7596                 0.7406                 2.0832
 IR Inten    --      3.9408                 3.5656                 7.1010

                     40                     41                     42
                      A                      A                      A
 Frequencies --   1012.8235              1027.9710              1045.3030
 Red. masses --      1.4232                 2.1980                 6.5106
 Frc consts  --      0.8602                 1.3685                 4.1914
 IR Inten    --     10.7821                42.4209                 2.5618

                     43                     44                     45
                      A                      A                      A
 Frequencies --   1074.9790              1098.1472              1118.3088
 Red. masses --      2.6547                 3.1790                 1.9835
 Frc consts  --      1.8074                 2.2587                 1.4615
 IR Inten    --     18.6899               137.7768                15.2239

                     46                     47                     48
                      A                      A                      A
 Frequencies --   1131.4066              1138.4094              1192.0344
 Red. masses --      1.7595                 2.1801                 2.0425
 Frc consts  --      1.3270                 1.6646                 1.7100
 IR Inten    --     25.1410                46.8101                29.8913

                     49                     50                     51
                      A                      A                      A
 Frequencies --   1196.6703              1213.1912              1247.3567
 Red. masses --      1.6991                 2.2325                 1.6548
 Frc consts  --      1.4336                 1.9360                 1.5170
 IR Inten    --    411.5295                 6.2693                 5.0545

                     52                     53                     54
                      A                      A                      A
 Frequencies --   1283.0170              1291.2359              1312.4281
 Red. masses --      2.3877                 1.6495                 2.1064
 Frc consts  --      2.3158                 1.6203                 2.1377
 IR Inten    --      0.6633               167.0271                16.8912

                     55                     56                     57
                      A                      A                      A
 Frequencies --   1342.2759              1353.8849              1383.1915
 Red. masses --      1.6851                 4.1871                 1.8024
 Frc consts  --      1.7887                 4.5220                 2.0317
 IR Inten    --     48.0632                 3.0371                99.7714

                     58                     59                     60
                      A                      A                      A
 Frequencies --   1400.6632              1446.2751              1476.1287
 Red. masses --      2.8056                 2.4064                 3.6054
 Frc consts  --      3.2430                 2.9657                 4.6286
 IR Inten    --    180.8150                 4.4140               178.3229

                     61                     62                     63
                      A                      A                      A
 Frequencies --   1480.1011              1501.8625              1527.1057
 Red. masses --      2.2860                 1.8900                 1.0956
 Frc consts  --      2.9506                 2.5117                 1.5054
 IR Inten    --      5.2691                11.8293                 8.8999

                     64                     65                     66
                      A                      A                      A
 Frequencies --   1541.5557              1612.0432              1632.2222
 Red. masses --      2.8305                 5.3435                 4.5904
 Frc consts  --      3.9630                 8.1814                 7.2055
 IR Inten    --    205.6837                 2.6907                56.4061

                     67                     68                     69
                      A                      A                      A
 Frequencies --   1635.6426              1652.4896              1688.4540
 Red. masses --      5.3661                 3.2572                 1.3806
 Frc consts  --      8.4584                 5.2405                 2.3190
 IR Inten    --      7.8236               128.9867                84.0721

                     70                     71                     72
                      A                      A                      A
 Frequencies --   1822.4629              3050.3093              3107.3377
 Red. masses --      9.7193                 1.0665                 1.0970
 Frc consts  --     19.0196                 5.8465                 6.2408
 IR Inten    --    360.4111                25.2767                 8.4902

                     73                     74                     75
                      A                      A                      A
 Frequencies --   3195.5925              3210.4939              3215.1283
 Red. masses --      1.0878                 1.0930                 1.0908
 Frc consts  --      6.5450                 6.6378                 6.6436
 IR Inten    --      4.3623                24.7740                 4.4963

                     76                     77                     78
                      A                      A                      A
 Frequencies --   3217.2618              3225.0355              3514.2906
 Red. masses --      1.0915                 1.0959                 1.0489
 Frc consts  --      6.6566                 6.7159                 7.6325
 IR Inten    --      2.1770                 5.4863                 6.8102

                     79                     80                     81
                      A                      A                      A
 Frequencies --   3519.5900              3616.9919              3700.2001
 Red. masses --      1.0734                 1.0967                 1.0642
 Frc consts  --      7.8345                 8.4536                 8.5843
 IR Inten    --     16.0297                12.2955                82.6513

 - Thermochemistry -
 -------------------
 Temperature   298.150 Kelvin.  Pressure   1.00000 Atm.
 Atom     1 has atomic number  6 and mass  12.00000

 Molecular mass:   245.09127 amu.
 Principal axes and moments of inertia in atomic units:
                           1         2         3
     Eigenvalues --  1100.74684********************
           X            0.99998   0.00142  -0.00532
           Y           -0.00134   0.99989   0.01496
           Z            0.00534  -0.01495   0.99987
 This molecule is an asymmetric top.
 Rotational symmetry number  1.
 Warning -- assumption of classical behavior for rotation
           may cause significant error
 Rotational temperatures (Kelvin)      0.07869     0.00720     0.00697
 Rotational constants (GHZ):           1.63956     0.15000     0.14530
 Zero-point vibrational energy     588303.0 (Joules/Mol)
                                  140.60778 (Kcal/Mol)
 Warning -- explicit consideration of  23 degrees of freedom as
           vibrations may cause significant error
 Vibrational temperatures:     25.34    47.40    50.22    92.43   148.55
          (Kelvin)            205.41   234.97   273.24   288.10   318.95
                              439.97   444.54   547.91   552.46   568.91
                              572.91   629.45   673.52   711.94   789.72
                              806.57   837.77   889.71   907.52   926.24
                              944.24  1037.04  1066.80  1096.66  1117.64
                             1125.58  1162.26  1172.82  1214.09  1224.11
                             1319.05  1368.31  1383.94  1422.13  1457.23
                             1479.02  1503.96  1546.65  1579.99  1609.00
                             1627.84  1637.92  1715.07  1721.74  1745.51
                             1794.67  1845.98  1857.80  1888.29  1931.24
                             1947.94  1990.10  2015.24  2080.87  2123.82
                             2129.54  2160.85  2197.16  2217.95  2319.37
                             2348.40  2353.32  2377.56  2429.31  2622.12
                             4388.71  4470.77  4597.74  4619.18  4625.85
                             4628.92  4640.11  5056.28  5063.91  5204.04
                             5323.76

 Zero-point correction=                           0.224073 (Hartree/Particle)
 Thermal correction to Energy=                    0.239296
 Thermal correction to Enthalpy=                  0.240240
 Thermal correction to Gibbs Free Energy=         0.179073
 Sum of electronic and zero-point Energies=           -849.809152
 Sum of electronic and thermal Energies=              -849.793929
 Sum of electronic and thermal Enthalpies=            -849.792985
 Sum of electronic and thermal Free Energies=         -849.854151

                     E (Thermal)             CV                S
                      KCal/Mol        Cal/Mol-Kelvin    Cal/Mol-Kelvin
 Total                  150.160             58.111            128.735
 Electronic               0.000              0.000              0.000
 Translational            0.889              2.981             42.390
 Rotational               0.889              2.981             33.464
 Vibrational            148.383             52.149             52.881
 Vibration     1          0.593              1.986              6.887
 Vibration     2          0.594              1.983              5.644
 Vibration     3          0.594              1.983              5.529
 Vibration     4          0.597              1.971              4.322
 Vibration     5          0.605              1.947              3.392
 Vibration     6          0.616              1.910              2.766
 Vibration     7          0.623              1.887              2.511
 Vibration     8          0.633              1.854              2.229
 Vibration     9          0.638              1.840              2.131
 Vibration    10          0.648              1.808              1.945
 Vibration    11          0.696              1.663              1.385
 Vibration    12          0.698              1.657              1.368
 Vibration    13          0.751              1.511              1.036
 Vibration    14          0.753              1.504              1.023
 Vibration    15          0.762              1.480              0.980
 Vibration    16          0.764              1.474              0.969
 Vibration    17          0.798              1.388              0.835
 Vibration    18          0.825              1.321              0.743
 Vibration    19          0.850              1.262              0.671
 Vibration    20          0.904              1.142              0.546
 Vibration    21          0.916              1.117              0.523
 Vibration    22          0.939              1.070              0.481
 Vibration    23          0.978              0.993              0.419

                           ! Non-Optimized Parameters !
 Normal termination of Gaussian 16 at Fri Dec 11 22:32:01 2020.

 ----------------------------------------------------------------------
 # B3LYP/6-311++G(d,p) empiricaldispersion=gd3bj scf=xqc pop=npa geom=c
 heck
 ----------------------------------------------------------------------

 ---------------------------------------
 CID_106897551_JID_8880_Energie_neutraal
 ---------------------------------------
 Structure from the checkpoint file:  "JID_8880.chk"
 Charge =  0 Multiplicity = 1

 SCF Done:  E(RB3LYP) =  -850.278530014     A.U. after   17 cycles
 Normal termination of Gaussian 16 at Fri Dec 11 22:36:08 2020.

 ----------------------------------------------------------------------
 # B3LYP/6-311++G(d,p) empiricaldispersion=gd3bj scf=xqc pop=npa geom=c
 heck
 ----------------------------------------------------------------------

 -------------------------------------
 CID_106897551_JID_8880_Energie_kation
 -------------------------------------
 Structure from the checkpoint file:  "JID_8880.chk"
 Charge =  1 Multiplicity = 2

 SCF Done:  E(UB3LYP) =  -849.986153311     A.U. after   30 cycles
 Normal termination of Gaussian 16 at Fri Dec 11 22:46:34 2020.
 Gaussian 16:  ES64L-G16RevA.03 25-Dec-2016

 ----------------------------------------------------------------------
 # B3LYP/6-311++G(d,p) empiricaldispersion=gd3bj scf=xqc pop=npa geom=c
 heck
 ----------------------------------------------------------------------

 ------------------------------------
 CID_106897551_JID_8880_Energie_anion
 ------------------------------------
 Structure from the checkpoint file:  "JID_8880.chk"
 Charge = -1 Multiplicity = 2

                         Standard orientation:
 ---------------------------------------------------------------------
 Center     Atomic      Atomic             Coordinates (Angstroms)
 Number     Number       Type             X           Y           Z
 ---------------------------------------------------------------------
      1          6           0       -4.806330    0.245557    1.261004
      2          6           0       -3.455617    0.105186    0.998045
      3          6           0       -3.085307   -0.162059   -0.326447
      4          7           0       -3.979490   -0.290644   -1.316002
      5          7           0       -5.280569   -0.148307   -1.065584
      6          6           0       -5.683234    0.111880    0.181132
      7          6           0       -1.642239   -0.298291   -0.756520
      8          7           0       -0.769837   -0.666753    0.369114
      9          6           0        0.610327   -0.457305    0.235077
     10          6           0        1.120189    0.861264    0.090212
     11          6           0        2.496107    1.000421   -0.039682
     12          6           0        3.317984   -0.133965    0.026615
     13          6           0        2.717770   -1.375365    0.245854
     14          7           0        1.394984   -1.532470    0.337914
     15          6           0        4.788472   -0.066168   -0.093882
     16          8           0        5.542822   -1.016016   -0.021216
     17          8           0        5.243308    1.200194   -0.299337
     18          7           0        0.241630    1.951463    0.058617
     19          1           0       -5.179301    0.449016    2.260351
     20          1           0       -2.695735    0.180897    1.768364
     21          1           0       -6.758265    0.209761    0.306764
     22          1           0       -1.588805   -1.022480   -1.579548
     23          1           0       -1.298606    0.660337   -1.157547
     24          1           0       -0.910724   -1.639814    0.631955
     25          1           0        2.937925    1.983970   -0.163266
     26          1           0        3.332609   -2.265577    0.335329
     27          1           0        6.212856    1.120564   -0.361960
     28          1           0       -0.553501    1.828281    0.678844
     29          1           0        0.696747    2.841682    0.228278
 ---------------------------------------------------------------------

 SCF Done:  E(UB3LYP) =  -850.297992533     A.U. after   29 cycles

 The electronic state is 2-A.
 Alpha  occ. eigenvalues --  -19.05589 -18.98301 -14.22191 -14.20672 -14.20307
 Alpha  occ. eigenvalues --  -14.19955 -14.18917 -10.17145 -10.11194 -10.10435
 Alpha  occ. eigenvalues --  -10.09308 -10.09021 -10.08768 -10.08266 -10.06587
 Alpha  occ. eigenvalues --  -10.06221 -10.06084 -10.05893  -0.99102  -0.89689
 Alpha  occ. eigenvalues --   -0.88328  -0.85869  -0.80958  -0.78998  -0.70685
 Alpha  occ. eigenvalues --   -0.69289  -0.68426  -0.63381  -0.58925  -0.54373
 Alpha  occ. eigenvalues --   -0.53365  -0.52812  -0.50077  -0.47955  -0.43035
 Alpha  occ. eigenvalues --   -0.41749  -0.40288  -0.39579  -0.38984  -0.36875
 Alpha  occ. eigenvalues --   -0.36277  -0.35714  -0.34474  -0.33787  -0.33107
 Alpha  occ. eigenvalues --   -0.32222  -0.30424  -0.29932  -0.29395  -0.29084
 Alpha  occ. eigenvalues --   -0.28080  -0.27196  -0.26788  -0.22771  -0.21432
 Alpha  occ. eigenvalues --   -0.19364  -0.18528  -0.18060  -0.16909  -0.16273
 Alpha  occ. eigenvalues --   -0.14965  -0.14273  -0.10690  -0.10044   0.03142
 Alpha virt. eigenvalues --    0.04870   0.07103   0.07559   0.08119   0.09129
 Alpha virt. eigenvalues --    0.09281   0.09734   0.10260   0.11383   0.11663
 Alpha virt. eigenvalues --    0.11918   0.13017   0.13986   0.14543   0.14721

  Beta  occ. eigenvalues --  -19.05554 -18.98101 -14.22199 -14.20643 -14.19982
  Beta  occ. eigenvalues --  -14.19636 -14.18946 -10.16949 -10.10932 -10.10513
  Beta  occ. eigenvalues --  -10.09374 -10.08995 -10.08841 -10.08213 -10.06391
  Beta  occ. eigenvalues --  -10.06027 -10.05912 -10.05814  -0.98904  -0.89399
  Beta  occ. eigenvalues --   -0.87777  -0.85692  -0.80957  -0.78894  -0.70368
  Beta  occ. eigenvalues --   -0.68859  -0.68125  -0.63122  -0.58723  -0.54079
  Beta  occ. eigenvalues --   -0.52897  -0.52536  -0.49935  -0.47840  -0.42919
  Beta  occ. eigenvalues --   -0.41627  -0.40195  -0.39436  -0.38854  -0.36676
  Beta  occ. eigenvalues --   -0.36157  -0.35543  -0.34274  -0.33066  -0.32849
  Beta  occ. eigenvalues --   -0.31903  -0.30119  -0.29788  -0.29053  -0.28730
  Beta  occ. eigenvalues --   -0.27629  -0.27015  -0.26605  -0.22658  -0.20722
  Beta  occ. eigenvalues --   -0.18746  -0.17604  -0.16856  -0.16742  -0.15503
  Beta  occ. eigenvalues --   -0.14857  -0.13813  -0.10246  -0.09440
  Beta virt. eigenvalues --    0.06990   0.07528   0.07616   0.07956   0.08275
  Beta virt. eigenvalues --    0.09300   0.09516   0.09705   0.10252   0.11385
  Beta virt. eigenvalues --    0.11661   0.11922   0.12994   0.14036   0.14540

 Mulliken charges and spin densities:
               1          2
     1  C   -0.654413   0.186014
     2  C    0.594335   0.141895
     3  C   -0.221477  -0.052752
     4  N    0.016233   0.142521
     5  N   -0.160478   0.145954
     6  C   -0.271207  -0.054659
     7  C   -0.776550   0.006921
     8  N    0.033868   0.017692
     9  C   -0.803558   0.133348
    10  C    0.308700  -0.047582
    11  C   -0.268622   0.181027
    12  C    0.446072   0.007844
    13  C   -0.416682   0.055253
    14  N   -0.077796  -0.013648
    15  C   -0.029153   0.116068
    16  O   -0.390446   0.068819
    17  O   -0.236452   0.008276
    18  N   -0.362402  -0.004428
    19  H    0.137533  -0.011462
    20  H    0.192007  -0.010947
    21  H    0.152379   0.001509
    22  H    0.195240  -0.004389
    23  H    0.216565  -0.003201
    24  H    0.250825   0.002000
    25  H    0.170333  -0.012386
    26  H    0.204323  -0.001953
    27  H    0.275803  -0.000480
    28  H    0.234014   0.003469
    29  H    0.241007  -0.000723
 Sum of Mulliken charges =  -1.00000   1.00000

 Dipole moment (field-independent basis, Debye):
    X=              1.5837    Y=              4.1330    Z=              3.5137  Tot=              5.6512
 Quadrupole moment (field-independent basis, Debye-Ang):
   XX=           -203.1874   YY=           -113.0544   ZZ=           -118.2698
   XY=             10.6685   XZ=            -19.0414   YZ=              1.7564

 Summary of Natural Population Analysis:

                                       Natural Population
                Natural  -----------------------------------------------
    Atom  No    Charge         Core      Valence    Rydberg      Total
 -----------------------------------------------------------------------
      C    1   -0.07699      0.99957     2.06853    0.00890     3.07699
      C    2   -0.08561      0.99951     2.07771    0.00839     3.08561
      C    3    0.07438      0.99954     1.91186    0.01422     2.92562
      N    4   -0.09691      0.99968     2.58028    0.01695     3.59691
      N    5   -0.08940      0.99973     2.57179    0.01788     3.58940
      C    6   -0.01861      0.99961     2.00363    0.01537     3.01861
      C    7   -0.10133      0.99957     2.09126    0.01050     3.10133
      N    8   -0.32943      0.99969     2.81712    0.01262     3.82943
      C    9    0.23068      0.99950     1.75341    0.01642     2.76932
      C   10    0.03475      0.99945     1.95489    0.01091     2.96525
      C   11   -0.05500      0.99952     2.04697    0.00852     3.05500
      C   12   -0.09763      0.99946     2.08910    0.00907     3.09763
      C   13    0.05138      0.99957     1.93569    0.01336     2.94862
      N   14   -0.26182      0.99967     2.75155    0.01059     3.76182
      C   15    0.41714      0.99966     1.55869    0.02450     2.58286
      O   16   -0.30861      0.99987     3.30134    0.00740     4.30861
      O   17   -0.35487      0.99988     3.34906    0.00592     4.35487
      N   18   -0.40561      0.99972     2.89662    0.00926     3.90561
      H   19    0.09317      0.00000     0.40562    0.00121     0.40683
      H   20    0.10502      0.00000     0.39356    0.00142     0.39498
      H   21    0.08595      0.00000     0.41272    0.00133     0.41405
      H   22    0.09593      0.00000     0.40238    0.00168     0.40407
      H   23    0.11090      0.00000     0.38771    0.00139     0.38910
      H   24    0.18654      0.00000     0.31160    0.00187     0.31346
      H   25    0.10041      0.00000     0.39851    0.00108     0.39959
      H   26    0.09547      0.00000     0.40329    0.00123     0.40453
      H   27    0.23364      0.00000     0.26329    0.00307     0.26636
      H   28    0.18695      0.00000     0.31074    0.00231     0.31305
      H   29    0.17950      0.00000     0.31898    0.00151     0.32050
 =======================================================================
   * Total *   -0.00000     17.99322    45.76791    0.23887    64.00000

 Normal termination of Gaussian 16 at Fri Dec 11 22:56:38 2020.
