 Gaussian 16, Revision A.03,

 -----------------------------------------------------------
 # opt freq B3LYP/6-31G(d) empiricaldispersion=gd3bj scf=xqc
 -----------------------------------------------------------

 -------------------------------
 CID_126990216_JID_2279_neutraal
 -------------------------------
 Symbolic Z-matrix:
 Charge =  0 Multiplicity = 1

 SCF Done:  E(RB3LYP) =  -513.762180218     A.U. after   15 cycles
 SCF Done:  E(RB3LYP) =  -513.782094353     A.U. after   13 cycles
 SCF Done:  E(RB3LYP) =  -513.783748613     A.U. after   13 cycles
 SCF Done:  E(RB3LYP) =  -513.783826309     A.U. after   13 cycles
 SCF Done:  E(RB3LYP) =  -513.783719086     A.U. after   13 cycles
 SCF Done:  E(RB3LYP) =  -513.784036100     A.U. after   12 cycles
 SCF Done:  E(RB3LYP) =  -513.784711573     A.U. after   12 cycles
 SCF Done:  E(RB3LYP) =  -513.783852099     A.U. after   13 cycles
 SCF Done:  E(RB3LYP) =  -513.784986016     A.U. after   11 cycles
 SCF Done:  E(RB3LYP) =  -513.785036026     A.U. after   11 cycles
 SCF Done:  E(RB3LYP) =  -513.785046922     A.U. after   11 cycles
 SCF Done:  E(RB3LYP) =  -513.785049414     A.U. after    9 cycles
 SCF Done:  E(RB3LYP) =  -513.785050105     A.U. after    8 cycles
 SCF Done:  E(RB3LYP) =  -513.785050235     A.U. after    8 cycles
 Optimization completed.
    -- Stationary point found.

 1\1\GINC-NODE110\FOpt\RB3LYP\6-31G(d)\C9H11N3\VSC10255\09-Dec-2020\0\\
 # opt freq B3LYP/6-31G(d) empiricaldispersion=gd3bj scf=xqc\\CID_12699
 0216_JID_2279_neutraal\\0,1\C,1.0469248567,0.1124864863,0.0814056392\C
 ,0.4824773925,1.2980536423,0.8826969352\C,0.8857567458,2.5982375675,0.
 3241202533\C,1.2389024397,3.6739756026,-0.0933363901\N,-0.9777559057,1
 .2054326447,1.1070553664\C,-1.4547129303,1.4214336761,2.4653383524\C,-
 1.8500761492,1.4401576329,0.0623257794\N,-1.3555165522,1.4091519288,-1
 .185776862\C,-2.2102405885,1.6120497194,-2.1891799992\C,-3.5651965289,

 Normal termination of Gaussian 16 at Wed Dec  9 17:01:42 2020.

 --------------------------------------------------------------------
 #N Geom=AllCheck Guess=TCheck SCRF=Check GenChk RB3LYP/6-31G(d) Freq
 --------------------------------------------------------------------

 Structure from the checkpoint file:  "JID_2279.chk"
 -------------------------------
 CID_126990216_JID_2279_neutraal
 -------------------------------
 Charge =  0 Multiplicity = 1

 SCF Done:  E(RB3LYP) =  -513.785050235     A.U. after    1 cycles

  Exact polarizability: 129.092   8.933 113.719   0.998   1.636  79.779
 Approx polarizability: 189.484  16.080 190.306   6.847   4.914 123.070

                      1                      2                      3
                      A                      A                      A
 Frequencies --     47.7868                55.9987                91.8402
 Red. masses --      4.7559                 3.4862                 3.3904
 Frc consts  --      0.0064                 0.0064                 0.0168
 IR Inten    --      0.0748                 1.0740                 1.8435

                      4                      5                      6
                      A                      A                      A
 Frequencies --    146.7257               180.4842               189.6091
 Red. masses --      2.9565                 2.0649                 1.7562
 Frc consts  --      0.0375                 0.0396                 0.0372
 IR Inten    --      0.5966                 0.9972                 0.3675

                      7                      8                      9
                      A                      A                      A
 Frequencies --    213.7776               235.4182               280.5343
 Red. masses --      2.9501                 1.3224                 2.6724
 Frc consts  --      0.0794                 0.0432                 0.1239
 IR Inten    --      0.9492                 1.1851                 0.2511

                     10                     11                     12
                      A                      A                      A
 Frequencies --    335.2197               393.3302               435.2392
 Red. masses --      3.6578                 2.8384                 4.1614
 Frc consts  --      0.2422                 0.2587                 0.4645
 IR Inten    --      2.3063                 1.1956                13.4297

                     13                     14                     15
                      A                      A                      A
 Frequencies --    446.4155               518.8545               554.2033
 Red. masses --      5.5220                 5.0052                 4.3345
 Frc consts  --      0.6484                 0.7939                 0.7844
 IR Inten    --      4.7246                 5.5118                 9.2074

                     16                     17                     18
                      A                      A                      A
 Frequencies --    578.5408               595.5469               616.0028
 Red. masses --      4.3423                 1.3551                 3.6876
 Frc consts  --      0.8563                 0.2832                 0.8244
 IR Inten    --      9.0418                41.2097                 1.5327

                     19                     20                     21
                      A                      A                      A
 Frequencies --    636.5196               645.0258               769.8528
 Red. masses --      1.6077                 2.9537                 2.8889
 Frc consts  --      0.3838                 0.7241                 1.0088
 IR Inten    --     25.2272                25.5716                 0.3901

                     22                     23                     24
                      A                      A                      A
 Frequencies --    783.5651               843.4427               867.2813
 Red. masses --      3.6808                 1.6132                 2.6429
 Frc consts  --      1.3315                 0.6761                 1.1713
 IR Inten    --      2.4442                24.6758                 1.7854

                     25                     26                     27
                      A                      A                      A
 Frequencies --    912.0585               943.6005               967.5849
 Red. masses --      1.4068                 2.4203                 1.3704
 Frc consts  --      0.6895                 1.2697                 0.7559
 IR Inten    --      0.5652                 8.2635                 0.0942

                     28                     29                     30
                      A                      A                      A
 Frequencies --   1020.6439              1059.9946              1091.1554
 Red. masses --      5.5132                 2.3933                 2.3907
 Frc consts  --      3.3838                 1.5844                 1.6771
 IR Inten    --     18.5393                35.5169                19.4304

                     31                     32                     33
                      A                      A                      A
 Frequencies --   1107.3574              1141.2704              1154.6302
 Red. masses --      2.4641                 1.5938                 1.3075
 Frc consts  --      1.7802                 1.2231                 1.0270
 IR Inten    --      1.9487                40.9790                20.4867

                     34                     35                     36
                      A                      A                      A
 Frequencies --   1187.2244              1193.9978              1252.4694
 Red. masses --      2.8280                 2.2098                 1.9632
 Frc consts  --      2.3485                 1.8561                 1.8145
 IR Inten    --      9.6294                21.5989                32.8415

                     37                     38                     39
                      A                      A                      A
 Frequencies --   1282.7749              1343.9425              1348.1892
 Red. masses --      6.7277                 1.6226                 1.3646
 Frc consts  --      6.5225                 1.7267                 1.4614
 IR Inten    --      7.4932                21.1402                16.0855

                     40                     41                     42
                      A                      A                      A
 Frequencies --   1368.3775              1421.3670              1432.9850
 Red. masses --      1.5977                 1.2269                 1.4899
 Frc consts  --      1.7627                 1.4604                 1.8025
 IR Inten    --    133.6021                10.4147                 3.1222

                     43                     44                     45
                      A                      A                      A
 Frequencies --   1464.6126              1500.0704              1508.8191
 Red. masses --      1.9521                 1.3544                 1.0520
 Frc consts  --      2.4671                 1.7957                 1.4110
 IR Inten    --    122.6700                 2.6757                 7.9670

                     46                     47                     48
                      A                      A                      A
 Frequencies --   1520.5648              1539.5658              1545.3225
 Red. masses --      1.0884                 1.2068                 1.1960
 Frc consts  --      1.4827                 1.6854                 1.6828
 IR Inten    --     11.0386                16.9081                 3.1954

                     49                     50                     51
                      A                      A                      A
 Frequencies --   1554.2840              1591.5872              1631.2936
 Red. masses --      1.5299                 6.8135                 5.3415
 Frc consts  --      2.1776                10.1690                 8.3748
 IR Inten    --    137.8939                38.2613               135.9301

                     52                     53                     54
                      A                      A                      A
 Frequencies --   2239.2609              3013.9884              3059.4423
 Red. masses --      5.9494                 1.0512                 1.0802
 Frc consts  --     17.5765                 5.6261                 5.9571
 IR Inten    --      0.2360                56.9918                13.4917

                     55                     56                     57
                      A                      A                      A
 Frequencies --   3068.4448              3098.4533              3133.4197
 Red. masses --      1.0415                 1.0883                 1.1034
 Frc consts  --      5.7774                 6.1561                 6.3829
 IR Inten    --     33.2406                27.5906                27.6906

                     58                     59                     60
                      A                      A                      A
 Frequencies --   3151.6048              3171.6256              3198.5337
 Red. masses --      1.0992                 1.0886                 1.0983
 Frc consts  --      6.4326                 6.4516                 6.6204
 IR Inten    --     20.3690                17.7708                15.2144

                     61                     62                     63
                      A                      A                      A
 Frequencies --   3199.4291              3209.1722              3496.6496
 Red. masses --      1.0941                 1.0914                 1.1606
 Frc consts  --      6.5989                 6.6228                 8.3602
 IR Inten    --     39.5799                 9.4950                50.9534

 - Thermochemistry -
 -------------------
 Temperature   298.150 Kelvin.  Pressure   1.00000 Atm.
 Atom     1 has atomic number  6 and mass  12.00000

 Molecular mass:   161.09530 amu.
 Principal axes and moments of inertia in atomic units:
                           1         2         3
     Eigenvalues --  1206.869632463.443472881.03345
           X            0.99974   0.01876   0.01288
           Y           -0.01839   0.99944  -0.02801
           Z           -0.01340   0.02777   0.99952
 This molecule is an asymmetric top.
 Rotational symmetry number  1.
 Warning -- assumption of classical behavior for rotation
           may cause significant error
 Rotational temperatures (Kelvin)      0.07177     0.03516     0.03006
 Rotational constants (GHZ):           1.49539     0.73261     0.62642
 Zero-point vibrational energy     493979.9 (Joules/Mol)
                                  118.06402 (Kcal/Mol)
 Warning -- explicit consideration of  18 degrees of freedom as
           vibrations may cause significant error
 Vibrational temperatures:     68.75    80.57   132.14   211.11   259.68
          (Kelvin)            272.81   307.58   338.71   403.63   482.31
                              565.91   626.21   642.29   746.52   797.37
                              832.39   856.86   886.29   915.81   928.05
                             1107.65  1127.38  1213.53  1247.82  1312.25
                             1357.63  1392.14  1468.48  1525.10  1569.93
                             1593.24  1642.03  1661.26  1708.15  1717.90
                             1802.02  1845.63  1933.63  1939.74  1968.79
                             2045.03  2061.75  2107.25  2158.27  2170.85
                             2187.75  2215.09  2223.37  2236.27  2289.94
                             2347.07  3221.80  4336.46  4401.86  4414.81
                             4457.98  4508.29  4534.46  4563.26  4601.98
                             4603.26  4617.28  5030.90

 Zero-point correction=                           0.188147 (Hartree/Particle)
 Thermal correction to Energy=                    0.199832
 Thermal correction to Enthalpy=                  0.200776
 Thermal correction to Gibbs Free Energy=         0.150192
 Sum of electronic and zero-point Energies=           -513.596903
 Sum of electronic and thermal Energies=              -513.585219
 Sum of electronic and thermal Enthalpies=            -513.584274
 Sum of electronic and thermal Free Energies=         -513.634858

                     E (Thermal)             CV                S
                      KCal/Mol        Cal/Mol-Kelvin    Cal/Mol-Kelvin
 Total                  125.396             43.495            106.463
 Electronic               0.000              0.000              0.000
 Translational            0.889              2.981             41.139
 Rotational               0.889              2.981             30.528
 Vibrational            123.619             37.533             34.796
 Vibration     1          0.595              1.978              4.907
 Vibration     2          0.596              1.975              4.593
 Vibration     3          0.602              1.955              3.620
 Vibration     4          0.617              1.906              2.714
 Vibration     5          0.629              1.866              2.323
 Vibration     6          0.633              1.854              2.232
 Vibration     7          0.644              1.820              2.011
 Vibration     8          0.655              1.787              1.837
 Vibration     9          0.680              1.710              1.530
 Vibration    10          0.716              1.605              1.235
 Vibration    11          0.761              1.484              0.987
 Vibration    12          0.796              1.393              0.842
 Vibration    13          0.806              1.369              0.807
 Vibration    14          0.874              1.208              0.613
 Vibration    15          0.910              1.130              0.536
 Vibration    16          0.935              1.078              0.488
 Vibration    17          0.953              1.041              0.457
 Vibration    18          0.976              0.998              0.423

                           ! Non-Optimized Parameters !

 1\1\GINC-NODE110\Freq\RB3LYP\6-31G(d)\C9H11N3\VSC10255\09-Dec-2020\0\\
 #N Geom=AllCheck Guess=TCheck SCRF=Check GenChk RB3LYP/6-31G(d) Freq\\
 CID_126990216_JID_2279_neutraal\\0,1\C,1.0469248567,0.1124864863,0.081
 4056392\C,0.4824773925,1.2980536423,0.8826969352\C,0.8857567458,2.5982
 375675,0.3241202533\C,1.2389024397,3.6739756026,-0.0933363901\N,-0.977
 7559057,1.2054326447,1.1070553664\C,-1.4547129303,1.4214336761,2.46533
 83524\C,-1.8500761492,1.4401576329,0.0623257794\N,-1.3555165522,1.4091
 519288,-1.185776862\C,-2.2102405885,1.6120497194,-2.1891799992\C,-3.56

 Normal termination of Gaussian 16 at Wed Dec  9 17:07:09 2020.

 ----------------------------------------------------------------------
 # B3LYP/6-311++G(d,p) empiricaldispersion=gd3bj scf=xqc pop=npa geom=c
 heck
 ----------------------------------------------------------------------

 ---------------------------------------
 CID_126990216_JID_2279_Energie_neutraal
 ---------------------------------------
 Structure from the checkpoint file:  "JID_2279.chk"
 Charge =  0 Multiplicity = 1

 SCF Done:  E(RB3LYP) =  -513.924708421     A.U. after   15 cycles
 Normal termination of Gaussian 16 at Wed Dec  9 17:10:03 2020.

 ----------------------------------------------------------------------
 # B3LYP/6-311++G(d,p) empiricaldispersion=gd3bj scf=xqc pop=npa geom=c
 heck
 ----------------------------------------------------------------------

 -------------------------------------
 CID_126990216_JID_2279_Energie_kation
 -------------------------------------
 Structure from the checkpoint file:  "JID_2279.chk"
 Charge =  1 Multiplicity = 2

 SCF Done:  E(UB3LYP) =  -513.634134909     A.U. after   23 cycles
 Normal termination of Gaussian 16 at Wed Dec  9 17:15:37 2020.
 Gaussian 16:  ES64L-G16RevA.03 25-Dec-2016

 ------------------------------------
 CID_126990216_JID_2279_Energie_anion
 ------------------------------------
 Structure from the checkpoint file:  "JID_2279.chk"
 Charge = -1 Multiplicity = 2

                         Standard orientation:
 ---------------------------------------------------------------------
 Center     Atomic      Atomic             Coordinates (Angstroms)
 Number     Number       Type             X           Y           Z
 ---------------------------------------------------------------------
      1          6           0        2.114488   -0.534915    1.653627
      2          6           0        1.933392    0.151369    0.288908
      3          6           0        2.040675   -0.792561   -0.834749
      4          6           0        2.166226   -1.542415   -1.771846
      5          7           0        0.712359    0.984913    0.214886
      6          6           0        0.862141    2.334993   -0.308495
      7          6           0       -0.527064    0.382215    0.124980
      8          7           0       -0.616055   -0.918429    0.447032
      9          6           0       -1.821425   -1.485262    0.381306
     10          6           0       -2.958622   -0.781781   -0.002412
     11          7           0       -2.883485    0.514026   -0.338830
     12          6           0       -1.688227    1.090594   -0.284012
     13          1           0        1.348548   -1.293820    1.803268
     14          1           0        2.042586    0.216190    2.446602
     15          1           0        3.103143   -1.003393    1.696266
     16          1           0        2.757760    0.865320    0.183729
     17          1           0        2.254209   -2.218373   -2.591495
     18          1           0        0.696791    2.392742   -1.395110
     19          1           0        0.162795    3.016795    0.185186
     20          1           0        1.871556    2.689229   -0.092985
     21          1           0       -1.875236   -2.540436    0.643474
     22          1           0       -3.935287   -1.256013   -0.048817
     23          1           0       -1.646105    2.134780   -0.575581
 ---------------------------------------------------------------------

 SCF Done:  E(UB3LYP) =  -513.916327574     A.U. after   33 cycles
 SCF Done:  E(UB3LYP) =  -513.916327574     a.u. after    1 cycles

 The electronic state is 2-A.
 Alpha  occ. eigenvalues --  -14.21615 -14.16548 -14.15980 -10.12160 -10.10848
 Alpha  occ. eigenvalues --  -10.08489 -10.06786 -10.06417 -10.06180 -10.06012
 Alpha  occ. eigenvalues --  -10.05199 -10.04743  -0.85731  -0.81191  -0.75514
 Alpha  occ. eigenvalues --   -0.68361  -0.63063  -0.62028  -0.57481  -0.53970
 Alpha  occ. eigenvalues --   -0.51381  -0.48263  -0.43222  -0.40120  -0.39336
 Alpha  occ. eigenvalues --   -0.36802  -0.35157  -0.34085  -0.33266  -0.31771
 Alpha  occ. eigenvalues --   -0.28949  -0.28513  -0.28343  -0.26528  -0.26199
 Alpha  occ. eigenvalues --   -0.24816  -0.20315  -0.17311  -0.16725  -0.16479
 Alpha  occ. eigenvalues --   -0.15565  -0.10667  -0.08980   0.05090
 Alpha virt. eigenvalues --    0.06965   0.08200   0.08677   0.09223   0.10203
 Alpha virt. eigenvalues --    0.10829   0.11398   0.11838   0.12513   0.12806
 Alpha virt. eigenvalues --    0.13052   0.13894   0.14293   0.14918   0.15734

  Beta  occ. eigenvalues --  -14.21628 -14.16130 -14.15607 -10.12143 -10.10836
  Beta  occ. eigenvalues --  -10.08448 -10.06718 -10.06414 -10.06118 -10.06032
  Beta  occ. eigenvalues --  -10.05188 -10.04719  -0.85510  -0.80856  -0.74860
  Beta  occ. eigenvalues --   -0.68311  -0.62891  -0.61985  -0.57385  -0.53833
  Beta  occ. eigenvalues --   -0.50977  -0.48137  -0.43134  -0.40054  -0.39211
  Beta  occ. eigenvalues --   -0.36675  -0.35070  -0.33970  -0.33153  -0.31696
  Beta  occ. eigenvalues --   -0.28896  -0.28347  -0.27625  -0.26384  -0.26087
  Beta  occ. eigenvalues --   -0.24715  -0.19313  -0.16917  -0.16546  -0.15597
  Beta  occ. eigenvalues --   -0.15201  -0.10253  -0.08486
  Beta virt. eigenvalues --    0.07654   0.08544   0.09098   0.09166   0.09925
  Beta virt. eigenvalues --    0.10648   0.11317   0.11413   0.11962   0.12736
  Beta virt. eigenvalues --    0.13092   0.13182   0.13935   0.14512   0.14890

 Mulliken charges and spin densities:
               1          2
     1  C    0.373462  -0.968663
     2  C   -1.169238   0.934496
     3  C    1.929644  -1.633305
     4  C   -1.072862   0.720322
     5  N    0.150101   0.094971
     6  C    0.775349  -1.099019
     7  C   -0.349655  -0.155782
     8  N   -0.067931   0.161148
     9  C    0.035815   0.118719
    10  C   -0.208237  -0.062238
    11  N   -0.127737   0.162012
    12  C   -0.173611   0.011561
    13  H    0.095608   0.076959
    14  H   -0.059793   0.190180
    15  H   -0.118672   0.255925
    16  H   -0.430910   0.625062
    17  H   -0.132882   0.282556
    18  H   -0.140091   0.309653
    19  H    0.047802   0.093417
    20  H   -0.710535   0.839959
    21  H    0.116403   0.010764
    22  H    0.126120  -0.002370
    23  H    0.111851   0.033671
 Sum of Mulliken charges =  -1.00000   1.00000

 Dipole moment (field-independent basis, Debye):
    X=             -1.5421    Y=             -2.9208    Z=              0.5286  Tot=              3.3449
 Quadrupole moment (field-independent basis, Debye-Ang):
   XX=           -123.1431   YY=            -99.4326   ZZ=            -93.1225
   XY=             -5.6364   XZ=             -4.3949   YZ=              1.9175

 Summary of Natural Population Analysis:

                                       Natural Population
                Natural  -----------------------------------------------
    Atom  No    Charge         Core      Valence    Rydberg      Total
 -----------------------------------------------------------------------
      C    1   -0.28091      0.99964     2.27475    0.00652     3.28091
      C    2   -0.04165      0.99951     2.02636    0.01577     3.04165
      C    3    0.01099      0.99935     1.97988    0.00979     2.98901
      C    4   -0.12672      0.99927     2.12396    0.00350     3.12672
      N    5   -0.25253      0.99965     2.74010    0.01279     3.75253
      C    6   -0.17258      0.99964     2.16450    0.00845     3.17258
      C    7    0.19100      0.99952     1.79567    0.01382     2.80900
      N    8   -0.20415      0.99967     2.69345    0.01103     3.70415
      C    9    0.02012      0.99959     1.96584    0.01445     2.97988
      C   10   -0.03397      0.99959     2.01903    0.01535     3.03397
      N   11   -0.16512      0.99971     2.65392    0.01149     3.66512
      C   12   -0.01152      0.99957     1.99739    0.01455     3.01152
      H   13    0.11625      0.00000     0.38240    0.00135     0.38375
      H   14    0.09970      0.00000     0.39904    0.00126     0.40030
      H   15    0.09587      0.00000     0.40323    0.00090     0.40413
      H   16    0.11137      0.00000     0.38546    0.00317     0.38863
      H   17    0.10736      0.00000     0.39150    0.00114     0.39264
      H   18    0.09103      0.00000     0.40721    0.00175     0.40897
      H   19    0.09447      0.00000     0.40419    0.00134     0.40553
      H   20    0.09968      0.00000     0.39807    0.00226     0.40032
      H   21    0.08223      0.00000     0.41676    0.00101     0.41777
      H   22    0.08291      0.00000     0.41593    0.00116     0.41709
      H   23    0.08619      0.00000     0.41157    0.00224     0.41381
 =======================================================================
   * Total *   -0.00000     11.99472    30.85021    0.15508    43.00000

 Normal termination of Gaussian 16 at Wed Dec  9 17:23:31 2020.
