 Gaussian 16, Revision A.03,

 -----------------------------------------------------------
 # opt freq B3LYP/6-31G(d) empiricaldispersion=gd3bj scf=xqc
 -----------------------------------------------------------

 ------------------------------
 CID_84770731_JID_4324_neutraal
 ------------------------------
 Symbolic Z-matrix:
 Charge =  0 Multiplicity = 1

 SCF Done:  E(RB3LYP) =  -611.095524958     A.U. after   15 cycles
 SCF Done:  E(RB3LYP) =  -611.100120290     A.U. after   13 cycles
 SCF Done:  E(RB3LYP) =  -611.100892561     A.U. after   12 cycles
 SCF Done:  E(RB3LYP) =  -611.101577100     A.U. after   13 cycles
 SCF Done:  E(RB3LYP) =  -611.101910331     A.U. after   12 cycles
 SCF Done:  E(RB3LYP) =  -611.102235642     A.U. after   12 cycles
 SCF Done:  E(RB3LYP) =  -611.102584529     A.U. after   13 cycles
 SCF Done:  E(RB3LYP) =  -611.102768203     A.U. after   15 cycles
 SCF Done:  E(RB3LYP) =  -611.103283950     A.U. after   12 cycles
 SCF Done:  E(RB3LYP) =  -611.103655424     A.U. after   12 cycles
 SCF Done:  E(RB3LYP) =  -611.103783451     A.U. after   10 cycles
 SCF Done:  E(RB3LYP) =  -611.103785038     A.U. after   10 cycles
 SCF Done:  E(RB3LYP) =  -611.103785289     A.U. after    9 cycles
 SCF Done:  E(RB3LYP) =  -611.103785338     A.U. after    8 cycles
 SCF Done:  E(RB3LYP) =  -611.103785355     A.U. after    7 cycles
 SCF Done:  E(RB3LYP) =  -611.103785357     A.U. after    7 cycles
 Optimization completed.
    -- Stationary point found.
 Normal termination of Gaussian 16 at Thu Dec 10 09:31:25 2020.

 --------------------------------------------------------------------
 #N Geom=AllCheck Guess=TCheck SCRF=Check GenChk RB3LYP/6-31G(d) Freq
 --------------------------------------------------------------------

 Structure from the checkpoint file:  "JID_4324.chk"
 ------------------------------
 CID_84770731_JID_4324_neutraal
 ------------------------------
 Charge =  0 Multiplicity = 1

 SCF Done:  E(RB3LYP) =  -611.103785357     A.U. after    1 cycles

  Exact polarizability: 182.950  10.028 134.816  -0.243   0.531  69.585
 Approx polarizability: 252.170  23.556 236.586  -1.656   3.273 105.511

                      1                      2                      3
                      A                      A                      A
 Frequencies --     18.3749                41.5206               100.7256
 Red. masses --      3.1031                 3.9216                 4.3037
 Frc consts  --      0.0006                 0.0040                 0.0257
 IR Inten    --      7.0290                 0.2129                 0.2739

                      4                      5                      6
                      A                      A                      A
 Frequencies --    128.3056               142.1182               192.1583
 Red. masses --      5.4961                 5.1668                 4.1038
 Frc consts  --      0.0533                 0.0615                 0.0893
 IR Inten    --      3.3828                 0.3885                 3.9072

                      7                      8                      9
                      A                      A                      A
 Frequencies --    209.6272               243.4509               257.2698
 Red. masses --      1.2404                 1.4075                 3.5649
 Frc consts  --      0.0321                 0.0491                 0.1390
 IR Inten    --     56.0480                 0.9910                 1.6134

                     10                     11                     12
                      A                      A                      A
 Frequencies --    273.3062               321.3162               361.7555
 Red. masses --      1.8927                 4.8295                 3.5975
 Frc consts  --      0.0833                 0.2938                 0.2774
 IR Inten    --      1.7674                 5.2032                 1.5600

                     13                     14                     15
                      A                      A                      A
 Frequencies --    377.8844               404.5666               446.2578
 Red. masses --      2.7843                 4.8380                 4.3795
 Frc consts  --      0.2343                 0.4665                 0.5139
 IR Inten    --      2.0614                 1.0736                 3.1008

                     16                     17                     18
                      A                      A                      A
 Frequencies --    467.1757               483.9183               524.7324
 Red. masses --      3.3251                 4.2078                 6.1066
 Frc consts  --      0.4276                 0.5806                 0.9907
 IR Inten    --     15.5586                 5.5135                 3.8951

                     19                     20                     21
                      A                      A                      A
 Frequencies --    535.4344               602.3929               634.9270
 Red. masses --      4.1974                 4.8866                 4.2160
 Frc consts  --      0.7090                 1.0448                 1.0014
 IR Inten    --      7.4967                 2.1331                 1.5372

                     22                     23                     24
                      A                      A                      A
 Frequencies --    683.8303               734.2373               746.5503
 Red. masses --      6.2101                 4.6471                 5.5027
 Frc consts  --      1.7110                 1.4761                 1.8069
 IR Inten    --      7.8531                 2.7830                 8.5272

                     25                     26                     27
                      A                      A                      A
 Frequencies --    786.2312               830.3316               843.3883
 Red. masses --      1.1234                 2.3576                 1.6309
 Frc consts  --      0.4092                 0.9577                 0.6835
 IR Inten    --      2.8179                46.3237                33.8466

                     28                     29                     30
                      A                      A                      A
 Frequencies --    868.3015               887.0434               938.3346
 Red. masses --      2.0046                 2.1373                 2.0894
 Frc consts  --      0.8905                 0.9908                 1.0839
 IR Inten    --     21.1354                50.0546                19.0656

                     31                     32                     33
                      A                      A                      A
 Frequencies --    955.3874               969.2132               972.6708
 Red. masses --      1.4476                 1.3540                 1.2917
 Frc consts  --      0.7785                 0.7494                 0.7200
 IR Inten    --      3.4522                 2.9864                13.7935

                     34                     35                     36
                      A                      A                      A
 Frequencies --   1001.3494              1055.1088              1059.6653
 Red. masses --      2.1350                 1.5436                 5.8152
 Frc consts  --      1.2613                 1.0125                 3.8473
 IR Inten    --      2.8813                 4.5794                57.0115

                     37                     38                     39
                      A                      A                      A
 Frequencies --   1082.9481              1126.8879              1159.0979
 Red. masses --      1.4333                 1.9448                 2.2297
 Frc consts  --      0.9904                 1.4551                 1.7650
 IR Inten    --      3.1247                 0.5172                35.9539

                     40                     41                     42
                      A                      A                      A
 Frequencies --   1176.8658              1199.4761              1203.2105
 Red. masses --      1.2679                 1.3468                 1.5170
 Frc consts  --      1.0347                 1.1416                 1.2940
 IR Inten    --      1.4359                 3.3902                 7.6238

                     43                     44                     45
                      A                      A                      A
 Frequencies --   1220.6368              1239.6177              1284.0155
 Red. masses --      1.3535                 2.1330                 2.2213
 Frc consts  --      1.1882                 1.9312                 2.1577
 IR Inten    --     11.5510                 1.1285                58.0414

                     46                     47                     48
                      A                      A                      A
 Frequencies --   1315.0365              1322.8031              1373.7063
 Red. masses --      1.9686                 3.0804                 3.9189
 Frc consts  --      2.0058                 3.1757                 4.3572
 IR Inten    --    158.6617                 3.7283                20.2997

                     49                     50                     51
                      A                      A                      A
 Frequencies --   1400.7113              1438.7808              1494.0509
 Red. masses --      3.9004                 3.3290                 1.1037
 Frc consts  --      4.5088                 4.0603                 1.4515
 IR Inten    --     60.5531                48.8098                 7.3184

                     52                     53                     54
                      A                      A                      A
 Frequencies --   1499.4695              1522.0307              1529.3146
 Red. masses --      1.3221                 1.0473                 1.1734
 Frc consts  --      1.7514                 1.4295                 1.6170
 IR Inten    --     32.4645                17.8568                 5.4004

                     55                     56                     57
                      A                      A                      A
 Frequencies --   1529.8344              1555.6818              1617.4153
 Red. masses --      1.1794                 2.4041                 6.6471
 Frc consts  --      1.6263                 3.4281                10.2453
 IR Inten    --     11.7744               169.8654                17.0687

                     58                     59                     60
                      A                      A                      A
 Frequencies --   1671.8411              1692.5676              2338.5981
 Red. masses --      4.7768                 1.1489                12.6749
 Frc consts  --      7.8664                 1.9392                40.8420
 IR Inten    --     24.2007                27.7503                52.6844

                     61                     62                     63
                      A                      A                      A
 Frequencies --   3064.2048              3141.3309              3142.8543
 Red. masses --      1.0308                 1.0533                 1.1062
 Frc consts  --      5.7023                 6.1241                 6.4379
 IR Inten    --     43.7773                17.6426                21.9183

                     64                     65                     66
                      A                      A                      A
 Frequencies --   3145.7745              3164.3474              3197.9449
 Red. masses --      1.0573                 1.1063                 1.0880
 Frc consts  --      6.1645                 6.5266                 6.5555
 IR Inten    --     10.4982                22.1292                13.3064

                     67                     68                     69
                      A                      A                      A
 Frequencies --   3218.8742              3222.4693              3232.5635
 Red. masses --      1.1180                 1.0941                 1.1153
 Frc consts  --      6.8247                 6.6942                 6.8668
 IR Inten    --      0.1135                 5.4495                21.5693

                     70                     71                     72
                      A                      A                      A
 Frequencies --   3239.7859              3471.3436              3571.3405
 Red. masses --      1.0904                 1.0521                 1.0905
 Frc consts  --      6.7432                 7.4697                 8.1948
 IR Inten    --      1.3583                 0.3720                 0.4346

 - Thermochemistry -
 -------------------
 Temperature   298.150 Kelvin.  Pressure   1.00000 Atm.
 Atom     1 has atomic number  6 and mass  12.00000

 Molecular mass:   188.09496 amu.
 Principal axes and moments of inertia in atomic units:
                           1         2         3
     Eigenvalues --  1241.226534388.923265454.49100
           X            0.99995  -0.00957   0.00235
           Y            0.00958   0.99995  -0.00404
           Z           -0.00231   0.00407   0.99999
 This molecule is an asymmetric top.
 Rotational symmetry number  1.
 Warning -- assumption of classical behavior for rotation
           may cause significant error
 Rotational temperatures (Kelvin)      0.06978     0.01973     0.01588
 Rotational constants (GHZ):           1.45400     0.41120     0.33087
 Zero-point vibrational energy     555703.0 (Joules/Mol)
                                  132.81622 (Kcal/Mol)
 Warning -- explicit consideration of  20 degrees of freedom as
           vibrations may cause significant error
 Vibrational temperatures:     26.44    59.74   144.92   184.60   204.48
          (Kelvin)            276.47   301.61   350.27   370.15   393.23
                              462.30   520.49   543.69   582.08   642.07
                              672.16   696.25   754.97   770.37   866.71
                              913.52   983.88  1056.40  1074.12  1131.21
                             1194.66  1213.45  1249.29  1276.26  1350.05
                             1374.59  1394.48  1399.46  1440.72  1518.07
                             1524.62  1558.12  1621.34  1667.68  1693.25
                             1725.78  1731.15  1756.22  1783.53  1847.41
                             1892.04  1903.22  1976.46  2015.31  2070.08
                             2149.61  2157.40  2189.86  2200.34  2201.09
                             2238.28  2327.10  2405.41  2435.23  3364.72
                             4408.71  4519.67  4521.87  4526.07  4552.79
                             4601.13  4631.24  4636.41  4650.94  4661.33
                             4994.49  5138.36

 Zero-point correction=                           0.211656 (Hartree/Particle)
 Thermal correction to Energy=                    0.224859
 Thermal correction to Enthalpy=                  0.225804
 Thermal correction to Gibbs Free Energy=         0.170923
 Sum of electronic and zero-point Energies=           -610.892129
 Sum of electronic and thermal Energies=              -610.878926
 Sum of electronic and thermal Enthalpies=            -610.877982
 Sum of electronic and thermal Free Energies=         -610.932863

                     E (Thermal)             CV                S
                      KCal/Mol        Cal/Mol-Kelvin    Cal/Mol-Kelvin
 Total                  141.101             50.211            115.507
 Electronic               0.000              0.000              0.000
 Translational            0.889              2.981             41.601
 Rotational               0.889              2.981             31.763
 Vibrational            139.324             44.250             42.142
 Vibration     1          0.593              1.986              6.802
 Vibration     2          0.594              1.981              5.185
 Vibration     3          0.604              1.949              3.440
 Vibration     4          0.611              1.925              2.971
 Vibration     5          0.616              1.911              2.775
 Vibration     6          0.634              1.851              2.207
 Vibration     7          0.642              1.826              2.047
 Vibration     8          0.659              1.774              1.778
 Vibration     9          0.667              1.750              1.680
 Vibration    10          0.676              1.723              1.575
 Vibration    11          0.707              1.633              1.303
 Vibration    12          0.736              1.551              1.115
 Vibration    13          0.748              1.517              1.048
 Vibration    14          0.770              1.460              0.946
 Vibration    15          0.806              1.369              0.807
 Vibration    16          0.824              1.323              0.746
 Vibration    17          0.840              1.286              0.700
 Vibration    18          0.880              1.195              0.599
 Vibration    19          0.890              1.172              0.575
 Vibration    20          0.961              1.027              0.446

 Optimization completed.
    -- Stationary point found.
 Normal termination of Gaussian 16 at Thu Dec 10 09:38:36 2020.

 ----------------------------------------------------------------------
 # B3LYP/6-311++G(d,p) empiricaldispersion=gd3bj scf=xqc pop=npa geom=c
 heck
 ----------------------------------------------------------------------

 --------------------------------------
 CID_84770731_JID_4324_Energie_neutraal
 --------------------------------------
 Structure from the checkpoint file:  "JID_4324.chk"
 Charge =  0 Multiplicity = 1

 SCF Done:  E(RB3LYP) =  -611.274105373     A.U. after   17 cycles
 Normal termination of Gaussian 16 at Thu Dec 10 09:42:14 2020.

 ----------------------------------------------------------------------
 # B3LYP/6-311++G(d,p) empiricaldispersion=gd3bj scf=xqc pop=npa geom=c
 heck
 ----------------------------------------------------------------------

 ------------------------------------
 CID_84770731_JID_4324_Energie_kation
 ------------------------------------
 Structure from the checkpoint file:  "JID_4324.chk"
 Charge =  1 Multiplicity = 2

 SCF Done:  E(UB3LYP) =  -610.982752234     A.U. after   23 cycles
 Normal termination of Gaussian 16 at Thu Dec 10 09:49:28 2020.
 Gaussian 16:  ES64L-G16RevA.03 25-Dec-2016

 ----------------------------------------------------------------------
 # B3LYP/6-311++G(d,p) empiricaldispersion=gd3bj scf=xqc pop=npa geom=c
 heck
 ----------------------------------------------------------------------

 -----------------------------------
 CID_84770731_JID_4324_Energie_anion
 -----------------------------------
 Structure from the checkpoint file:  "JID_4324.chk"
 Charge = -1 Multiplicity = 2

                         Standard orientation:
 ---------------------------------------------------------------------
 Center     Atomic      Atomic             Coordinates (Angstroms)
 Number     Number       Type             X           Y           Z
 ---------------------------------------------------------------------
      1          6           0        4.007073   -0.551584    0.188904
      2          8           0        2.863446   -1.355389   -0.096780
      3          6           0        1.608529   -0.845212   -0.067507
      4          6           0        1.225569    0.512679   -0.011091
      5          6           0       -0.147309    0.847079    0.012200
      6          6           0       -1.147215   -0.115282   -0.036642
      7          6           0       -0.743901   -1.461929   -0.103990
      8          6           0        0.593846   -1.814264   -0.113449
      9          6           0       -2.592593    0.291057   -0.005399
     10          6           0       -3.638652   -0.651628   -0.587945
     11          6           0       -3.530432   -0.471394    0.904331
     12          7           0       -2.788695    1.724169   -0.098584
     13          6           0        2.136495    1.616349   -0.007035
     14          7           0        2.817529    2.560469   -0.014062
     15          1           0        4.837742   -1.255814    0.260638
     16          1           0        3.892502   -0.019988    1.138833
     17          1           0        4.204008    0.168980   -0.608975
     18          1           0       -0.426746    1.891396    0.077788
     19          1           0       -1.483955   -2.255638   -0.138925
     20          1           0        0.898561   -2.854470   -0.155642
     21          1           0       -4.478642   -0.183038   -1.093976
     22          1           0       -3.324494   -1.592779   -1.030045
     23          1           0       -3.105280   -1.276615    1.496417
     24          1           0       -4.307550    0.090813    1.417244
     25          1           0       -2.730675    2.023130   -1.071516
     26          1           0       -3.713334    1.979440    0.236660
 ---------------------------------------------------------------------

 SCF Done:  E(UB3LYP) =  -611.271397011     A.U. after   31 cycles

 The electronic state is 2-A.
 Alpha  occ. eigenvalues --  -19.04401 -14.18698 -14.16789 -10.12139 -10.11640
 Alpha  occ. eigenvalues --  -10.10443 -10.07225 -10.06717 -10.06566 -10.06281
 Alpha  occ. eigenvalues --  -10.05349 -10.04320 -10.04310 -10.03896  -0.96028
 Alpha  occ. eigenvalues --   -0.80561  -0.77243  -0.73160  -0.70882  -0.64818
 Alpha  occ. eigenvalues --   -0.64054  -0.59244  -0.51051  -0.50245  -0.49960
 Alpha  occ. eigenvalues --   -0.46491  -0.43159  -0.39839  -0.38883  -0.37577
 Alpha  occ. eigenvalues --   -0.36624  -0.35622  -0.35511  -0.31892  -0.30781
 Alpha  occ. eigenvalues --   -0.30122  -0.27858  -0.26611  -0.25984  -0.25025
 Alpha  occ. eigenvalues --   -0.23888  -0.23518  -0.23196  -0.22076  -0.20662
 Alpha  occ. eigenvalues --   -0.19294  -0.18282  -0.13347  -0.13112  -0.09836
 Alpha  occ. eigenvalues --    0.04694
 Alpha virt. eigenvalues --    0.06498   0.07864   0.08680   0.09098   0.09803
 Alpha virt. eigenvalues --    0.10763   0.11300   0.11792   0.11951   0.12279
 Alpha virt. eigenvalues --    0.12679   0.13505   0.14221   0.14911   0.15203

  Beta  occ. eigenvalues --  -19.04366 -14.18661 -14.16585 -10.12140 -10.11549
  Beta  occ. eigenvalues --  -10.10438 -10.07202 -10.06554 -10.06546 -10.06271
  Beta  occ. eigenvalues --  -10.05420 -10.04297 -10.04151 -10.03575  -0.95943
  Beta  occ. eigenvalues --   -0.80515  -0.76925  -0.72862  -0.70819  -0.64646
  Beta  occ. eigenvalues --   -0.63581  -0.59128  -0.50570  -0.50085  -0.49865
  Beta  occ. eigenvalues --   -0.46354  -0.43074  -0.39756  -0.38806  -0.37416
  Beta  occ. eigenvalues --   -0.36498  -0.35488  -0.35449  -0.31803  -0.30681
  Beta  occ. eigenvalues --   -0.29991  -0.27300  -0.26492  -0.25854  -0.24917
  Beta  occ. eigenvalues --   -0.23633  -0.23194  -0.22652  -0.21876  -0.20484
  Beta  occ. eigenvalues --   -0.19114  -0.17872  -0.13003  -0.11993  -0.09147
  Beta virt. eigenvalues --    0.07350   0.07861   0.08886   0.09283   0.09605
  Beta virt. eigenvalues --    0.10102   0.10831   0.11532   0.11927   0.12084
  Beta virt. eigenvalues --    0.12371   0.12739   0.13768   0.14133   0.14844

 Mulliken charges and spin densities:
               1          2
     1  C   -0.230309  -0.001601
     2  O   -0.179955   0.007858
     3  C   -1.235467  -0.032414
     4  C    2.532134   0.392624
     5  C   -0.248957   0.412613
     6  C    1.580227  -0.619288
     7  C   -0.633868  -0.050636
     8  C   -0.156900  -0.306637
     9  C   -0.497432   0.354950
    10  C    0.052345  -0.208691
    11  C    0.367766  -0.846796
    12  N   -0.368670   0.032315
    13  C   -1.880731  -0.061135
    14  N   -0.272156   0.111260
    15  H    0.137254  -0.000818
    16  H    0.160662   0.003566
    17  H    0.182866   0.002984
    18  H    0.235222  -0.037994
    19  H    0.127722  -0.045315
    20  H    0.122788   0.023281
    21  H   -0.382291   0.557629
    22  H   -0.008737   0.129886
    23  H   -0.023650   0.163355
    24  H   -0.320770   0.474019
    25  H    0.008243   0.226245
    26  H   -0.067336   0.318740
 Sum of Mulliken charges =  -1.00000   1.00000

 Dipole moment (field-independent basis, Debye):
    X=              3.4768    Y=             -4.9633    Z=             -0.0523  Tot=              6.0602
 Quadrupole moment (field-independent basis, Debye-Ang):
   XX=           -146.7798   YY=           -117.2468   ZZ=            -98.0532
   XY=             -5.4541   XZ=              2.1855   YZ=             -0.7938

 Summary of Natural Population Analysis:

                                       Natural Population
                Natural  -----------------------------------------------
    Atom  No    Charge         Core      Valence    Rydberg      Total
 -----------------------------------------------------------------------
      C    1   -0.10020      0.99960     2.09309    0.00751     3.10020
      O    2   -0.27449      0.99985     3.26559    0.00905     4.27449
      C    3    0.19031      0.99937     1.79629    0.01404     2.80969
      C    4   -0.10617      0.99934     2.09872    0.00812     3.10617
      C    5   -0.04093      0.99951     2.03214    0.00928     3.04093
      C    6   -0.04870      0.99946     2.03844    0.01079     3.04870
      C    7   -0.02982      0.99953     2.02309    0.00720     3.02982
      C    8   -0.12222      0.99954     2.11398    0.00871     3.12222
      C    9    0.05013      0.99951     1.93642    0.01394     2.94987
      C   10   -0.20386      0.99960     2.19468    0.00958     3.20386
      C   11   -0.19448      0.99960     2.18531    0.00957     3.19448
      N   12   -0.41495      0.99975     2.90465    0.01055     3.91495
      C   13    0.15011      0.99965     1.83159    0.01866     2.84989
      N   14   -0.18107      0.99979     2.67040    0.01088     3.68107
      H   15    0.08456      0.00000     0.41465    0.00079     0.41544
      H   16    0.08853      0.00000     0.41042    0.00104     0.41147
      H   17    0.09063      0.00000     0.40820    0.00117     0.40937
      H   18    0.11186      0.00000     0.38685    0.00129     0.38814
      H   19    0.09032      0.00000     0.40833    0.00135     0.40968
      H   20    0.09761      0.00000     0.40093    0.00146     0.40239
      H   21    0.10185      0.00000     0.39620    0.00195     0.39815
      H   22    0.10123      0.00000     0.39770    0.00106     0.39877
      H   23    0.10501      0.00000     0.39404    0.00094     0.39499
      H   24    0.10129      0.00000     0.39720    0.00151     0.39871
      H   25    0.17523      0.00000     0.32321    0.00156     0.32477
      H   26    0.17824      0.00000     0.31918    0.00258     0.32176
 =======================================================================
   * Total *    0.00001     13.99409    35.84131    0.16459    49.99999

 Normal termination of Gaussian 16 at Thu Dec 10 09:59:06 2020.
