 Gaussian 16, Revision A.03,

 -----------------------------------------------------------
 # opt freq B3LYP/6-31G(d) empiricaldispersion=gd3bj scf=xqc
 -----------------------------------------------------------

 ------------------------------
 CID_77029022_JID_5653_neutraal
 ------------------------------
 Symbolic Z-matrix:
 Charge =  0 Multiplicity = 1

 SCF Done:  E(RB3LYP) =  -723.204053574     A.U. after   15 cycles
 SCF Done:  E(RB3LYP) =  -723.205248239     A.U. after   13 cycles
 SCF Done:  E(RB3LYP) =  -723.210663886     A.U. after   13 cycles
 SCF Done:  E(RB3LYP) =  -723.210605352     A.U. after   12 cycles
 SCF Done:  E(RB3LYP) =  -723.210776143     A.U. after   12 cycles
 SCF Done:  E(RB3LYP) =  -723.212163533     A.U. after   10 cycles
 SCF Done:  E(RB3LYP) =  -723.212585795     A.U. after   12 cycles
 SCF Done:  E(RB3LYP) =  -723.212993672     A.U. after   12 cycles
 SCF Done:  E(RB3LYP) =  -723.213216995     A.U. after   11 cycles
 SCF Done:  E(RB3LYP) =  -723.213343491     A.U. after   11 cycles
 SCF Done:  E(RB3LYP) =  -723.214569453     A.U. after   10 cycles
 SCF Done:  E(RB3LYP) =  -723.214571391     A.U. after    9 cycles
 SCF Done:  E(RB3LYP) =  -723.214572104     A.U. after    8 cycles
 SCF Done:  E(RB3LYP) =  -723.214572162     A.U. after    7 cycles
 SCF Done:  E(RB3LYP) =  -723.214572187     A.U. after    7 cycles
 Optimization completed.
    -- Stationary point found.
 Normal termination of Gaussian 16 at Thu Dec 10 16:59:17 2020.

 --------------------------------------------------------------------
 #N Geom=AllCheck Guess=TCheck SCRF=Check GenChk RB3LYP/6-31G(d) Freq
 --------------------------------------------------------------------

 Structure from the checkpoint file:  "JID_5653.chk"
 ------------------------------
 CID_77029022_JID_5653_neutraal
 ------------------------------
 Charge =  0 Multiplicity = 1

 SCF Done:  E(RB3LYP) =  -723.214572187     A.U. after    1 cycles

  Exact polarizability: 153.539  -6.114 111.962   2.251   3.822 114.269
 Approx polarizability: 185.169 -15.979 162.613   7.733   6.616 184.517

                      1                      2                      3
                      A                      A                      A
 Frequencies --     13.8634                40.2095                65.2714
 Red. masses --      4.7898                 4.3745                 3.0833
 Frc consts  --      0.0005                 0.0042                 0.0077
 IR Inten    --      0.3991                 0.3161                 0.4231

                      4                      5                      6
                      A                      A                      A
 Frequencies --     77.6333                93.3284               104.3184
 Red. masses --      3.0363                 4.1507                 4.9069
 Frc consts  --      0.0108                 0.0213                 0.0315
 IR Inten    --      0.2042                 0.6120                 1.6351

                      7                      8                      9
                      A                      A                      A
 Frequencies --    118.8223               143.7106               182.9567
 Red. masses --      2.4845                 3.7536                 2.2168
 Frc consts  --      0.0207                 0.0457                 0.0437
 IR Inten    --      1.0944                 2.6524                 3.2625

                     10                     11                     12
                      A                      A                      A
 Frequencies --    184.7064               216.4169               245.5248
 Red. masses --      3.1028                 2.7776                 2.3516
 Frc consts  --      0.0624                 0.0766                 0.0835
 IR Inten    --      1.2717                 3.6486                 1.7437

                     13                     14                     15
                      A                      A                      A
 Frequencies --    270.5347               285.4870               309.0080
 Red. masses --      2.2173                 2.9028                 2.6348
 Frc consts  --      0.0956                 0.1394                 0.1482
 IR Inten    --      1.8304                19.8721                 2.7088

                     16                     17                     18
                      A                      A                      A
 Frequencies --    344.3539               378.3654               380.8522
 Red. masses --      1.5095                 3.1039                 3.8055
 Frc consts  --      0.1055                 0.2618                 0.3252
 IR Inten    --    103.0548                 2.3143                 9.2482

                     19                     20                     21
                      A                      A                      A
 Frequencies --    401.2224               412.3784               464.0831
 Red. masses --      3.5751                 1.5785                 1.9417
 Frc consts  --      0.3391                 0.1582                 0.2464
 IR Inten    --     23.8550                12.4591                11.9891

                     22                     23                     24
                      A                      A                      A
 Frequencies --    470.5200               499.5810               567.7305
 Red. masses --      2.7218                 1.6571                 3.3800
 Frc consts  --      0.3550                 0.2437                 0.6419
 IR Inten    --     15.3674                 6.9167                 7.0763

                     25                     26                     27
                      A                      A                      A
 Frequencies --    601.8613               640.2175               656.3003
 Red. masses --      1.5984                 5.4466                 3.4957
 Frc consts  --      0.3411                 1.3153                 0.8871
 IR Inten    --     64.9254                19.1225                17.1295

                     28                     29                     30
                      A                      A                      A
 Frequencies --    676.2575               696.8662               767.7021
 Red. masses --      3.2510                 1.6610                 1.4507
 Frc consts  --      0.8760                 0.4753                 0.5038
 IR Inten    --     40.7928                62.1392                 4.7586

                     31                     32                     33
                      A                      A                      A
 Frequencies --    779.7787               816.4617               849.8715
 Red. masses --      1.3323                 2.3788                 1.4254
 Frc consts  --      0.4773                 0.9343                 0.6066
 IR Inten    --      6.0315                10.5658                 9.6387

                     34                     35                     36
                      A                      A                      A
 Frequencies --    867.3036               880.0705               899.9348
 Red. masses --      1.6973                 2.6694                 1.6095
 Frc consts  --      0.7522                 1.2182                 0.7680
 IR Inten    --     38.2146                 8.1382               271.9198

                     37                     38                     39
                      A                      A                      A
 Frequencies --    917.4892               959.9885               963.9414
 Red. masses --      2.3042                 3.0799                 3.3725
 Frc consts  --      1.1428                 1.6723                 1.8463
 IR Inten    --     23.5015                 5.2476                78.0707

                     40                     41                     42
                      A                      A                      A
 Frequencies --    983.8211              1046.9588              1048.9075
 Red. masses --      2.5295                 2.1313                 2.1062
 Frc consts  --      1.4425                 1.3764                 1.3653
 IR Inten    --     15.0895                 7.2332                 1.3441

                     43                     44                     45
                      A                      A                      A
 Frequencies --   1072.4837              1090.0677              1110.4551
 Red. masses --      1.4228                 1.3480                 2.6934
 Frc consts  --      0.9642                 0.9438                 1.9569
 IR Inten    --     11.1102                 1.4928                12.9187

                     46                     47                     48
                      A                      A                      A
 Frequencies --   1122.5987              1141.1275              1150.9386
 Red. masses --      1.5328                 1.1638                 2.2180
 Frc consts  --      1.1381                 0.8929                 1.7311
 IR Inten    --      1.7013                 1.7611                 6.2313

                     49                     50                     51
                      A                      A                      A
 Frequencies --   1197.3484              1207.2829              1211.2900
 Red. masses --      1.6584                 2.1005                 1.8702
 Frc consts  --      1.4008                 1.8038                 1.6168
 IR Inten    --     70.9829                52.7608                44.1646

                     52                     53                     54
                      A                      A                      A
 Frequencies --   1215.6599              1253.8392              1280.2089
 Red. masses --      2.2528                 1.9090                 1.3638
 Frc consts  --      1.9616                 1.7682                 1.3169
 IR Inten    --      5.6908                32.4218                 1.3455

                     55                     56                     57
                      A                      A                      A
 Frequencies --   1289.0571              1321.1935              1324.5266
 Red. masses --      1.2020                 1.6818                 1.6625
 Frc consts  --      1.1768                 1.7297                 1.7184
 IR Inten    --      0.3037               110.5003               120.1135

                     58                     59                     60
                      A                      A                      A
 Frequencies --   1358.9478              1369.7946              1402.3105
 Red. masses --      1.3107                 1.2905                 1.2962
 Frc consts  --      1.4261                 1.4266                 1.5018
 IR Inten    --     14.8548                18.7499                 6.2026

                     61                     62                     63
                      A                      A                      A
 Frequencies --   1409.7326              1428.4052              1442.7661
 Red. masses --      1.3424                 1.7478                 1.2957
 Frc consts  --      1.5718                 2.1011                 1.5891
 IR Inten    --     26.7560                15.8210                 1.4500

                     64                     65                     66
                      A                      A                      A
 Frequencies --   1449.1817              1465.3535              1481.1209
 Red. masses --      1.7420                 1.6274                 1.2526
 Frc consts  --      2.1555                 2.0588                 1.6190
 IR Inten    --      4.9284                28.0358                27.0816

                     67                     68                     69
                      A                      A                      A
 Frequencies --   1487.6885              1517.5059              1528.4247
 Red. masses --      1.1262                 1.0586                 1.0761
 Frc consts  --      1.4686                 1.4363                 1.4812
 IR Inten    --      2.8829                 0.9454                11.9497

                     70                     71                     72
                      A                      A                      A
 Frequencies --   1528.8094              1534.4999              1536.8831
 Red. masses --      1.3704                 1.0642                 1.2720
 Frc consts  --      1.8872                 1.4765                 1.7702
 IR Inten    --     14.0146                 5.2287                32.7781

                     73                     74                     75
                      A                      A                      A
 Frequencies --   1678.9348              1740.8843              1778.6648
 Red. masses --      1.2059                 4.8567                 8.1725
 Frc consts  --      2.0027                 8.6722                15.2333
 IR Inten    --     52.6857                79.2612               359.4456

                     76                     77                     78
                      A                      A                      A
 Frequencies --   3026.3929              3047.1557              3055.8928
 Red. masses --      1.0674                 1.0378                 1.0697
 Frc consts  --      5.7599                 5.6773                 5.8855
 IR Inten    --     34.0264                31.5100                24.2258

                     79                     80                     81
                      A                      A                      A
 Frequencies --   3063.6823              3086.1168              3103.2610
 Red. masses --      1.0824                 1.0944                 1.0999
 Frc consts  --      5.9858                 6.1412                 6.2409
 IR Inten    --     23.6125                21.1571                19.5195

                     82                     83                     84
                      A                      A                      A
 Frequencies --   3122.6581              3123.6924              3133.2441
 Red. masses --      1.0978                 1.0878                 1.1005
 Frc consts  --      6.3067                 6.2534                 6.3655
 IR Inten    --     27.3624                25.5008                37.6225

                     85                     86                     87
                      A                      A                      A
 Frequencies --   3156.3599              3161.9013              3235.6223
 Red. masses --      1.0520                 1.0585                 1.1202
 Frc consts  --      6.1751                 6.2349                 6.9099
 IR Inten    --     14.1500                 3.9679                 1.0713

                     88                     89                     90
                      A                      A                      A
 Frequencies --   3249.4875              3490.1044              3568.6961
 Red. masses --      1.1170                 1.0477                 1.0759
 Frc consts  --      6.9492                 7.5193                 8.0729
 IR Inten    --     15.6931                21.4097                13.9479

                     91                     92                     93
                      A                      A                      A
 Frequencies --   3570.9787              3585.1679              3779.9134
 Red. masses --      1.0753                 1.0947                 1.0678
 Frc consts  --      8.0791                 8.2905                 8.9892
 IR Inten    --     26.3614                26.6746                59.0655

 - Thermochemistry -
 -------------------
 Temperature   298.150 Kelvin.  Pressure   1.00000 Atm.
 Atom     1 has atomic number  6 and mass  12.00000

 Molecular mass:   214.14298 amu.
 Principal axes and moments of inertia in atomic units:
                           1         2         3
     Eigenvalues --  1580.907536445.312786779.53598
           X            0.99995   0.00594  -0.00807
           Y           -0.00612   0.99972  -0.02290
           Z            0.00793   0.02295   0.99971
 This molecule is an asymmetric top.
 Rotational symmetry number  1.
 Warning -- assumption of classical behavior for rotation
           may cause significant error
 Rotational temperatures (Kelvin)      0.05479     0.01344     0.01278
 Rotational constants (GHZ):           1.14159     0.28001     0.26620
 Zero-point vibrational energy     747743.3 (Joules/Mol)
                                  178.71495 (Kcal/Mol)
 Warning -- explicit consideration of  25 degrees of freedom as
           vibrations may cause significant error
 Vibrational temperatures:     19.95    57.85    93.91   111.70   134.28
          (Kelvin)            150.09   170.96   206.77   263.23   265.75
                              311.38   353.26   389.24   410.75   444.59
                              495.45   544.38   547.96   577.27   593.32
                              667.71   676.97   718.79   816.84   865.94
                              921.13   944.27   972.98  1002.64  1104.55
                             1121.93  1174.71  1222.78  1247.86  1266.23
                             1294.81  1320.06  1381.21  1386.90  1415.50
                             1506.34  1509.14  1543.06  1568.36  1597.70
                             1615.17  1641.83  1655.94  1722.72  1737.01
                             1742.78  1749.06  1803.99  1841.94  1854.67
                             1900.90  1905.70  1955.22  1970.83  2017.61
                             2028.29  2055.16  2075.82  2085.05  2108.32
                             2131.00  2140.45  2183.35  2199.06  2199.62
                             2207.80  2211.23  2415.61  2504.74  2559.10
                             4354.30  4384.18  4396.75  4407.96  4440.23
                             4464.90  4492.81  4494.30  4508.04  4541.30
                             4549.27  4655.34  4675.29  5021.48  5134.56
                             5137.84  5158.26  5438.45

 Zero-point correction=                           0.284800 (Hartree/Particle)
 Thermal correction to Energy=                    0.301598
 Thermal correction to Enthalpy=                  0.302543
 Thermal correction to Gibbs Free Energy=         0.239126
 Sum of electronic and zero-point Energies=           -722.929772
 Sum of electronic and thermal Energies=              -722.912974
 Sum of electronic and thermal Enthalpies=            -722.912030
 Sum of electronic and thermal Free Energies=         -722.975447

                     E (Thermal)             CV                S
                      KCal/Mol        Cal/Mol-Kelvin    Cal/Mol-Kelvin
 Total                  189.256             62.226            133.472
 Electronic               0.000              0.000              0.000
 Translational            0.889              2.981             41.988
 Rotational               0.889              2.981             32.602
 Vibrational            187.478             56.265             58.883
 Vibration     1          0.593              1.986              7.362
 Vibration     2          0.594              1.981              5.249
 Vibration     3          0.597              1.971              4.291
 Vibration     4          0.599              1.964              3.950
 Vibration     5          0.602              1.954              3.589
 Vibration     6          0.605              1.946              3.372
 Vibration     7          0.609              1.934              3.119
 Vibration     8          0.616              1.909              2.754
 Vibration     9          0.630              1.863              2.298
 Vibration    10          0.631              1.861              2.280
 Vibration    11          0.645              1.816              1.989
 Vibration    12          0.660              1.770              1.762
 Vibration    13          0.674              1.727              1.593
 Vibration    14          0.683              1.701              1.501
 Vibration    15          0.698              1.657              1.368
 Vibration    16          0.723              1.587              1.192
 Vibration    17          0.749              1.516              1.046
 Vibration    18          0.751              1.511              1.036
 Vibration    19          0.767              1.467              0.958
 Vibration    20          0.776              1.443              0.918
 Vibration    21          0.822              1.330              0.754
 Vibration    22          0.828              1.315              0.736
 Vibration    23          0.855              1.251              0.659
 Vibration    24          0.924              1.101              0.509
 Vibration    25          0.960              1.028              0.446

                           ! Non-Optimized Parameters !
 Normal termination of Gaussian 16 at Thu Dec 10 17:10:30 2020.

 ----------------------------------------------------------------------
 # B3LYP/6-311++G(d,p) empiricaldispersion=gd3bj scf=xqc pop=npa geom=c
 heck
 ----------------------------------------------------------------------

 --------------------------------------
 CID_77029022_JID_5653_Energie_neutraal
 --------------------------------------
 Structure from the checkpoint file:  "JID_5653.chk"
 Charge =  0 Multiplicity = 1

 SCF Done:  E(RB3LYP) =  -723.444586520     A.U. after   16 cycles
 Normal termination of Gaussian 16 at Thu Dec 10 17:16:42 2020.

 ----------------------------------------------------------------------
 # B3LYP/6-311++G(d,p) empiricaldispersion=gd3bj scf=xqc pop=npa geom=c
 heck
 ----------------------------------------------------------------------

 ------------------------------------
 CID_77029022_JID_5653_Energie_kation
 ------------------------------------
 Structure from the checkpoint file:  "JID_5653.chk"
 Charge =  1 Multiplicity = 2

 SCF Done:  E(UB3LYP) =  -723.159157034     A.U. after   25 cycles
 Normal termination of Gaussian 16 at Thu Dec 10 17:30:59 2020.
 Gaussian 16:  ES64L-G16RevA.03 25-Dec-2016

 ----------------------------------------------------------------------
 # B3LYP/6-311++G(d,p) empiricaldispersion=gd3bj scf=xqc pop=npa geom=c
 heck
 ----------------------------------------------------------------------

 -----------------------------------
 CID_77029022_JID_5653_Energie_anion
 -----------------------------------
 Structure from the checkpoint file:  "JID_5653.chk"
 Charge = -1 Multiplicity = 2

                         Standard orientation:
 ---------------------------------------------------------------------
 Center     Atomic      Atomic             Coordinates (Angstroms)
 Number     Number       Type             X           Y           Z
 ---------------------------------------------------------------------
      1          6           0        3.514547    1.793924   -1.162131
      2          6           0        2.505116    1.730694   -0.013788
      3          6           0        1.475575    0.589209   -0.152495
      4          6           0        2.169584   -0.764582   -0.252206
      5          7           0        2.796549   -1.381597    0.686401
      6          8           0        2.797548   -0.613991    1.901757
      7          7           0        2.192827   -1.339913   -1.522595
      8          7           0        0.487164    0.654440    0.931931
      9          6           0       -0.906384    0.583215    0.577738
     10          6           0       -1.392340   -0.678713   -0.158020
     11          8           0       -0.631565   -1.479999   -0.693102
     12          7           0       -2.749770   -0.854818   -0.229863
     13          6           0       -3.753460   -0.090556    0.451663
     14          6           0       -4.081090    1.301489   -0.035823
     15          6           0       -5.044299    0.169962   -0.279192
     16          1           0        4.126049    0.887142   -1.206702
     17          1           0        4.187453    2.649982   -1.039625
     18          1           0        3.012450    1.896585   -2.131997
     19          1           0        3.021382    1.612715    0.942798
     20          1           0        1.932272    2.664421    0.044945
     21          1           0        0.946447    0.736471   -1.100600
     22          1           0        3.282633   -1.206617    2.493836
     23          1           0        1.242555   -1.414225   -1.880207
     24          1           0        2.623093   -2.261474   -1.491724
     25          1           0        0.742809    0.019520    1.679572
     26          1           0       -1.500738    0.717115    1.488867
     27          1           0       -1.162361    1.441188   -0.061228
     28          1           0       -3.026197   -1.726952   -0.667339
     29          1           0       -3.828386   -0.264003    1.525552
     30          1           0       -4.329852    2.053118    0.707149
     31          1           0       -3.518192    1.670245   -0.887233
     32          1           0       -5.124016   -0.209930   -1.293692
     33          1           0       -5.966149    0.131983    0.292788
 ---------------------------------------------------------------------

 SCF Done:  E(UB3LYP) =  -723.432364456     A.U. after   33 cycles
 SCF Done:  E(UB3LYP) =  -723.432364456     a.u. after    1 cycles

 The electronic state is 2-A.
 Alpha  occ. eigenvalues --  -19.06571 -18.99465 -14.24767 -14.24113 -14.22260
 Alpha  occ. eigenvalues --  -14.19911 -10.17388 -10.14246 -10.11688 -10.11420
 Alpha  occ. eigenvalues --  -10.10569 -10.07791 -10.07614 -10.06807 -10.06751
 Alpha  occ. eigenvalues --   -0.97673  -0.94509  -0.84527  -0.83737  -0.80820
 Alpha  occ. eigenvalues --   -0.74465  -0.72654  -0.68725  -0.62480  -0.57463
 Alpha  occ. eigenvalues --   -0.53038  -0.51716  -0.51077  -0.47546  -0.46965
 Alpha  occ. eigenvalues --   -0.44455  -0.42742  -0.40246  -0.39508  -0.38588
 Alpha  occ. eigenvalues --   -0.38368  -0.37217  -0.35573  -0.34521  -0.33460
 Alpha  occ. eigenvalues --   -0.33204  -0.32259  -0.30695  -0.30072  -0.29743
 Alpha  occ. eigenvalues --   -0.27413  -0.27021  -0.25826  -0.25239  -0.24907
 Alpha  occ. eigenvalues --   -0.22660  -0.22534  -0.21083  -0.18663  -0.17331
 Alpha  occ. eigenvalues --   -0.15946  -0.13483  -0.12463   0.04471
 Alpha virt. eigenvalues --    0.06372   0.06764   0.07543   0.07851   0.08274
 Alpha virt. eigenvalues --    0.08734   0.09792   0.09877   0.10506   0.11076
 Alpha virt. eigenvalues --    0.11170   0.11674   0.11966   0.12224   0.12630

  Beta  occ. eigenvalues --  -19.06558 -18.99440 -14.24759 -14.24110 -14.22254
  Beta  occ. eigenvalues --  -14.19904 -10.17359 -10.14247 -10.11661 -10.11412
  Beta  occ. eigenvalues --  -10.10550 -10.07749 -10.07576 -10.06799 -10.06745
  Beta  occ. eigenvalues --   -0.97650  -0.94459  -0.84514  -0.83706  -0.80806
  Beta  occ. eigenvalues --   -0.74426  -0.72631  -0.68708  -0.62439  -0.57421
  Beta  occ. eigenvalues --   -0.52975  -0.51693  -0.50963  -0.47486  -0.46938
  Beta  occ. eigenvalues --   -0.44431  -0.42688  -0.40229  -0.39394  -0.38538
  Beta  occ. eigenvalues --   -0.38344  -0.37183  -0.35560  -0.34487  -0.33423
  Beta  occ. eigenvalues --   -0.33155  -0.32201  -0.30671  -0.30034  -0.29712
  Beta  occ. eigenvalues --   -0.27356  -0.26976  -0.25798  -0.25218  -0.24891
  Beta  occ. eigenvalues --   -0.22647  -0.22471  -0.21033  -0.18645  -0.17308
  Beta  occ. eigenvalues --   -0.15896  -0.13466  -0.12442
  Beta virt. eigenvalues --    0.06434   0.07007   0.07426   0.08001   0.08492
  Beta virt. eigenvalues --    0.08731   0.09311   0.09843   0.10320   0.10809
  Beta virt. eigenvalues --    0.11267   0.11584   0.11872   0.12094   0.12265

 Mulliken charges and spin densities:
               1          2
     1  C   -0.405147  -0.204071
     2  C   -0.140002  -0.107751
     3  C   -0.575370   0.480982
     4  C    0.442773  -0.901389
     5  N   -0.316948   0.073050
     6  O   -0.152707  -0.030291
     7  N   -0.288451   0.103249
     8  N    0.018672   0.077404
     9  C    0.292369  -0.670633
    10  C    0.738491  -0.572765
    11  O   -0.339197  -0.000360
    12  N   -0.186172   0.009927
    13  C   -1.840455   1.697236
    14  C    0.857657  -1.085928
    15  C    1.750821  -2.235207
    16  H    0.137193   0.035295
    17  H    0.031499   0.103785
    18  H    0.064186   0.061414
    19  H    0.171451  -0.012685
    20  H   -0.029340   0.171984
    21  H    0.020351   0.159236
    22  H    0.167445   0.116855
    23  H    0.252792   0.022251
    24  H    0.220789   0.016481
    25  H    0.194398   0.071981
    26  H   -0.012603   0.183249
    27  H   -0.291109   0.501579
    28  H    0.060474   0.226661
    29  H   -0.782051   1.029552
    30  H   -0.338975   0.505047
    31  H   -0.051543   0.194590
    32  H   -0.229417   0.368194
    33  H   -0.441873   0.611079
 Sum of Mulliken charges =  -1.00000   1.00000

 Dipole moment (field-independent basis, Debye):
    X=              9.0777    Y=             -2.1329    Z=             -2.1288  Tot=              9.5648
 Quadrupole moment (field-independent basis, Debye-Ang):
   XX=           -193.5136   YY=           -125.4344   ZZ=           -123.6877
   XY=              6.9356   XZ=             12.4541   YZ=             -1.0130

 Summary of Natural Population Analysis:

                                       Natural Population
                Natural  -----------------------------------------------
    Atom  No    Charge         Core      Valence    Rydberg      Total
 -----------------------------------------------------------------------
      C    1   -0.28834      0.99966     2.28438    0.00430     3.28834
      C    2   -0.19132      0.99961     2.18172    0.00999     3.19132
      C    3   -0.03420      0.99953     2.01946    0.01522     3.03420
      C    4    0.21451      0.99960     1.76576    0.02013     2.78549
      N    5   -0.13973      0.99958     2.62523    0.01493     3.63973
      O    6   -0.30178      0.99990     3.29540    0.00648     4.30178
      N    7   -0.40213      0.99971     2.89394    0.00849     3.90213
      N    8   -0.33865      0.99973     2.82618    0.01274     3.83865
      C    9   -0.13006      0.99958     2.11995    0.01053     3.13006
      C   10    0.35110      0.99967     1.62836    0.02087     2.64890
      O   11   -0.34045      0.99987     3.33343    0.00714     4.34045
      N   12   -0.31907      0.99966     2.80844    0.01097     3.81907
      C   13   -0.02805      0.99957     2.01572    0.01276     3.02805
      C   14   -0.19689      0.99962     2.18739    0.00987     3.19689
      C   15   -0.19440      0.99962     2.18511    0.00967     3.19440
      H   16    0.09987      0.00000     0.39906    0.00107     0.40013
      H   17    0.09554      0.00000     0.40367    0.00079     0.40446
      H   18    0.09586      0.00000     0.40307    0.00107     0.40414
      H   19    0.10509      0.00000     0.39330    0.00161     0.39491
      H   20    0.09891      0.00000     0.39988    0.00121     0.40109
      H   21    0.10056      0.00000     0.39717    0.00227     0.39944
      H   22    0.23382      0.00000     0.26298    0.00320     0.26618
      H   23    0.19876      0.00000     0.29889    0.00235     0.30124
      H   24    0.18182      0.00000     0.31608    0.00210     0.31818
      H   25    0.19003      0.00000     0.30681    0.00316     0.30997
      H   26    0.11004      0.00000     0.38847    0.00149     0.38996
      H   27    0.10555      0.00000     0.39225    0.00220     0.39445
      H   28    0.19325      0.00000     0.30378    0.00297     0.30675
      H   29    0.10303      0.00000     0.39300    0.00398     0.39697
      H   30    0.10900      0.00000     0.38843    0.00257     0.39100
      H   31    0.10493      0.00000     0.39345    0.00162     0.39507
      H   32    0.10354      0.00000     0.39504    0.00142     0.39646
      H   33    0.10986      0.00000     0.38704    0.00310     0.39014
 =======================================================================
   * Total *    0.00000     14.99491    42.79284    0.21226    58.00000

 Normal termination of Gaussian 16 at Thu Dec 10 17:48:39 2020.
