 Gaussian 16, Revision A.03,

 -----------------------------------------------------------
 # opt freq B3LYP/6-31G(d) empiricaldispersion=gd3bj scf=xqc
 -----------------------------------------------------------

 -----------------------------
 CID_4606293_JID_5304_neutraal
 -----------------------------
 Symbolic Z-matrix:
 Charge =  0 Multiplicity = 1

 SCF Done:  E(RB3LYP) =  -656.758539356     A.U. after   14 cycles
 SCF Done:  E(RB3LYP) =  -656.760771784     A.U. after   12 cycles
 SCF Done:  E(RB3LYP) =  -656.760302219     A.U. after   13 cycles
 SCF Done:  E(RB3LYP) =  -656.761161447     A.U. after   11 cycles
 SCF Done:  E(RB3LYP) =  -656.761261329     A.U. after   10 cycles
 SCF Done:  E(RB3LYP) =  -656.761266080     A.U. after   10 cycles
 SCF Done:  E(RB3LYP) =  -656.761271421     A.U. after    9 cycles
 SCF Done:  E(RB3LYP) =  -656.761274011     A.U. after    9 cycles
 SCF Done:  E(RB3LYP) =  -656.761274843     A.U. after    8 cycles
 SCF Done:  E(RB3LYP) =  -656.761275183     A.U. after    8 cycles
 SCF Done:  E(RB3LYP) =  -656.761275258     A.U. after    7 cycles
 Optimization completed.
    -- Stationary point found.
 Normal termination of Gaussian 16 at Sun Dec 13 16:00:25 2020.

 --------------------------------------------------------------------
 #N Geom=AllCheck Guess=TCheck SCRF=Check GenChk RB3LYP/6-31G(d) Freq
 --------------------------------------------------------------------

 Structure from the checkpoint file:  "JID_5304.chk"
 -----------------------------
 CID_4606293_JID_5304_neutraal
 -----------------------------
 Charge =  0 Multiplicity = 1

 SCF Done:  E(RB3LYP) =  -656.761275258     A.U. after    1 cycles

  Exact polarizability: 184.105  -2.474 127.959   5.380  12.252 105.578
 Approx polarizability: 238.373  -0.700 215.259  10.066  36.156 159.963

 ******    1 imaginary frequencies (negative Signs) ******

                      1                      2                      3
                      A                      A                      A
 Frequencies --    -19.8337                39.5202                48.8412
 Red. masses --      3.8587                11.4263                 3.9591
 Frc consts  --      0.0009                 0.0105                 0.0056
 IR Inten    --      0.3147                 1.3328                 0.0583

                      4                      5                      6
                      A                      A                      A
 Frequencies --     54.2676               117.9158               156.6506
 Red. masses --      3.6147                 4.4296                 3.3685
 Frc consts  --      0.0063                 0.0363                 0.0487
 IR Inten    --      0.0142                 0.0334                 0.0688

                      7                      8                      9
                      A                      A                      A
 Frequencies --    205.3947               232.4814               249.9652
 Red. masses --      2.1687                 1.2754                 2.3580
 Frc consts  --      0.0539                 0.0406                 0.0868
 IR Inten    --      0.0360                 0.0557                 0.0856

                     10                     11                     12
                      A                      A                      A
 Frequencies --    262.3895               272.9163               275.8894
 Red. masses --      1.2100                 2.3358                 1.2178
 Frc consts  --      0.0491                 0.1025                 0.0546
 IR Inten    --      0.0364                 0.2050                 0.1280

                     13                     14                     15
                      A                      A                      A
 Frequencies --    322.7611               328.6987               336.0122
 Red. masses --      2.8616                 2.7465                 1.0470
 Frc consts  --      0.1756                 0.1748                 0.0696
 IR Inten    --      0.2120                 0.0578                 0.0010

                     16                     17                     18
                      A                      A                      A
 Frequencies --    360.7347               378.1078               416.3725
 Red. masses --      2.7585                 3.2780                 2.9962
 Frc consts  --      0.2115                 0.2761                 0.3060
 IR Inten    --      0.4015                 0.9682                 0.0761

                     19                     20                     21
                      A                      A                      A
 Frequencies --    433.4869               461.2743               470.6522
 Red. masses --      3.5743                 3.3427                 2.9672
 Frc consts  --      0.3957                 0.4190                 0.3873
 IR Inten    --      0.4688                 3.7845                 0.3707

                     22                     23                     24
                      A                      A                      A
 Frequencies --    555.7472               567.3778               604.7276
 Red. masses --      3.3532                 2.6909                 1.7111
 Frc consts  --      0.6102                 0.5104                 0.3687
 IR Inten    --      4.3396                 6.4150                71.1614

                     25                     26                     27
                      A                      A                      A
 Frequencies --    624.3294               658.8805               678.3690
 Red. masses --      2.3417                 6.1362                 2.5495
 Frc consts  --      0.5378                 1.5695                 0.6913
 IR Inten    --     62.4404                 4.4328                29.4247

                     28                     29                     30
                      A                      A                      A
 Frequencies --    747.6425               773.6402               811.7095
 Red. masses --      3.8590                 4.4762                 2.7167
 Frc consts  --      1.2709                 1.5785                 1.0546
 IR Inten    --     10.7127                10.1356                 7.3686

                     31                     32                     33
                      A                      A                      A
 Frequencies --    839.2274               850.8428               861.3768
 Red. masses --      2.7479                 1.2654                 2.6117
 Frc consts  --      1.1403                 0.5397                 1.1417
 IR Inten    --      9.6666                 0.1957                 1.7183

                     34                     35                     36
                      A                      A                      A
 Frequencies --    867.3144               941.0475               953.3169
 Red. masses --      2.1133                 1.7705                 1.6964
 Frc consts  --      0.9366                 0.9238                 0.9083
 IR Inten    --     15.8441                 0.8967                 0.8352

                     37                     38                     39
                      A                      A                      A
 Frequencies --    961.4409               968.2450               976.6568
 Red. masses --      1.3361                 1.2878                 1.2147
 Frc consts  --      0.7276                 0.7113                 0.6827
 IR Inten    --      0.2015                 0.0639                 0.1248

                     40                     41                     42
                      A                      A                      A
 Frequencies --   1016.0364              1041.0214              1056.3033
 Red. masses --      1.9752                 2.9134                 1.4349
 Frc consts  --      1.2014                 1.8602                 0.9433
 IR Inten    --     28.2038                20.6134                 5.2157

                     43                     44                     45
                      A                      A                      A
 Frequencies --   1064.3001              1073.6420              1106.5649
 Red. masses --      1.3911                 1.6786                 2.3373
 Frc consts  --      0.9284                 1.1401                 1.6862
 IR Inten    --      0.0110                44.3872                 6.6349

                     46                     47                     48
                      A                      A                      A
 Frequencies --   1147.2081              1168.4991              1207.7980
 Red. masses --      2.5674                 1.4349                 2.0480
 Frc consts  --      1.9908                 1.1543                 1.7603
 IR Inten    --     13.8741                 1.7730               137.4158

                     49                     50                     51
                      A                      A                      A
 Frequencies --   1225.6721              1242.3381              1243.7535
 Red. masses --      1.7991                 1.3725                 2.6957
 Frc consts  --      1.5924                 1.2481                 2.4569
 IR Inten    --     27.7088                 2.3667                 3.5894

                     52                     53                     54
                      A                      A                      A
 Frequencies --   1247.9348              1308.6363              1317.3343
 Red. masses --      2.4884                 3.0152                 1.7983
 Frc consts  --      2.2833                 3.0423                 1.8386
 IR Inten    --      0.5292                22.0221                 2.4846

                     55                     56                     57
                      A                      A                      A
 Frequencies --   1347.3238              1353.3949              1371.2132
 Red. masses --      2.0785                 1.7400                 2.0677
 Frc consts  --      2.2230                 1.8778                 2.2906
 IR Inten    --      0.6701                 1.4814                38.8081

                     58                     59                     60
                      A                      A                      A
 Frequencies --   1389.2587              1426.9401              1427.0979
 Red. masses --      1.6932                 1.2471                 1.2199
 Frc consts  --      1.9254                 1.4961                 1.4638
 IR Inten    --      7.4544                 3.9803                 4.4527

                     61                     62                     63
                      A                      A                      A
 Frequencies --   1440.1532              1459.1872              1464.9031
 Red. masses --      1.2715                 1.2182                 2.3943
 Frc consts  --      1.5537                 1.5282                 3.0273
 IR Inten    --      4.0645                 2.3149                12.6292

                     64                     65                     66
                      A                      A                      A
 Frequencies --   1512.7345              1516.8473              1520.5714
 Red. masses --      1.0496                 1.0456                 1.0560
 Frc consts  --      1.4152                 1.4174                 1.4386
 IR Inten    --      0.0054                 0.1416                 0.7304

                     67                     68                     69
                      A                      A                      A
 Frequencies --   1522.8914              1533.6159              1538.5019
 Red. masses --      1.0438                 1.0708                 1.0504
 Frc consts  --      1.4263                 1.4839                 1.4649
 IR Inten    --      5.8309                 7.9900                 5.4859

                     70                     71                     72
                      A                      A                      A
 Frequencies --   1539.3512              1550.7033              1567.2073
 Red. masses --      1.0588                 1.0720                 2.1728
 Frc consts  --      1.4783                 1.5187                 3.1443
 IR Inten    --     10.2416                 5.0053                26.6519

                     73                     74                     75
                      A                      A                      A
 Frequencies --   1629.9395              1675.6224              1843.3048
 Red. masses --      5.9374                 5.6985                 9.6768
 Frc consts  --      9.2938                 9.4268                19.3720
 IR Inten    --      1.6167                 0.6065               280.4986

                     76                     77                     78
                      A                      A                      A
 Frequencies --   3045.1615              3045.3891              3053.1146
 Red. masses --      1.0352                 1.0349                 1.0363
 Frc consts  --      5.6556                 5.6550                 5.6913
 IR Inten    --     27.0959                24.8067                26.8539

                     79                     80                     81
                      A                      A                      A
 Frequencies --   3066.2089              3089.9429              3111.2957
 Red. masses --      1.0363                 1.0851                 1.1021
 Frc consts  --      5.7404                 6.1040                 6.2855
 IR Inten    --     22.1291                 6.9002                 4.9180

                     82                     83                     84
                      A                      A                      A
 Frequencies --   3112.0046              3117.9759              3119.9151
 Red. masses --      1.1023                 1.1028                 1.1015
 Frc consts  --      6.2899                 6.3168                 6.3171
 IR Inten    --      4.3671                24.9282                98.0637

                     85                     86                     87
                      A                      A                      A
 Frequencies --   3124.5857              3127.0365              3131.4248
 Red. masses --      1.1022                 1.1014                 1.1031
 Frc consts  --      6.3402                 6.3455                 6.3733
 IR Inten    --     19.0503                43.9685                26.3499

                     88                     89                     90
                      A                      A                      A
 Frequencies --   3153.5213              3182.1740              3200.8776
 Red. masses --      1.1013                 1.0870                 1.0932
 Frc consts  --      6.4526                 6.4855                 6.5993
 IR Inten    --     16.1085                10.4161                21.7359

                     91                     92                     93
                      A                      A                      A
 Frequencies --   3205.7877              3225.6850              3688.0931
 Red. masses --      1.0871                 1.0921                 1.0640
 Frc consts  --      6.5822                 6.6951                 8.5272
 IR Inten    --      6.6592                14.1195                50.2264

 - Thermochemistry -
 -------------------
 Temperature   298.150 Kelvin.  Pressure   1.00000 Atm.
 Atom     1 has atomic number  6 and mass  12.00000

 Molecular mass:   206.13068 amu.
 Principal axes and moments of inertia in atomic units:
                           1         2         3
     Eigenvalues --  1334.510726389.791676644.76220
           X            0.99988  -0.01365   0.00787
           Y            0.01352   0.99976   0.01705
           Z           -0.00810  -0.01694   0.99982
 This molecule is an asymmetric top.
 Rotational symmetry number  1.
 Warning -- assumption of classical behavior for rotation
           may cause significant error
 Rotational temperatures (Kelvin)      0.06490     0.01356     0.01303
 Rotational constants (GHZ):           1.35236     0.28244     0.27160
    1 imaginary frequencies ignored.
 Zero-point vibrational energy     751040.8 (Joules/Mol)
                                  179.50307 (Kcal/Mol)
 Warning -- explicit consideration of  23 degrees of freedom as
           vibrations may cause significant error
 Vibrational temperatures:     56.86    70.27    78.08   169.65   225.39
          (Kelvin)            295.52   334.49   359.64   377.52   392.67
                              396.94   464.38   472.92   483.45   519.02
                              544.01   599.07   623.69   663.67   677.16
                              799.60   816.33   870.07   898.27   947.98
                              976.02  1075.69  1113.10  1167.87  1207.46
                             1224.17  1239.33  1247.87  1353.96  1371.61
                             1383.30  1393.09  1405.19  1461.85  1497.80
                             1519.78  1531.29  1544.73  1592.10  1650.58
                             1681.21  1737.75  1763.47  1787.45  1789.48
                             1795.50  1882.84  1895.35  1938.50  1947.23
                             1972.87  1998.83  2053.05  2053.28  2072.06
                             2099.44  2107.67  2176.49  2182.40  2187.76
                             2191.10  2206.53  2213.56  2214.78  2231.12
                             2254.86  2345.12  2410.85  2652.10  4381.31
                             4381.64  4392.75  4411.59  4445.74  4476.46
                             4477.48  4486.07  4488.86  4495.58  4499.11
                             4505.42  4537.21  4578.44  4605.35  4612.41
                             4641.04  5306.34

 Zero-point correction=                           0.286056 (Hartree/Particle)
 Thermal correction to Energy=                    0.300647
 Thermal correction to Enthalpy=                  0.301591
 Thermal correction to Gibbs Free Energy=         0.244577
 Sum of electronic and zero-point Energies=           -656.475219
 Sum of electronic and thermal Energies=              -656.460629
 Sum of electronic and thermal Enthalpies=            -656.459684
 Sum of electronic and thermal Free Energies=         -656.516699

                     E (Thermal)             CV                S
                      KCal/Mol        Cal/Mol-Kelvin    Cal/Mol-Kelvin
 Total                  188.659             57.376            119.997
 Electronic               0.000              0.000              0.000
 Translational            0.889              2.981             41.874
 Rotational               0.889              2.981             32.405
 Vibrational            186.881             51.415             45.718
 Vibration     1          0.594              1.981              5.283
 Vibration     2          0.595              1.978              4.864
 Vibration     3          0.596              1.976              4.655
 Vibration     4          0.608              1.934              3.134
 Vibration     5          0.620              1.895              2.590
 Vibration     6          0.640              1.832              2.084
 Vibration     7          0.653              1.791              1.860
 Vibration     8          0.663              1.763              1.731
 Vibration     9          0.670              1.742              1.646
 Vibration    10          0.676              1.723              1.578
 Vibration    11          0.678              1.718              1.559
 Vibration    12          0.708              1.630              1.296
 Vibration    13          0.712              1.618              1.266
 Vibration    14          0.717              1.604              1.231
 Vibration    15          0.735              1.553              1.119
 Vibration    16          0.748              1.517              1.047
 Vibration    17          0.780              1.435              0.904
 Vibration    18          0.794              1.397              0.847
 Vibration    19          0.819              1.336              0.762
 Vibration    20          0.828              1.315              0.736
 Vibration    21          0.911              1.127              0.532
 Vibration    22          0.923              1.102              0.509
 Vibration    23          0.963              1.022              0.442

                           ! Non-Optimized Parameters !
 Normal termination of Gaussian 16 at Sun Dec 13 16:10:16 2020.

 ----------------------------------------------------------------------
 # B3LYP/6-311++G(d,p) empiricaldispersion=gd3bj scf=xqc pop=npa geom=c
 heck
 ----------------------------------------------------------------------

 -------------------------------------
 CID_4606293_JID_5304_Energie_neutraal
 -------------------------------------
 Structure from the checkpoint file:  "JID_5304.chk"
 Charge =  0 Multiplicity = 1

 SCF Done:  E(RB3LYP) =  -656.950779669     A.U. after   14 cycles
 Normal termination of Gaussian 16 at Sun Dec 13 16:15:00 2020.

 ----------------------------------------------------------------------
 # B3LYP/6-311++G(d,p) empiricaldispersion=gd3bj scf=xqc pop=npa geom=c
 heck
 ----------------------------------------------------------------------

 -----------------------------------
 CID_4606293_JID_5304_Energie_kation
 -----------------------------------
 Structure from the checkpoint file:  "JID_5304.chk"
 Charge =  1 Multiplicity = 2

 SCF Done:  E(UB3LYP) =  -656.643134722     A.U. after   25 cycles
 Normal termination of Gaussian 16 at Sun Dec 13 16:26:48 2020.
 Gaussian 16:  ES64L-G16RevA.03 25-Dec-2016

 ----------------------------------------------------------------------
 # B3LYP/6-311++G(d,p) empiricaldispersion=gd3bj scf=xqc pop=npa geom=c
 heck
 ----------------------------------------------------------------------

 ----------------------------------
 CID_4606293_JID_5304_Energie_anion
 ----------------------------------
 Structure from the checkpoint file:  "JID_5304.chk"
 Charge = -1 Multiplicity = 2

                         Standard orientation:
 ---------------------------------------------------------------------
 Center     Atomic      Atomic             Coordinates (Angstroms)
 Number     Number       Type             X           Y           Z
 ---------------------------------------------------------------------
      1          6           0       -3.284586    1.595786   -0.870530
      2          6           0       -2.669371    0.196632   -0.737091
      3          6           0       -1.161048    0.184279   -0.510152
      4          6           0       -0.413776   -0.918334   -0.942743
      5          6           0        0.958235   -0.980519   -0.728681
      6          6           0        1.646426    0.052062   -0.071189
      7          6           0        0.890090    1.145415    0.364022
      8          6           0       -0.489001    1.210481    0.153989
      9          6           0        3.162294   -0.053095    0.139690
     10          6           0        3.475293   -1.313825    0.974592
     11          6           0        3.862061   -0.159965   -1.232755
     12          6           0        3.735181    1.167536    0.878135
     13          6           0       -3.316750   -0.615241    0.377057
     14          8           0       -3.674720   -1.768210    0.284639
     15          8           0       -3.421234    0.088773    1.532226
     16          1           0       -3.197681    2.165150    0.057519
     17          1           0       -4.348750    1.522836   -1.117323
     18          1           0       -2.782076    2.150339   -1.669041
     19          1           0       -2.874929   -0.373212   -1.648058
     20          1           0       -0.918669   -1.737766   -1.448212
     21          1           0        1.501778   -1.851049   -1.083959
     22          1           0        1.370157    1.969226    0.879508
     23          1           0       -1.035014    2.075450    0.515917
     24          1           0        3.127366   -2.225301    0.478446
     25          1           0        4.556479   -1.408677    1.130900
     26          1           0        2.990507   -1.260556    1.955574
     27          1           0        3.655646    0.725299   -1.844278
     28          1           0        4.947755   -0.240799   -1.101850
     29          1           0        3.525620   -1.038928   -1.791636
     30          1           0        3.568052    2.094886    0.319255
     31          1           0        3.294277    1.282475    1.874448
     32          1           0        4.816426    1.046836    1.005421
     33          1           0       -3.799594   -0.527971    2.186382
 ---------------------------------------------------------------------

 SCF Done:  E(UB3LYP) =  -656.938274133     A.U. after   33 cycles
 SCF Done:  E(UB3LYP) =  -656.938274133     a.u. after    1 cycles

 The electronic state is 2-A.
 Alpha  occ. eigenvalues --  -19.07271 -19.02039 -10.21035 -10.10338 -10.09782
 Alpha  occ. eigenvalues --  -10.08951 -10.08462 -10.07913 -10.07691 -10.07679
 Alpha  occ. eigenvalues --  -10.07601 -10.07576 -10.06606 -10.06584 -10.06547
 Alpha  occ. eigenvalues --   -1.01410  -0.92531  -0.77365  -0.73573  -0.70122
 Alpha  occ. eigenvalues --   -0.65323  -0.63219  -0.59524  -0.59413  -0.57661
 Alpha  occ. eigenvalues --   -0.52890  -0.51261  -0.48944  -0.45713  -0.41811
 Alpha  occ. eigenvalues --   -0.39633  -0.38502  -0.37693  -0.37128  -0.35611
 Alpha  occ. eigenvalues --   -0.34919  -0.34316  -0.33205  -0.32637  -0.32343
 Alpha  occ. eigenvalues --   -0.31376  -0.30447  -0.29167  -0.28646  -0.27878
 Alpha  occ. eigenvalues --   -0.27521  -0.26667  -0.26082  -0.25352  -0.24067
 Alpha  occ. eigenvalues --   -0.23346  -0.23034  -0.22531  -0.18921  -0.16019
 Alpha  occ. eigenvalues --   -0.14622   0.04151
 Alpha virt. eigenvalues --    0.05679   0.06798   0.07205   0.07379   0.07945
 Alpha virt. eigenvalues --    0.08083   0.08436   0.08947   0.09680   0.10030
 Alpha virt. eigenvalues --    0.10376   0.10801   0.11028   0.11408   0.12291

  Beta  occ. eigenvalues --  -19.07221 -19.02016 -10.21020 -10.10328 -10.09780
  Beta  occ. eigenvalues --  -10.08938 -10.08443 -10.07911 -10.07668 -10.07665
  Beta  occ. eigenvalues --  -10.07596 -10.07542 -10.06585 -10.06554 -10.06521
  Beta  occ. eigenvalues --   -1.01337  -0.92467  -0.77332  -0.73540  -0.70088
  Beta  occ. eigenvalues --   -0.65290  -0.63173  -0.59476  -0.59364  -0.57585
  Beta  occ. eigenvalues --   -0.52807  -0.51229  -0.48881  -0.45670  -0.41768
  Beta  occ. eigenvalues --   -0.39599  -0.38454  -0.37660  -0.37081  -0.35576
  Beta  occ. eigenvalues --   -0.34882  -0.34267  -0.33178  -0.32608  -0.32301
  Beta  occ. eigenvalues --   -0.31337  -0.30410  -0.29118  -0.28612  -0.27845
  Beta  occ. eigenvalues --   -0.27494  -0.26623  -0.26040  -0.25322  -0.24031
  Beta  occ. eigenvalues --   -0.23302  -0.22970  -0.22503  -0.18860  -0.15964
  Beta  occ. eigenvalues --   -0.14532
  Beta virt. eigenvalues --    0.06130   0.06672   0.07002   0.07764   0.08049
  Beta virt. eigenvalues --    0.08084   0.08580   0.08833   0.09166   0.09934
  Beta virt. eigenvalues --    0.10400   0.10605   0.11019   0.11256   0.11648

 Mulliken charges and spin densities:
               1          2
     1  C    0.772944  -1.547046
     2  C   -1.090563   1.156504
     3  C    2.490601  -1.904737
     4  C    0.571927  -0.759200
     5  C   -0.651411   0.261080
     6  C    0.794341  -0.374125
     7  C   -0.950404   0.611241
     8  C   -0.773393   0.260201
     9  C   -0.881262   1.522180
    10  C    0.163558  -0.849513
    11  C    0.418123  -1.101956
    12  C    0.087463  -0.592485
    13  C    0.176607  -0.387022
    14  O   -0.274722   0.027974
    15  O   -0.227757   0.066346
    16  H    0.063773   0.106890
    17  H   -0.263208   0.439940
    18  H   -0.120039   0.252938
    19  H    0.108048   0.142124
    20  H   -0.035415   0.201717
    21  H    0.109250   0.041491
    22  H   -0.006667   0.178972
    23  H   -0.253832   0.402358
    24  H   -0.089900   0.228710
    25  H   -0.122485   0.273044
    26  H    0.011679   0.134556
    27  H   -0.010778   0.154394
    28  H   -0.195546   0.347979
    29  H   -0.144410   0.285216
    30  H   -0.093984   0.227013
    31  H   -0.066510   0.200195
    32  H   -0.242387   0.414151
    33  H   -0.273638   0.578872
 Sum of Mulliken charges =  -1.00000   1.00000

 Dipole moment (field-independent basis, Debye):
    X=              0.0486    Y=              0.1294    Z=             -2.0175  Tot=              2.0222
 Quadrupole moment (field-independent basis, Debye-Ang):
   XX=           -191.9710   YY=           -128.6315   ZZ=           -127.2222
   XY=             -1.8622   XZ=              6.7509   YZ=              1.6006

 Summary of Natural Population Analysis:

                                       Natural Population
                Natural  -----------------------------------------------
    Atom  No    Charge         Core      Valence    Rydberg      Total
 -----------------------------------------------------------------------
      C    1   -0.28204      0.99966     2.27725    0.00513     3.28204
      C    2   -0.15737      0.99952     2.14546    0.01239     3.15737
      C    3   -0.01667      0.99949     2.00589    0.01130     3.01667
      C    4   -0.09348      0.99951     2.08538    0.00859     3.09348
      C    5   -0.09546      0.99951     2.08789    0.00806     3.09546
      C    6   -0.00423      0.99948     1.99234    0.01241     3.00423
      C    7   -0.10049      0.99951     2.09177    0.00921     3.10049
      C    8   -0.09105      0.99950     2.08207    0.00947     3.09105
      C    9   -0.05459      0.99956     2.04282    0.01221     3.05459
      C   10   -0.27796      0.99963     2.27251    0.00583     3.27796
      C   11   -0.27987      0.99963     2.27292    0.00732     3.27987
      C   12   -0.28735      0.99964     2.27998    0.00773     3.28735
      C   13    0.41672      0.99968     1.55697    0.02663     2.58328
      O   14   -0.30707      0.99987     3.30085    0.00635     4.30707
      O   15   -0.34540      0.99988     3.33810    0.00742     4.34540
      H   16    0.10600      0.00000     0.39228    0.00172     0.39400
      H   17    0.10237      0.00000     0.39645    0.00118     0.39763
      H   18    0.10236      0.00000     0.39644    0.00120     0.39764
      H   19    0.10995      0.00000     0.38818    0.00186     0.39005
      H   20    0.10146      0.00000     0.39718    0.00136     0.39854
      H   21    0.09975      0.00000     0.39888    0.00137     0.40025
      H   22    0.10282      0.00000     0.39572    0.00146     0.39718
      H   23    0.10312      0.00000     0.39554    0.00134     0.39688
      H   24    0.09970      0.00000     0.39919    0.00111     0.40030
      H   25    0.09861      0.00000     0.40036    0.00102     0.40139
      H   26    0.10167      0.00000     0.39736    0.00098     0.39833
      H   27    0.10139      0.00000     0.39772    0.00089     0.39861
      H   28    0.09966      0.00000     0.39923    0.00111     0.40034
      H   29    0.09928      0.00000     0.39967    0.00105     0.40072
      H   30    0.10123      0.00000     0.39768    0.00109     0.39877
      H   31    0.10130      0.00000     0.39762    0.00108     0.39870
      H   32    0.10222      0.00000     0.39677    0.00101     0.39778
      H   33    0.24340      0.00000     0.24520    0.01141     0.25660
 =======================================================================
   * Total *   -0.00000     14.99406    40.82366    0.18228    56.00000

 Normal termination of Gaussian 16 at Sun Dec 13 16:42:45 2020.
