 Gaussian 16, Revision A.03,

 -----------------------------------------------------------
 # opt freq B3LYP/6-31G(d) empiricaldispersion=gd3bj scf=xqc
 -----------------------------------------------------------

 ------------------------------
 CID_117265453_JID_281_neutraal
 ------------------------------
 Symbolic Z-matrix:
 Charge =  0 Multiplicity = 1

 SCF Done:  E(RB3LYP) =  -784.231366965     A.U. after   15 cycles
 SCF Done:  E(RB3LYP) =  -784.247337553     A.U. after   14 cycles
 SCF Done:  E(RB3LYP) =  -784.246714002     A.U. after   13 cycles
 SCF Done:  E(RB3LYP) =  -784.239027980     A.U. after   14 cycles
 SCF Done:  E(RB3LYP) =  -784.238019726     A.U. after   14 cycles
 SCF Done:  E(RB3LYP) =  -784.247742942     A.U. after   10 cycles
 SCF Done:  E(RB3LYP) =  -784.248283519     A.U. after   13 cycles
 SCF Done:  E(RB3LYP) =  -784.248272092     A.U. after   12 cycles
 SCF Done:  E(RB3LYP) =  -784.248294695     A.U. after   12 cycles
 SCF Done:  E(RB3LYP) =  -784.248299749     A.U. after   10 cycles
 Optimization completed.
    -- Stationary point found.
 Normal termination of Gaussian 16 at Tue Dec  8 10:21:22 2020.

 --------------------------------------------------------------------
 #N Geom=AllCheck Guess=TCheck SCRF=Check GenChk RB3LYP/6-31G(d) Freq
 --------------------------------------------------------------------

 Structure from the checkpoint file:  "JID_281.chk"
 ------------------------------
 CID_117265453_JID_281_neutraal
 ------------------------------
 Charge =  0 Multiplicity = 1

 SCF Done:  E(RB3LYP) =  -784.248299749     A.U. after    1 cycles

  Exact polarizability: 147.875  -1.133  88.628   2.515   2.578  68.311
 Approx polarizability: 207.537  -8.969 132.673   4.568   4.343 108.634

                      1                      2                      3
                      A                      A                      A
 Frequencies --      8.9062                60.1694                67.7663
 Red. masses --      4.1456                 5.7812                 4.1374
 Frc consts  --      0.0002                 0.0123                 0.0112
 IR Inten    --     11.2272                 2.6806                 0.2816

                      4                      5                      6
                      A                      A                      A
 Frequencies --    153.2253               185.9680               237.7116
 Red. masses --      4.1991                 5.7069                 1.9309
 Frc consts  --      0.0581                 0.1163                 0.0643
 IR Inten    --      3.2981                 5.0566                 0.5697

                      7                      8                      9
                      A                      A                      A
 Frequencies --    253.3969               282.2934               351.8997
 Red. masses --      3.5012                 4.3534                 2.7829
 Frc consts  --      0.1325                 0.2044                 0.2030
 IR Inten    --      0.8586                 3.6451                 0.4547

                     10                     11                     12
                      A                      A                      A
 Frequencies --    405.7810               467.7475               498.3705
 Red. masses --      3.3012                 2.5922                 3.4521
 Frc consts  --      0.3203                 0.3341                 0.5052
 IR Inten    --      0.1290                 0.1960                 0.2236

                     13                     14                     15
                      A                      A                      A
 Frequencies --    519.8531               650.5335               656.5862
 Red. masses --      5.9535                 6.5295                 4.4863
 Frc consts  --      0.9480                 1.6280                 1.1395
 IR Inten    --      2.8381                 9.1954                 3.5946

                     16                     17                     18
                      A                      A                      A
 Frequencies --    693.2636               800.9623               807.2307
 Red. masses --      4.0769                 2.4614                 1.5644
 Frc consts  --      1.1545                 0.9304                 0.6006
 IR Inten    --      0.4014                 5.6054                 0.1162

                     19                     20                     21
                      A                      A                      A
 Frequencies --    868.9381               929.5165               975.6842
 Red. masses --      3.4092                 1.3828                 2.2946
 Frc consts  --      1.5166                 0.7039                 1.2870
 IR Inten    --     86.8707                 4.2157                12.6362

                     22                     23                     24
                      A                      A                      A
 Frequencies --   1001.0828              1012.5741              1030.0742
 Red. masses --      2.2927                 1.7591                 2.2176
 Frc consts  --      1.3537                 1.0626                 1.3864
 IR Inten    --      1.3881                 0.7069                 2.0383

                     25                     26                     27
                      A                      A                      A
 Frequencies --   1069.1873              1085.5416              1141.9931
 Red. masses --      1.9028                 1.9290                 1.3140
 Frc consts  --      1.2816                 1.3393                 1.0097
 IR Inten    --      2.1586                 0.2418                 0.6782

                     28                     29                     30
                      A                      A                      A
 Frequencies --   1177.4757              1224.6645              1230.4846
 Red. masses --      3.3754                 1.2271                 1.3230
 Frc consts  --      2.7573                 1.0844                 1.1802
 IR Inten    --     60.9916                 9.3279                 0.6128

                     31                     32                     33
                      A                      A                      A
 Frequencies --   1287.0129              1319.3300              1329.9479
 Red. masses --      1.2755                 1.2904                 1.3088
 Frc consts  --      1.2448                 1.3234                 1.3640
 IR Inten    --      7.4781                20.4851                16.5051

                     34                     35                     36
                      A                      A                      A
 Frequencies --   1336.2256              1361.1950              1380.4594
 Red. masses --      1.2666                 1.2117                 1.3417
 Frc consts  --      1.3324                 1.3227                 1.5064
 IR Inten    --      4.6689                14.9670                 0.7952

                     37                     38                     39
                      A                      A                      A
 Frequencies --   1415.1692              1435.3141              1493.5700
 Red. masses --      1.5566                 1.2055                 1.0848
 Frc consts  --      1.8368                 1.4633                 1.4257
 IR Inten    --      0.7103                17.8122                 0.9588

                     40                     41                     42
                      A                      A                      A
 Frequencies --   1501.0097              1504.8310              1516.9047
 Red. masses --      1.0860                 1.0892                 1.0911
 Frc consts  --      1.4416                 1.4532                 1.4792
 IR Inten    --     11.4774                 2.4572                 4.4707

                     43                     44                     45
                      A                      A                      A
 Frequencies --   1768.0371              2330.6803              2953.7722
 Red. masses --     10.1402                11.9526                 1.0833
 Frc consts  --     18.6758                38.2542                 5.5689
 IR Inten    --    274.6199               197.2690               111.0591

                     46                     47                     48
                      A                      A                      A
 Frequencies --   3000.4938              3051.1636              3053.5845
 Red. masses --      1.0812                 1.0652                 1.0655
 Frc consts  --      5.7351                 5.8429                 5.8538
 IR Inten    --      9.2785                30.5462                 7.9750

                     49                     50                     51
                      A                      A                      A
 Frequencies --   3054.8972              3059.3755              3103.0082
 Red. masses --      1.0627                 1.0615                 1.1018
 Frc consts  --      5.8431                 5.8540                 6.2505
 IR Inten    --     34.9075                13.8625                15.9574

                     52                     53                     54
                      A                      A                      A
 Frequencies --   3107.1368              3122.6115              3123.5097
 Red. masses --      1.1021                 1.1009                 1.1004
 Frc consts  --      6.2688                 6.3247                 6.3252
 IR Inten    --     22.8191                18.3041                 8.9224

 - Thermochemistry -
 -------------------
 Temperature   298.150 Kelvin.  Pressure   1.00000 Atm.
 Atom     1 has atomic number  6 and mass  12.00000

 Molecular mass:   154.04524 amu.
 Principal axes and moments of inertia in atomic units:
                           1         2         3
     Eigenvalues --   511.359994198.237634550.22022
           X            0.99996   0.00399   0.00740
           Y           -0.00406   0.99995   0.00935
           Z           -0.00736  -0.00938   0.99993
 This molecule is an asymmetric top.
 Rotational symmetry number  1.
 Warning -- assumption of classical behavior for rotation
           may cause significant error
 Rotational temperatures (Kelvin)      0.16938     0.02063     0.01904
 Rotational constants (GHZ):           3.52930     0.42988     0.39663
 Zero-point vibrational energy     427414.5 (Joules/Mol)
                                  102.15451 (Kcal/Mol)
 Warning -- explicit consideration of  13 degrees of freedom as
           vibrations may cause significant error
 Vibrational temperatures:     12.81    86.57    97.50   220.46   267.57
          (Kelvin)            342.01   364.58   406.16   506.31   583.83
                              672.98   717.04   747.95   935.97   944.68
                              997.45  1152.41  1161.42  1250.21  1337.37
                             1403.79  1440.33  1456.87  1482.05  1538.32
                             1561.85  1643.07  1694.12  1762.02  1770.39
                             1851.72  1898.22  1913.50  1922.53  1958.46
                             1986.17  2036.11  2065.10  2148.91  2159.62
                             2165.12  2182.49  2543.81  3353.33  4249.82
                             4317.04  4389.94  4393.43  4395.32  4401.76
                             4464.54  4470.48  4492.74  4494.03

 Zero-point correction=                           0.162794 (Hartree/Particle)
 Thermal correction to Energy=                    0.173165
 Thermal correction to Enthalpy=                  0.174109
 Thermal correction to Gibbs Free Energy=         0.124090
 Sum of electronic and zero-point Energies=           -784.085506
 Sum of electronic and thermal Energies=              -784.075135
 Sum of electronic and thermal Enthalpies=            -784.074191
 Sum of electronic and thermal Free Energies=         -784.124210

                     E (Thermal)             CV                S
                      KCal/Mol        Cal/Mol-Kelvin    Cal/Mol-Kelvin
 Total                  108.663             36.929            105.274
 Electronic               0.000              0.000              0.000
 Translational            0.889              2.981             41.006
 Rotational               0.889              2.981             30.658
 Vibrational            106.885             30.967             33.610
 Vibration     1          0.593              1.987              8.241
 Vibration     2          0.597              1.973              4.452
 Vibration     3          0.598              1.970              4.217
 Vibration     4          0.619              1.899              2.632
 Vibration     5          0.632              1.859              2.268
 Vibration     6          0.656              1.783              1.820
 Vibration     7          0.665              1.757              1.707
 Vibration     8          0.681              1.706              1.520
 Vibration     9          0.728              1.571              1.158
 Vibration    10          0.771              1.458              0.942
 Vibration    11          0.825              1.322              0.744
 Vibration    12          0.854              1.254              0.662
 Vibration    13          0.875              1.206              0.610

                           ! Non-Optimized Parameters !
 Normal termination of Gaussian 16 at Tue Dec  8 10:24:35 2020.

 ----------------------------------------------------------------------
 # B3LYP/6-311++G(d,p) empiricaldispersion=gd3bj scf=xqc pop=npa geom=c
 heck
 ----------------------------------------------------------------------

 --------------------------------------
 CID_117265453_JID_281_Energie_neutraal
 --------------------------------------
 Structure from the checkpoint file:  "JID_281.chk"
 Charge =  0 Multiplicity = 1

 SCF Done:  E(RB3LYP) =  -784.385644632     A.U. after   13 cycles
 Normal termination of Gaussian 16 at Tue Dec  8 10:25:48 2020.

 ----------------------------------------------------------------------
 # B3LYP/6-311++G(d,p) empiricaldispersion=gd3bj scf=xqc pop=npa geom=c
 heck
 ----------------------------------------------------------------------

 ------------------------------------
 CID_117265453_JID_281_Energie_kation
 ------------------------------------
 Structure from the checkpoint file:  "JID_281.chk"
 Charge =  1 Multiplicity = 2

 SCF Done:  E(UB3LYP) =  -784.069172808     A.U. after   28 cycles
 Normal termination of Gaussian 16 at Tue Dec  8 10:29:50 2020.
 Gaussian 16:  ES64L-G16RevA.03 25-Dec-2016

 ----------------------------------------------------------------------
 # B3LYP/6-311++G(d,p) empiricaldispersion=gd3bj scf=xqc pop=npa geom=c
 heck
 ----------------------------------------------------------------------

 -----------------------------------
 CID_117265453_JID_281_Energie_anion
 -----------------------------------
 Structure from the checkpoint file:  "JID_281.chk"
 Charge = -1 Multiplicity = 2

                         Standard orientation:
 ---------------------------------------------------------------------
 Center     Atomic      Atomic             Coordinates (Angstroms)
 Number     Number       Type             X           Y           Z
 ---------------------------------------------------------------------
      1          6           0        0.703514   -1.330375   -0.045254
      2          6           0        2.191603   -1.319986    0.303702
      3         16           0        3.082923    0.107727   -0.421187
      4          6           0        2.013445    1.426227    0.268932
      5          6           0        0.536532    1.238062   -0.077332
      6          6           0       -0.036464   -0.083341    0.492473
      7          6           0       -1.468958   -0.168185    0.225290
      8          6           0       -2.657161   -0.224570   -0.014561
      9          6           0       -4.066619   -0.316953   -0.306744
     10          8           0       -4.886441    0.528359    0.000379
     11          1           0        0.238617   -2.228552    0.379638
     12          1           0        0.577876   -1.379189   -1.132514
     13          1           0        2.332896   -1.317829    1.391698
     14          1           0        2.684916   -2.212931   -0.090698
     15          1           0        2.387656    2.365012   -0.149320
     16          1           0        2.152220    1.470134    1.356265
     17          1           0        0.406717    1.244480   -1.165049
     18          1           0       -0.041512    2.077212    0.327742
     19          1           0        0.096458   -0.056712    1.585991
     20          1           0       -4.366437   -1.237399   -0.846830
 ---------------------------------------------------------------------

 SCF Done:  E(UB3LYP) =  -784.393109336     A.U. after   31 cycles

 The electronic state is 2-A.
 Alpha  occ. eigenvalues --  -88.73709 -18.92177 -10.09919 -10.09595 -10.08131
 Alpha  occ. eigenvalues --  -10.06837 -10.06794 -10.06779 -10.01259 -10.01040
 Alpha  occ. eigenvalues --   -7.82342  -5.78718  -5.78390  -5.77717  -0.86034
 Alpha  occ. eigenvalues --   -0.74036  -0.66764  -0.65767  -0.59860  -0.52976
 Alpha  occ. eigenvalues --   -0.52141  -0.47770  -0.45619  -0.38824  -0.35422
 Alpha  occ. eigenvalues --   -0.34908  -0.33184  -0.32463  -0.30084  -0.29604
 Alpha  occ. eigenvalues --   -0.27645  -0.26405  -0.25817  -0.24231  -0.23100
 Alpha  occ. eigenvalues --   -0.21704  -0.20442  -0.13097  -0.12555  -0.12195
 Alpha  occ. eigenvalues --   -0.08859   0.04963
 Alpha virt. eigenvalues --    0.06947   0.07768   0.08700   0.10337   0.11171
 Alpha virt. eigenvalues --    0.11397   0.11510   0.12524   0.12717   0.13646
 Alpha virt. eigenvalues --    0.14126   0.15218   0.16301   0.16551   0.17128

  Beta  occ. eigenvalues --  -88.73706 -18.91521 -10.09903 -10.09559 -10.08165
  Beta  occ. eigenvalues --  -10.06828 -10.06731 -10.06424 -10.01233 -10.00783
  Beta  occ. eigenvalues --   -7.82340  -5.78715  -5.78384  -5.77715  -0.84846
  Beta  occ. eigenvalues --   -0.73964  -0.66555  -0.65721  -0.59487  -0.52736
  Beta  occ. eigenvalues --   -0.52063  -0.46894  -0.45339  -0.38652  -0.35381
  Beta  occ. eigenvalues --   -0.34790  -0.32945  -0.32237  -0.30018  -0.29552
  Beta  occ. eigenvalues --   -0.27405  -0.25777  -0.25640  -0.23933  -0.21694
  Beta  occ. eigenvalues --   -0.20450  -0.20147  -0.12711  -0.12074  -0.11072
  Beta  occ. eigenvalues --   -0.08294
  Beta virt. eigenvalues --    0.07363   0.07885   0.09007   0.10259   0.11182
  Beta virt. eigenvalues --    0.11431   0.11545   0.12295   0.12525   0.12669
  Beta virt. eigenvalues --    0.13682   0.14153   0.15268   0.16247   0.16554

 Mulliken charges and spin densities:
               1          2
     1  C   -0.571603   0.125761
     2  C    0.289705  -0.742869
     3  S   -0.090939   0.092580
     4  C   -0.439246   0.033363
     5  C   -0.147749  -0.273263
     6  C    0.018170  -0.115226
     7  C    0.247938   0.242580
     8  C    0.121726  -0.059795
     9  C   -0.348808   0.348753
    10  O   -0.382005   0.199829
    11  H    0.035987   0.130635
    12  H    0.138792  -0.019213
    13  H   -0.110331   0.289764
    14  H   -0.187083   0.387862
    15  H    0.201107  -0.015857
    16  H    0.020575   0.151130
    17  H    0.091788   0.025469
    18  H    0.157233   0.006934
    19  H   -0.048131   0.213154
    20  H    0.002875  -0.021593
 Sum of Mulliken charges =  -1.00000   1.00000

 Dipole moment (field-independent basis, Debye):
    X=              8.8497    Y=              0.6355    Z=             -1.0681  Tot=              8.9366
 Quadrupole moment (field-independent basis, Debye-Ang):
   XX=           -156.6014   YY=            -79.9210   ZZ=            -81.5087
   XY=             11.0096   XZ=             -0.0508   YZ=              1.5608

 Summary of Natural Population Analysis:

                                       Natural Population
                Natural  -----------------------------------------------
    Atom  No    Charge         Core      Valence    Rydberg      Total
 -----------------------------------------------------------------------
      C    1   -0.18745      0.99961     2.17689    0.01096     3.18745
      C    2   -0.24992      0.99959     2.23839    0.01195     3.24992
      S    3    0.07536      4.99964     2.90577    0.01924     7.92464
      C    4   -0.24940      0.99959     2.23928    0.01053     3.24940
      C    5   -0.18315      0.99961     2.17330    0.01024     3.18315
      C    6   -0.14838      0.99954     2.13789    0.01094     3.14838
      C    7    0.05575      0.99929     1.93531    0.00965     2.94425
      C    8   -0.06081      0.99922     2.05514    0.00646     3.06081
      C    9    0.21232      0.99967     1.76792    0.02009     2.78768
      O   10   -0.22365      0.99988     3.21496    0.00881     4.22365
      H   11    0.10450      0.00000     0.39446    0.00104     0.39550
      H   12    0.10008      0.00000     0.39861    0.00131     0.39992
      H   13    0.09996      0.00000     0.39834    0.00170     0.40004
      H   14    0.10617      0.00000     0.39275    0.00108     0.39383
      H   15    0.10280      0.00000     0.39644    0.00076     0.39720
      H   16    0.09872      0.00000     0.39992    0.00136     0.40128
      H   17    0.10025      0.00000     0.39864    0.00111     0.39975
      H   18    0.10429      0.00000     0.39477    0.00094     0.39571
      H   19    0.10791      0.00000     0.38921    0.00288     0.39209
      H   20    0.03467      0.00000     0.46217    0.00316     0.46533
 =======================================================================
   * Total *    0.00000     13.99564    26.87015    0.13422    41.00000

 Normal termination of Gaussian 16 at Tue Dec  8 10:38:14 2020.
