 Gaussian 16, Revision A.03,

 -----------------------------------------------------------
 # opt freq B3LYP/6-31G(d) empiricaldispersion=gd3bj scf=xqc
 -----------------------------------------------------------

 -------------------------------
 CID_142201544_JID_4079_neutraal
 -------------------------------
 Symbolic Z-matrix:
 Charge =  0 Multiplicity = 1

 SCF Done:  E(RB3LYP) =  -580.308318750     A.U. after   15 cycles
 SCF Done:  E(RB3LYP) =  -580.311245849     A.U. after   13 cycles
 SCF Done:  E(RB3LYP) =  -580.311601178     A.U. after   12 cycles
 SCF Done:  E(RB3LYP) =  -580.311673785     A.U. after   12 cycles
 SCF Done:  E(RB3LYP) =  -580.311807618     A.U. after   11 cycles
 SCF Done:  E(RB3LYP) =  -580.311819453     A.U. after   10 cycles
 SCF Done:  E(RB3LYP) =  -580.311820796     A.U. after    8 cycles
 SCF Done:  E(RB3LYP) =  -580.311821493     A.U. after    8 cycles
 SCF Done:  E(RB3LYP) =  -580.311821765     A.U. after    8 cycles
 SCF Done:  E(RB3LYP) =  -580.311821837     A.U. after    7 cycles
 Optimization completed.
    -- Stationary point found.
 Normal termination of Gaussian 16 at Thu Dec 10 09:16:02 2020.

 --------------------------------------------------------------------
 #N Geom=AllCheck Guess=TCheck SCRF=Check GenChk RB3LYP/6-31G(d) Freq
 --------------------------------------------------------------------

 Structure from the checkpoint file:  "JID_4079.chk"
 -------------------------------
 CID_142201544_JID_4079_neutraal
 -------------------------------
 Charge =  0 Multiplicity = 1

 SCF Done:  E(RB3LYP) =  -580.311821837     A.U. after    1 cycles

  Exact polarizability: 154.608  -3.896 143.967  -7.908  -2.746  90.437
 Approx polarizability: 225.645  -2.648 225.629 -16.469  -0.860 141.561

                      1                      2                      3
                      A                      A                      A
 Frequencies --     74.8636                78.7528               128.5053
 Red. masses --      7.0489                 3.4696                 3.3670
 Frc consts  --      0.0233                 0.0127                 0.0328
 IR Inten    --      2.2167                 1.0466                 0.6460

                      4                      5                      6
                      A                      A                      A
 Frequencies --    154.7219               201.2826               208.9749
 Red. masses --      2.7951                 2.0846                 1.3509
 Frc consts  --      0.0394                 0.0498                 0.0348
 IR Inten    --      0.6481                 0.5141                 0.1894

                      7                      8                      9
                      A                      A                      A
 Frequencies --    265.3204               286.5986               298.9181
 Red. masses --      3.3589                 2.8851                 1.3712
 Frc consts  --      0.1393                 0.1396                 0.0722
 IR Inten    --      0.0860                 1.1310                 0.3306

                     10                     11                     12
                      A                      A                      A
 Frequencies --    300.5312               315.7382               349.9077
 Red. masses --      2.5717                 2.4546                 3.1286
 Frc consts  --      0.1369                 0.1442                 0.2257
 IR Inten    --      0.8441                 4.4699                 1.0753

                     13                     14                     15
                      A                      A                      A
 Frequencies --    364.2661               450.7926               486.3950
 Red. masses --      2.8209                 3.2961                 3.5154
 Frc consts  --      0.2205                 0.3946                 0.4900
 IR Inten    --      0.2287                 3.4496                 3.8124

                     16                     17                     18
                      A                      A                      A
 Frequencies --    498.0260               554.9215               563.7904
 Red. masses --      3.5376                 3.5997                 3.4863
 Frc consts  --      0.5170                 0.6531                 0.6529
 IR Inten    --      1.1041                 9.4897                 1.8867

                     19                     20                     21
                      A                      A                      A
 Frequencies --    627.0555               633.6065               695.5814
 Red. masses --      3.1958                 3.2940                 4.3236
 Frc consts  --      0.7403                 0.7791                 1.2325
 IR Inten    --      4.7570                 0.0554                 1.2372

                     22                     23                     24
                      A                      A                      A
 Frequencies --    740.9794               755.8175               775.5736
 Red. masses --      2.4425                 2.8393                 1.6072
 Frc consts  --      0.7901                 0.9556                 0.5696
 IR Inten    --      3.1598                 4.4483                23.4403

                     25                     26                     27
                      A                      A                      A
 Frequencies --    803.4003               817.0527               861.8918
 Red. masses --      3.3423                 2.4710                 2.3374
 Frc consts  --      1.2711                 0.9719                 1.0230
 IR Inten    --      2.2610                 4.5659                 2.3341

                     28                     29                     30
                      A                      A                      A
 Frequencies --    890.1011               895.3743               949.3855
 Red. masses --      1.4816                 2.1225                 1.3707
 Frc consts  --      0.6916                 1.0025                 0.7279
 IR Inten    --      0.2902                 8.9993                 1.2496

                     31                     32                     33
                      A                      A                      A
 Frequencies --    964.4623               984.9259              1001.7425
 Red. masses --      1.9593                 1.2645                 1.9160
 Frc consts  --      1.0738                 0.7227                 1.1328
 IR Inten    --      0.5034                 0.0086                 2.8051

                     34                     35                     36
                      A                      A                      A
 Frequencies --   1027.0882              1046.8856              1065.8289
 Red. masses --      1.9066                 1.4860                 2.1058
 Frc consts  --      1.1850                 0.9596                 1.4094
 IR Inten    --      3.8577                15.0220                 1.7562

                     37                     38                     39
                      A                      A                      A
 Frequencies --   1080.0964              1096.0899              1107.6028
 Red. masses --      2.0903                 2.3870                 1.8115
 Frc consts  --      1.4368                 1.6897                 1.3093
 IR Inten    --      6.8352                 6.4354                 6.8028

                     40                     41                     42
                      A                      A                      A
 Frequencies --   1132.2946              1157.3376              1173.5332
 Red. masses --      2.2714                 2.0568                 2.1793
 Frc consts  --      1.7158                 1.6231                 1.7683
 IR Inten    --      0.1636                18.6835                16.1615

                     43                     44                     45
                      A                      A                      A
 Frequencies --   1200.6656              1207.5130              1236.0097
 Red. masses --      1.3291                 1.3683                 2.1180
 Frc consts  --      1.1289                 1.1754                 1.9065
 IR Inten    --      7.9250                 3.4580                 3.1566

                     46                     47                     48
                      A                      A                      A
 Frequencies --   1253.4583              1261.7719              1301.2173
 Red. masses --      1.3144                 1.5808                 1.6981
 Frc consts  --      1.2168                 1.4828                 1.6940
 IR Inten    --      1.2428                 1.8818                10.9083

                     49                     50                     51
                      A                      A                      A
 Frequencies --   1325.2351              1338.7750              1351.9849
 Red. masses --      1.5727                 3.2106                 1.3006
 Frc consts  --      1.6273                 3.3904                 1.4006
 IR Inten    --      6.3401                 5.8549                 2.2804

                     52                     53                     54
                      A                      A                      A
 Frequencies --   1376.4027              1388.6773              1401.2743
 Red. masses --      1.3954                 1.7244                 1.3571
 Frc consts  --      1.5575                 1.9593                 1.5700
 IR Inten    --      2.9655                16.3712                 6.7981

                     55                     56                     57
                      A                      A                      A
 Frequencies --   1421.4680              1433.9080              1441.1745
 Red. masses --      1.3911                 1.2303                 1.2364
 Frc consts  --      1.6561                 1.4905                 1.5130
 IR Inten    --      5.6701                 5.5173                 8.4731

                     58                     59                     60
                      A                      A                      A
 Frequencies --   1496.4713              1505.7712              1517.9114
 Red. masses --      2.1744                 1.0887                 1.1021
 Frc consts  --      2.8690                 1.4544                 1.4961
 IR Inten    --      5.7995                 5.4996                 5.6363

                     61                     62                     63
                      A                      A                      A
 Frequencies --   1526.5551              1528.1074              1533.8477
 Red. masses --      1.0530                 1.1054                 1.2291
 Frc consts  --      1.4458                 1.5208                 1.7038
 IR Inten    --      4.3200                11.4845                11.7115

                     64                     65                     66
                      A                      A                      A
 Frequencies --   1536.4496              1542.5675              1636.3940
 Red. masses --      1.0626                 1.6148                 5.6450
 Frc consts  --      1.4780                 2.2639                 8.9061
 IR Inten    --      4.3619                 4.3675                 0.1899

                     67                     68                     69
                      A                      A                      A
 Frequencies --   1663.1424              1815.0809              3032.9651
 Red. masses --      5.5573                10.5347                 1.0767
 Frc consts  --      9.0567                20.4487                 5.8353
 IR Inten    --      1.4269               157.5849                 7.2240

                     70                     71                     72
                      A                      A                      A
 Frequencies --   3044.3779              3047.2916              3055.5984
 Red. masses --      1.0664                 1.0661                 1.0430
 Frc consts  --      5.8232                 5.8327                 5.7373
 IR Inten    --     14.5276                36.4117                25.2753

                     73                     74                     75
                      A                      A                      A
 Frequencies --   3066.5011              3075.7617              3086.5551
 Red. masses --      1.0376                 1.0792                 1.1010
 Frc consts  --      5.7489                 6.0156                 6.1802
 IR Inten    --     23.7882                23.1335                36.6186

                     76                     77                     78
                      A                      A                      A
 Frequencies --   3117.6809              3119.8028              3130.2744
 Red. masses --      1.0988                 1.0997                 1.1029
 Frc consts  --      6.2925                 6.3064                 6.3672
 IR Inten    --     19.3524                29.2724                24.8532

                     79                     80                     81
                      A                      A                      A
 Frequencies --   3139.7351              3154.4894              3174.0632
 Red. masses --      1.0991                 1.1019                 1.0870
 Frc consts  --      6.3836                 6.4605                 6.4523
 IR Inten    --     32.3577                14.0018                10.4841

                     82                     83                     84
                      A                      A                      A
 Frequencies --   3190.3363              3206.7771              3232.1505
 Red. masses --      1.0885                 1.0956                 1.0912
 Frc consts  --      6.5278                 6.6383                 6.7167
 IR Inten    --     12.8677                30.8039                11.7367

 - Thermochemistry -
 -------------------
 Temperature   298.150 Kelvin.  Pressure   1.00000 Atm.
 Atom     1 has atomic number  6 and mass  12.00000

 Molecular mass:   188.12012 amu.
 Principal axes and moments of inertia in atomic units:
                           1         2         3
     Eigenvalues --  1979.746762626.682063729.89895
           X            0.99838  -0.05460  -0.01615
           Y            0.05431   0.99837  -0.01783
           Z            0.01710   0.01692   0.99971
 This molecule is an asymmetric top.
 Rotational symmetry number  1.
 Warning -- assumption of classical behavior for rotation
           may cause significant error
 Rotational temperatures (Kelvin)      0.04375     0.03297     0.02322
 Rotational constants (GHZ):           0.91160     0.68708     0.48386
 Zero-point vibrational energy     687746.3 (Joules/Mol)
                                  164.37532 (Kcal/Mol)
 Warning -- explicit consideration of  18 degrees of freedom as
           vibrations may cause significant error
 Vibrational temperatures:    107.71   113.31   184.89   222.61   289.60
          (Kelvin)            300.67   381.74   412.35   430.08   432.40
                              454.28   503.44   524.10   648.59   699.81
                              716.55   798.41   811.17   902.19   911.62
                             1000.79  1066.10  1087.45  1115.88  1155.91
                             1175.56  1240.07  1280.66  1288.24  1365.95
                             1387.65  1417.09  1441.28  1477.75  1506.23
                             1533.49  1554.02  1577.03  1593.59  1629.12
                             1665.15  1688.45  1727.49  1737.34  1778.34
                             1803.45  1815.41  1872.16  1906.72  1926.20
                             1945.20  1980.34  1998.00  2016.12  2045.18
                             2063.07  2073.53  2153.09  2166.47  2183.94
                             2196.37  2198.61  2206.86  2210.61  2219.41
                             2354.41  2392.89  2611.50  4363.76  4380.18
                             4384.37  4396.32  4412.01  4425.34  4440.86
                             4485.65  4488.70  4503.77  4517.38  4538.61
                             4566.77  4590.18  4613.84  4650.34

 Zero-point correction=                           0.261949 (Hartree/Particle)
 Thermal correction to Energy=                    0.274299
 Thermal correction to Enthalpy=                  0.275243
 Thermal correction to Gibbs Free Energy=         0.224134
 Sum of electronic and zero-point Energies=           -580.049873
 Sum of electronic and thermal Energies=              -580.037523
 Sum of electronic and thermal Enthalpies=            -580.036579
 Sum of electronic and thermal Free Energies=         -580.087688

                     E (Thermal)             CV                S
                      KCal/Mol        Cal/Mol-Kelvin    Cal/Mol-Kelvin
 Total                  172.125             49.769            107.568
 Electronic               0.000              0.000              0.000
 Translational            0.889              2.981             41.602
 Rotational               0.889              2.981             31.340
 Vibrational            170.348             43.807             34.627
 Vibration     1          0.599              1.966              4.021
 Vibration     2          0.600              1.963              3.922
 Vibration     3          0.611              1.925              2.968
 Vibration     4          0.620              1.897              2.613
 Vibration     5          0.638              1.838              2.121
 Vibration     6          0.642              1.827              2.053
 Vibration     7          0.671              1.737              1.626
 Vibration     8          0.684              1.699              1.494
 Vibration     9          0.692              1.676              1.423
 Vibration    10          0.693              1.673              1.414
 Vibration    11          0.703              1.644              1.332
 Vibration    12          0.727              1.575              1.167
 Vibration    13          0.738              1.546              1.104
 Vibration    14          0.810              1.359              0.793
 Vibration    15          0.842              1.280              0.693
 Vibration    16          0.854              1.254              0.663
 Vibration    17          0.910              1.129              0.534
 Vibration    18          0.920              1.110              0.516

 Optimization completed.
    -- Stationary point found.
 Normal termination of Gaussian 16 at Thu Dec 10 09:25:35 2020.

 ----------------------------------------------------------------------
 # B3LYP/6-311++G(d,p) empiricaldispersion=gd3bj scf=xqc pop=npa geom=c
 heck
 ----------------------------------------------------------------------

 ---------------------------------------
 CID_142201544_JID_4079_Energie_neutraal
 ---------------------------------------
 Structure from the checkpoint file:  "JID_4079.chk"
 Charge =  0 Multiplicity = 1

 SCF Done:  E(RB3LYP) =  -580.466348360     A.U. after   15 cycles
 Normal termination of Gaussian 16 at Thu Dec 10 09:29:17 2020.

 ----------------------------------------------------------------------
 # B3LYP/6-311++G(d,p) empiricaldispersion=gd3bj scf=xqc pop=npa geom=c
 heck
 ----------------------------------------------------------------------

 -------------------------------------
 CID_142201544_JID_4079_Energie_kation
 -------------------------------------
 Structure from the checkpoint file:  "JID_4079.chk"
 Charge =  1 Multiplicity = 2

 SCF Done:  E(UB3LYP) =  -580.164417143     A.U. after   22 cycles
 Normal termination of Gaussian 16 at Thu Dec 10 09:36:38 2020.
 Gaussian 16:  ES64L-G16RevA.03 25-Dec-2016

 ----------------------------------------------------------------------
 # B3LYP/6-311++G(d,p) empiricaldispersion=gd3bj scf=xqc pop=npa geom=c
 heck
 ----------------------------------------------------------------------

 ------------------------------------
 CID_142201544_JID_4079_Energie_anion
 ------------------------------------
 Structure from the checkpoint file:  "JID_4079.chk"
 Charge = -1 Multiplicity = 2

                         Standard orientation:
 ---------------------------------------------------------------------
 Center     Atomic      Atomic             Coordinates (Angstroms)
 Number     Number       Type             X           Y           Z
 ---------------------------------------------------------------------
      1          6           0       -0.656873    2.260814    1.532339
      2          6           0       -0.232623    1.918207    0.091928
      3          6           0       -1.426293    1.693777   -0.861662
      4          6           0       -2.415287    0.567375   -0.503892
      5          6           0       -1.770016   -0.803509   -0.458279
      6          8           0       -2.011357   -1.657944   -1.289036
      7          6           0       -0.778982   -1.058686    0.688904
      8          6           0        0.600120   -0.544042    0.262989
      9          6           0        1.656758   -1.447975    0.102535
     10          6           0        2.931178   -1.030214   -0.278109
     11          6           0        3.168694    0.319669   -0.512928
     12          6           0        2.120493    1.226853   -0.372251
     13          6           0        0.832817    0.827359    0.006244
     14          6           0       -0.825698   -2.531666    1.099900
     15          1           0       -1.169375    1.439756    2.040293
     16          1           0       -1.336354    3.121449    1.531395
     17          1           0        0.220644    2.520519    2.132836
     18          1           0        0.254946    2.823771   -0.290195
     19          1           0       -1.033445    1.507215   -1.868264
     20          1           0       -1.997912    2.629231   -0.914735
     21          1           0       -2.869287    0.775271    0.474307
     22          1           0       -3.214557    0.535267   -1.249896
     23          1           0       -1.106237   -0.457066    1.543151
     24          1           0        1.487709   -2.502928    0.281156
     25          1           0        3.727678   -1.760415   -0.389688
     26          1           0        4.154222    0.666793   -0.810010
     27          1           0        2.301446    2.281431   -0.566439
     28          1           0       -0.106743   -2.741488    1.897576
     29          1           0       -1.826261   -2.780180    1.467432
     30          1           0       -0.621346   -3.182855    0.247051
 ---------------------------------------------------------------------

 SCF Done:  E(UB3LYP) =  -580.457378428     A.U. after   33 cycles
 SCF Done:  E(UB3LYP) =  -580.457378428     a.u. after    1 cycles

 The electronic state is 2-A.
 Alpha  occ. eigenvalues --  -18.98137 -10.12310 -10.07466 -10.07221 -10.07169
 Alpha  occ. eigenvalues --  -10.07007 -10.06808 -10.06397 -10.06340 -10.06297
 Alpha  occ. eigenvalues --  -10.06095 -10.05734 -10.05583 -10.04645  -0.91748
 Alpha  occ. eigenvalues --   -0.75867  -0.70519  -0.68729  -0.64709  -0.62496
 Alpha  occ. eigenvalues --   -0.61161  -0.56330  -0.53033  -0.50939  -0.48456
 Alpha  occ. eigenvalues --   -0.44375  -0.41464  -0.39418  -0.37580  -0.36324
 Alpha  occ. eigenvalues --   -0.34514  -0.34039  -0.33051  -0.32438  -0.31442
 Alpha  occ. eigenvalues --   -0.29775  -0.29050  -0.28645  -0.27643  -0.27264
 Alpha  occ. eigenvalues --   -0.25931  -0.25104  -0.24972  -0.23851  -0.22603
 Alpha  occ. eigenvalues --   -0.21907  -0.21096  -0.20753  -0.15075  -0.14291
 Alpha  occ. eigenvalues --   -0.11783   0.04662
 Alpha virt. eigenvalues --    0.07049   0.07637   0.08000   0.08683   0.09183
 Alpha virt. eigenvalues --    0.09367   0.09503   0.10517   0.10961   0.11253
 Alpha virt. eigenvalues --    0.11603   0.11980   0.12360   0.13765   0.14220

  Beta  occ. eigenvalues --  -18.97943 -10.12129 -10.07394 -10.07237 -10.07165
  Beta  occ. eigenvalues --  -10.06998 -10.06818 -10.06336 -10.06312 -10.06275
  Beta  occ. eigenvalues --  -10.06063 -10.05725 -10.05585 -10.04586  -0.91380
  Beta  occ. eigenvalues --   -0.75783  -0.70435  -0.68641  -0.64609  -0.62391
  Beta  occ. eigenvalues --   -0.61084  -0.56195  -0.52964  -0.50817  -0.48360
  Beta  occ. eigenvalues --   -0.44283  -0.41246  -0.39271  -0.37514  -0.36236
  Beta  occ. eigenvalues --   -0.34431  -0.33860  -0.32997  -0.32352  -0.31307
  Beta  occ. eigenvalues --   -0.29646  -0.28951  -0.28495  -0.27579  -0.27198
  Beta  occ. eigenvalues --   -0.25761  -0.24930  -0.24723  -0.23744  -0.22364
  Beta  occ. eigenvalues --   -0.21747  -0.21027  -0.20531  -0.14764  -0.14162
  Beta  occ. eigenvalues --   -0.11579
  Beta virt. eigenvalues --    0.06948   0.07794   0.07961   0.08906   0.09141
  Beta virt. eigenvalues --    0.09315   0.09727   0.09972   0.11217   0.11485
  Beta virt. eigenvalues --    0.11766   0.11819   0.12251   0.12457   0.14170

 Mulliken charges and spin densities:
               1          2
     1  C    1.504832  -2.262915
     2  C   -2.221994   2.464335
     3  C    0.525316  -0.974247
     4  C   -0.008510  -0.238052
     5  C   -0.300026   0.041173
     6  O   -0.347667   0.081437
     7  C    1.117371  -0.542004
     8  C   -0.061402   0.386205
     9  C   -0.046422  -0.129178
    10  C   -0.217561  -0.315845
    11  C    0.134098  -0.414051
    12  C   -0.334605   0.048723
    13  C    0.870005  -0.677434
    14  C   -0.271565  -0.297131
    15  H   -0.393457   0.545804
    16  H   -0.589649   0.752767
    17  H   -0.076688   0.221771
    18  H   -0.303031   0.501848
    19  H    0.218317  -0.081023
    20  H   -0.563794   0.755135
    21  H   -0.059954   0.217919
    22  H    0.016664   0.173846
    23  H    0.106416   0.047930
    24  H    0.139616  -0.014177
    25  H    0.042794   0.098532
    26  H   -0.056283   0.189967
    27  H   -0.139866   0.269345
    28  H    0.081052   0.046423
    29  H    0.069265   0.091022
    30  H    0.166729   0.011873
 Sum of Mulliken charges =  -1.00000   1.00000

 Dipole moment (field-independent basis, Debye):
    X=              3.7690    Y=             -4.8693    Z=             -0.3239  Tot=              6.1661
 Quadrupole moment (field-independent basis, Debye-Ang):
   XX=           -129.7663   YY=           -134.9722   ZZ=           -115.5108
   XY=              4.6670   XZ=             -0.3743   YZ=             -9.9737

 Summary of Natural Population Analysis:

                                       Natural Population
                Natural  -----------------------------------------------
    Atom  No    Charge         Core      Valence    Rydberg      Total
 -----------------------------------------------------------------------
      C    1   -0.28085      0.99964     2.27542    0.00580     3.28085
      C    2   -0.11889      0.99957     2.10709    0.01223     3.11889
      C    3   -0.17772      0.99960     2.16915    0.00897     3.17772
      C    4   -0.23595      0.99957     2.22674    0.00964     3.23595
      C    5    0.32238      0.99964     1.65535    0.02264     2.67762
      O    6   -0.27945      0.99987     3.27324    0.00634     4.27945
      C    7   -0.16133      0.99953     2.15161    0.01020     3.16133
      C    8    0.00292      0.99945     1.98703    0.01061     2.99708
      C    9   -0.09736      0.99952     2.08971    0.00813     3.09736
      C   10   -0.10852      0.99956     2.09907    0.00989     3.10852
      C   11   -0.09460      0.99956     2.08571    0.00933     3.09460
      C   12   -0.09773      0.99951     2.08840    0.00982     3.09773
      C   13   -0.00459      0.99945     1.99371    0.01143     3.00459
      C   14   -0.28427      0.99966     2.27880    0.00580     3.28427
      H   15    0.09566      0.00000     0.40279    0.00155     0.40434
      H   16    0.10355      0.00000     0.39370    0.00275     0.39645
      H   17    0.10076      0.00000     0.39810    0.00114     0.39924
      H   18    0.09973      0.00000     0.39802    0.00225     0.40027
      H   19    0.09732      0.00000     0.40142    0.00126     0.40268
      H   20    0.10344      0.00000     0.39451    0.00205     0.39656
      H   21    0.10650      0.00000     0.39118    0.00233     0.39350
      H   22    0.10661      0.00000     0.39228    0.00111     0.39339
      H   23    0.10959      0.00000     0.38819    0.00222     0.39041
      H   24    0.09978      0.00000     0.39908    0.00114     0.40022
      H   25    0.09571      0.00000     0.40351    0.00078     0.40429
      H   26    0.09626      0.00000     0.40293    0.00081     0.40374
      H   27    0.09774      0.00000     0.40075    0.00150     0.40226
      H   28    0.09659      0.00000     0.40249    0.00092     0.40341
      H   29    0.10083      0.00000     0.39843    0.00074     0.39917
      H   30    0.10589      0.00000     0.39303    0.00108     0.39411
 =======================================================================
   * Total *    0.00000     13.99412    36.84142    0.16446    51.00000

 Normal termination of Gaussian 16 at Thu Dec 10 09:48:29 2020.
