 Gaussian 16, Revision A.03,

 -----------------------------------------------------------
 # opt freq B3LYP/6-31G(d) empiricaldispersion=gd3bj scf=xqc
 -----------------------------------------------------------

 ------------------------------
 CID_13749469_JID_5645_neutraal
 ------------------------------
 Symbolic Z-matrix:
 Charge =  0 Multiplicity = 1

 SCF Done:  E(RB3LYP) =  -1013.00419995     A.U. after   16 cycles
 SCF Done:  E(RB3LYP) =  -1013.01596100     A.U. after   14 cycles
 SCF Done:  E(RB3LYP) =  -1013.01955169     A.U. after   14 cycles
 SCF Done:  E(RB3LYP) =  -1013.01933298     A.U. after   14 cycles
 SCF Done:  E(RB3LYP) =  -1013.01909439     A.U. after   12 cycles
 SCF Done:  E(RB3LYP) =  -1013.01777877     A.U. after   12 cycles
 SCF Done:  E(RB3LYP) =  -1013.01958596     A.U. after    8 cycles
 SCF Done:  E(RB3LYP) =  -1013.02033614     A.U. after   12 cycles
 SCF Done:  E(RB3LYP) =  -1013.02046309     A.U. after   12 cycles
 SCF Done:  E(RB3LYP) =  -1013.02051242     A.U. after   11 cycles
 SCF Done:  E(RB3LYP) =  -1013.02054393     A.U. after    8 cycles
 SCF Done:  E(RB3LYP) =  -1013.02054445     A.U. after    8 cycles
 SCF Done:  E(RB3LYP) =  -1013.02054477     A.U. after    7 cycles
 SCF Done:  E(RB3LYP) =  -1013.02054490     A.U. after    7 cycles
 SCF Done:  E(RB3LYP) =  -1013.02054496     A.U. after    7 cycles
 Optimization completed.
    -- Stationary point found.
 Normal termination of Gaussian 16 at Thu Dec 10 16:40:20 2020.

 --------------------------------------------------------------------
 #N Geom=AllCheck Guess=TCheck SCRF=Check GenChk RB3LYP/6-31G(d) Freq
 --------------------------------------------------------------------

 Structure from the checkpoint file:  "JID_5645.chk"
 ------------------------------
 CID_13749469_JID_5645_neutraal
 ------------------------------
 Charge =  0 Multiplicity = 1

 SCF Done:  E(RB3LYP) =  -1013.02054496     A.U. after    1 cycles

  Exact polarizability: 211.406   5.097 154.571  -2.256   2.437  99.169
 Approx polarizability: 288.987  21.524 255.961  -5.015   9.502 147.854

                      1                      2                      3
                      A                      A                      A
 Frequencies --     29.2910                60.7597                67.2294
 Red. masses --      3.8814                 3.7416                 3.4180
 Frc consts  --      0.0020                 0.0081                 0.0091
 IR Inten    --      1.6830                 0.5021                 2.2215

                      4                      5                      6
                      A                      A                      A
 Frequencies --     85.3908               149.5838               160.4330
 Red. masses --      3.1868                 2.1772                 1.9635
 Frc consts  --      0.0137                 0.0287                 0.0298
 IR Inten    --      0.5109                 1.4697                 0.6403

                      7                      8                      9
                      A                      A                      A
 Frequencies --    180.2221               192.1606               216.9642
 Red. masses --      1.3060                 4.7637                 1.9691
 Frc consts  --      0.0250                 0.1036                 0.0546
 IR Inten    --      0.4974                 0.2203                 2.6136

                     10                     11                     12
                      A                      A                      A
 Frequencies --    222.6762               234.1570               254.4087
 Red. masses --      1.2176                 2.8241                 1.1206
 Frc consts  --      0.0356                 0.0912                 0.0427
 IR Inten    --      0.2557                 2.5818                 0.0168

                     13                     14                     15
                      A                      A                      A
 Frequencies --    264.3551               282.6694               296.3535
 Red. masses --      2.1837                 2.1191                 3.3311
 Frc consts  --      0.0899                 0.0998                 0.1724
 IR Inten    --      2.0941                 3.1009                 1.4904

                     16                     17                     18
                      A                      A                      A
 Frequencies --    336.9448               345.3967               368.2545
 Red. masses --      3.3131                 3.5344                 1.8764
 Frc consts  --      0.2216                 0.2484                 0.1499
 IR Inten    --      2.9422                 8.6977                 0.4735

                     19                     20                     21
                      A                      A                      A
 Frequencies --    383.5702               394.9816               429.6431
 Red. masses --      1.4521                 4.4146                 2.2797
 Frc consts  --      0.1259                 0.4058                 0.2479
 IR Inten    --      0.0558                 0.8922                 0.0676

                     22                     23                     24
                      A                      A                      A
 Frequencies --    436.1100               465.9542               501.0759
 Red. masses --      2.6849                 3.3380                 3.9992
 Frc consts  --      0.3009                 0.4270                 0.5916
 IR Inten    --      0.2082                 5.8782                 0.8703

                     25                     26                     27
                      A                      A                      A
 Frequencies --    514.4237               571.9922               648.4953
 Red. masses --      7.2652                 3.2996                 5.5967
 Frc consts  --      1.1328                 0.6361                 1.3867
 IR Inten    --      3.3156                 0.7286                 2.0687

                     28                     29                     30
                      A                      A                      A
 Frequencies --    665.6832               682.1495               713.6576
 Red. masses --      4.8819                 7.3851                 7.7589
 Frc consts  --      1.2746                 2.0247                 2.3283
 IR Inten    --      0.5475                 0.8704                 5.7599

                     31                     32                     33
                      A                      A                      A
 Frequencies --    765.0432               780.2265               807.4829
 Red. masses --      1.2496                10.9737                 3.6266
 Frc consts  --      0.4309                 3.9359                 1.3932
 IR Inten    --      7.9273                20.3778                 0.3588

                     34                     35                     36
                      A                      A                      A
 Frequencies --    863.9003               916.7876               943.6340
 Red. masses --      4.1302                 1.3637                 1.7141
 Frc consts  --      1.8161                 0.6753                 0.8993
 IR Inten    --      8.0906                 5.0738                 0.5816

                     37                     38                     39
                      A                      A                      A
 Frequencies --    945.3637               982.4104               986.5837
 Red. masses --      1.6640                 1.1990                 5.7176
 Frc consts  --      0.8762                 0.6818                 3.2789
 IR Inten    --      7.0061                 0.6009                61.1969

                     40                     41                     42
                      A                      A                      A
 Frequencies --    991.9505              1031.3335              1061.0132
 Red. masses --      1.9354                 1.6332                 1.6457
 Frc consts  --      1.1220                 1.0235                 1.0916
 IR Inten    --      8.5262                33.4192                30.3220

                     43                     44                     45
                      A                      A                      A
 Frequencies --   1070.7225              1080.5738              1083.5630
 Red. masses --      1.3715                 1.4186                 1.3396
 Frc consts  --      0.9264                 0.9760                 0.9267
 IR Inten    --      0.0153                 1.4927                 6.0291

                     46                     47                     48
                      A                      A                      A
 Frequencies --   1091.2466              1124.6399              1153.2701
 Red. masses --      1.9159                 3.2582                 5.5203
 Frc consts  --      1.3442                 2.4281                 4.3259
 IR Inten    --     15.6706                26.3715               122.2014

                     49                     50                     51
                      A                      A                      A
 Frequencies --   1244.2342              1267.7268              1272.3253
 Red. masses --      2.2617                 2.7773                 2.6295
 Frc consts  --      2.0629                 2.6298                 2.5079
 IR Inten    --     62.0599                 7.8244                62.4409

                     52                     53                     54
                      A                      A                      A
 Frequencies --   1301.9661              1326.7827              1335.1641
 Red. masses --      1.1864                 1.4218                 2.0050
 Frc consts  --      1.1849                 1.4747                 2.1058
 IR Inten    --      0.1081                51.3095                16.4389

                     55                     56                     57
                      A                      A                      A
 Frequencies --   1360.6857              1419.1804              1426.0463
 Red. masses --      4.4878                 1.2339                 1.2771
 Frc consts  --      4.8956                 1.4643                 1.5301
 IR Inten    --    188.1259                14.5875                34.6433

                     58                     59                     60
                      A                      A                      A
 Frequencies --   1433.5932              1442.6721              1453.2106
 Red. masses --      1.2291                 2.0393                 1.2704
 Frc consts  --      1.4883                 2.5007                 1.5807
 IR Inten    --      8.7474                86.4054                22.5048

                     61                     62                     63
                      A                      A                      A
 Frequencies --   1457.2464              1479.9187              1501.6251
 Red. masses --      1.3582                 1.1155                 1.0462
 Frc consts  --      1.6993                 1.4395                 1.3899
 IR Inten    --      3.2421                17.9461                 0.8307

                     64                     65                     66
                      A                      A                      A
 Frequencies --   1507.5150              1516.6180              1518.6578
 Red. masses --      1.0417                 1.1940                 1.0872
 Frc consts  --      1.3948                 1.6181                 1.4774
 IR Inten    --      7.2223                44.4350                10.6764

                     67                     68                     69
                      A                      A                      A
 Frequencies --   1527.7182              1530.4944              1532.6397
 Red. masses --      1.1661                 1.0684                 1.0462
 Frc consts  --      1.6034                 1.4745                 1.4479
 IR Inten    --      0.6815                27.1394                 0.7672

                     70                     71                     72
                      A                      A                      A
 Frequencies --   1535.3548              1547.9823              1553.9293
 Red. masses --      1.0439                 1.0500                 2.7510
 Frc consts  --      1.4499                 1.4824                 3.9138
 IR Inten    --      2.9801                 3.0767               110.7498

                     73                     74                     75
                      A                      A                      A
 Frequencies --   1565.3060              1693.3790              1770.3561
 Red. masses --      1.0780                 6.2325                11.0252
 Frc consts  --      1.5561                10.5299                20.3591
 IR Inten    --     10.6908               249.4377               598.6476

                     76                     77                     78
                      A                      A                      A
 Frequencies --   3043.1219              3053.3127              3055.8080
 Red. masses --      1.0363                 1.0372                 1.0388
 Frc consts  --      5.6543                 5.6972                 5.7154
 IR Inten    --     26.6575                12.0451                34.5004

                     79                     80                     81
                      A                      A                      A
 Frequencies --   3057.9281              3063.8777              3086.5339
 Red. masses --      1.0398                 1.0410                 1.0623
 Frc consts  --      5.7289                 5.7574                 5.9627
 IR Inten    --     31.3610                25.2899                16.7825

                     82                     83                     84
                      A                      A                      A
 Frequencies --   3095.6139              3118.1827              3119.6162
 Red. masses --      1.1014                 1.1029                 1.1007
 Frc consts  --      6.2185                 6.3183                 6.3115
 IR Inten    --     12.5779                 2.0730                20.8109

                     85                     86                     87
                      A                      A                      A
 Frequencies --   3121.2663              3121.9735              3124.1984
 Red. masses --      1.1019                 1.1015                 1.1033
 Frc consts  --      6.3249                 6.3255                 6.3451
 IR Inten    --     27.0071                21.6402                36.9455

                     88                     89                     90
                      A                      A                      A
 Frequencies --   3138.2511              3148.7360              3163.1098
 Red. masses --      1.0995                 1.0996                 1.1041
 Frc consts  --      6.3797                 6.4234                 6.5087
 IR Inten    --     48.9596                 2.5330                14.0362

                     91                     92                     93
                      A                      A                      A
 Frequencies --   3192.1463              3194.3480              3271.2554
 Red. masses --      1.0978                 1.0973                 1.0899
 Frc consts  --      6.5906                 6.5970                 6.8717
 IR Inten    --      0.1646                 1.7585                 5.1934

 - Thermochemistry -
 -------------------
 Temperature   298.150 Kelvin.  Pressure   1.00000 Atm.
 Atom     1 has atomic number  6 and mass  12.00000

 Molecular mass:   226.11399 amu.
 Principal axes and moments of inertia in atomic units:
                           1         2         3
     Eigenvalues --  1848.919495430.127276688.44451
           X            0.99984  -0.01785   0.00296
           Y            0.01786   0.99983  -0.00548
           Z           -0.00286   0.00553   0.99998
 This molecule is an asymmetric top.
 Rotational symmetry number  1.
 Warning -- assumption of classical behavior for rotation
           may cause significant error
 Rotational temperatures (Kelvin)      0.04685     0.01595     0.01295
 Rotational constants (GHZ):           0.97611     0.33236     0.26983
 Zero-point vibrational energy     738851.6 (Joules/Mol)
                                  176.58977 (Kcal/Mol)
 Warning -- explicit consideration of  26 degrees of freedom as
           vibrations may cause significant error
 Vibrational temperatures:     42.14    87.42    96.73   122.86   215.22
          (Kelvin)            230.83   259.30   276.48   312.16   320.38
                              336.90   366.04   380.35   406.70   426.39
                              484.79   496.95   529.84   551.87   568.29
                              618.16   627.46   670.40   720.94   740.14
                              822.97   933.04   957.77   981.46  1026.79
                             1100.73  1122.57  1161.79  1242.96  1319.05
                             1357.68  1360.17  1413.47  1419.47  1427.20
                             1483.86  1526.56  1540.53  1554.70  1559.01
                             1570.06  1618.11  1659.30  1790.18  1823.98
                             1830.59  1873.24  1908.94  1921.00  1957.72
                             2041.88  2051.76  2062.62  2075.68  2090.85
                             2096.65  2129.27  2160.50  2168.98  2182.07
                             2185.01  2198.05  2202.04  2205.13  2209.03
                             2227.20  2235.76  2252.13  2436.39  2547.15
                             4378.37  4393.04  4396.63  4399.68  4408.24
                             4440.83  4453.90  4486.37  4488.43  4490.81
                             4491.82  4495.02  4515.24  4530.33  4551.01
                             4592.79  4595.95  4706.61

 Zero-point correction=                           0.281414 (Hartree/Particle)
 Thermal correction to Energy=                    0.297909
 Thermal correction to Enthalpy=                  0.298853
 Thermal correction to Gibbs Free Energy=         0.237870
 Sum of electronic and zero-point Energies=          -1012.739131
 Sum of electronic and thermal Energies=             -1012.722636
 Sum of electronic and thermal Enthalpies=           -1012.721692
 Sum of electronic and thermal Free Energies=        -1012.782675

                     E (Thermal)             CV                S
                      KCal/Mol        Cal/Mol-Kelvin    Cal/Mol-Kelvin
 Total                  186.941             62.481            128.350
 Electronic               0.000              0.000              0.000
 Translational            0.889              2.981             42.150
 Rotational               0.889              2.981             32.574
 Vibrational            185.163             56.520             53.626
 Vibration     1          0.593              1.984              5.877
 Vibration     2          0.597              1.973              4.432
 Vibration     3          0.598              1.970              4.233
 Vibration     4          0.601              1.959              3.763
 Vibration     5          0.618              1.903              2.678
 Vibration     6          0.622              1.891              2.545
 Vibration     7          0.629              1.867              2.326
 Vibration     8          0.634              1.851              2.207
 Vibration     9          0.646              1.815              1.984
 Vibration    10          0.648              1.807              1.937
 Vibration    11          0.654              1.789              1.847
 Vibration    12          0.665              1.755              1.700
 Vibration    13          0.671              1.738              1.633
 Vibration    14          0.682              1.706              1.517
 Vibration    15          0.690              1.681              1.437
 Vibration    16          0.718              1.602              1.227
 Vibration    17          0.724              1.585              1.187
 Vibration    18          0.741              1.538              1.087
 Vibration    19          0.753              1.505              1.025
 Vibration    20          0.762              1.481              0.981
 Vibration    21          0.791              1.406              0.860
 Vibration    22          0.797              1.391              0.839
 Vibration    23          0.823              1.326              0.749
 Vibration    24          0.856              1.248              0.655
 Vibration    25          0.869              1.218              0.623
 Vibration    26          0.928              1.092              0.500

                           ! Non-Optimized Parameters !
 Normal termination of Gaussian 16 at Thu Dec 10 16:51:43 2020.

 ----------------------------------------------------------------------
 # B3LYP/6-311++G(d,p) empiricaldispersion=gd3bj scf=xqc pop=npa geom=c
 heck
 ----------------------------------------------------------------------

 --------------------------------------
 CID_13749469_JID_5645_Energie_neutraal
 --------------------------------------
 Structure from the checkpoint file:  "JID_5645.chk"
 Charge =  0 Multiplicity = 1

 SCF Done:  E(RB3LYP) =  -1013.21514552     A.U. after   16 cycles
 Normal termination of Gaussian 16 at Thu Dec 10 16:58:10 2020.

 ----------------------------------------------------------------------
 # B3LYP/6-311++G(d,p) empiricaldispersion=gd3bj scf=xqc pop=npa geom=c
 heck
 ----------------------------------------------------------------------

 ------------------------------------
 CID_13749469_JID_5645_Energie_kation
 ------------------------------------
 Structure from the checkpoint file:  "JID_5645.chk"
 Charge =  1 Multiplicity = 2

 SCF Done:  E(UB3LYP) =  -1012.92245373     A.U. after   25 cycles
 Normal termination of Gaussian 16 at Thu Dec 10 17:12:27 2020.
 Gaussian 16:  ES64L-G16RevA.03 25-Dec-2016

 ----------------------------------------------------------------------
 # B3LYP/6-311++G(d,p) empiricaldispersion=gd3bj scf=xqc pop=npa geom=c
 heck
 ----------------------------------------------------------------------

 -----------------------------------
 CID_13749469_JID_5645_Energie_anion
 -----------------------------------
 Structure from the checkpoint file:  "JID_5645.chk"
 Charge = -1 Multiplicity = 2

                         Standard orientation:
 ---------------------------------------------------------------------
 Center     Atomic      Atomic             Coordinates (Angstroms)
 Number     Number       Type             X           Y           Z
 ---------------------------------------------------------------------
      1          6           0        3.688628   -1.814534    0.898866
      2          6           0        3.652599   -1.038941   -0.413317
      3         16           0        3.052922    0.686855   -0.225033
      4          6           0        1.297969    0.432206   -0.139695
      5          7           0        0.826221   -0.781091   -0.252954
      6          6           0       -0.525414   -1.039877   -0.203283
      7          8           0       -0.977327   -2.172171   -0.312635
      8          7           0       -1.396178    0.084179   -0.013314
      9          6           0       -0.861801    1.331638    0.098395
     10          6           0        0.478122    1.590153    0.044565
     11          6           0        1.031031    2.982288    0.170568
     12          6           0       -2.888536   -0.150058    0.058934
     13          6           0       -3.357047   -0.767959   -1.269886
     14          6           0       -3.186653   -1.072672    1.253578
     15          6           0       -3.645796    1.168479    0.269607
     16          1           0        4.321337   -1.316296    1.640185
     17          1           0        4.089367   -2.820087    0.722529
     18          1           0        2.679005   -1.917170    1.302797
     19          1           0        4.649725   -0.930979   -0.851274
     20          1           0        2.996208   -1.524505   -1.138056
     21          1           0       -1.558389    2.145247    0.236906
     22          1           0        1.595697    3.274904   -0.723112
     23          1           0        0.224035    3.708609    0.310363
     24          1           0        1.714164    3.069031    1.024222
     25          1           0       -2.860288   -1.719523   -1.452083
     26          1           0       -4.439268   -0.931377   -1.230551
     27          1           0       -3.144345   -0.086196   -2.100967
     28          1           0       -2.854284   -0.604179    2.186753
     29          1           0       -4.267086   -1.238738    1.320718
     30          1           0       -2.686273   -2.032655    1.137467
     31          1           0       -3.380823    1.660233    1.211750
     32          1           0       -3.503299    1.872602   -0.557164
     33          1           0       -4.712530    0.932818    0.315015
 ---------------------------------------------------------------------

 SCF Done:  E(UB3LYP) =  -1013.21332338     A.U. after   33 cycles
 SCF Done:  E(UB3LYP) =  -1013.21332338     a.u. after    1 cycles

 The electronic state is 2-A.
 Alpha  occ. eigenvalues --  -88.70523 -18.92297 -14.20186 -14.12083 -10.13066
 Alpha  occ. eigenvalues --  -10.10897 -10.06973 -10.06188 -10.06017 -10.04646
 Alpha  occ. eigenvalues --  -10.04518 -10.04221 -10.04210 -10.03913 -10.02622
 Alpha  occ. eigenvalues --   -7.79190  -5.75554  -5.75153  -5.74661  -0.89092
 Alpha  occ. eigenvalues --   -0.80998  -0.75901  -0.68662  -0.66689  -0.65038
 Alpha  occ. eigenvalues --   -0.59019  -0.58304  -0.57725  -0.55180  -0.50637
 Alpha  occ. eigenvalues --   -0.48054  -0.45866  -0.42714  -0.38908  -0.37134
 Alpha  occ. eigenvalues --   -0.34238  -0.33916  -0.32253  -0.31719  -0.31020
 Alpha  occ. eigenvalues --   -0.29798  -0.29320  -0.29166  -0.27696  -0.27278
 Alpha  occ. eigenvalues --   -0.26852  -0.26616  -0.25758  -0.25500  -0.25001
 Alpha  occ. eigenvalues --   -0.23885  -0.23279  -0.22516  -0.21579  -0.19119
 Alpha  occ. eigenvalues --   -0.18430  -0.18169  -0.11267  -0.10110  -0.09628
 Alpha  occ. eigenvalues --   -0.07487   0.05649
 Alpha virt. eigenvalues --    0.07397   0.08524   0.08875   0.09966   0.10176
 Alpha virt. eigenvalues --    0.10770   0.11013   0.11436   0.11956   0.12451
 Alpha virt. eigenvalues --    0.13482   0.13649   0.13941   0.14163   0.14539

  Beta  occ. eigenvalues --  -88.70517 -18.92282 -14.19836 -14.11791 -10.13076
  Beta  occ. eigenvalues --  -10.10915 -10.06976 -10.06180 -10.05491 -10.04511
  Beta  occ. eigenvalues --  -10.04202 -10.04191 -10.04158 -10.03889 -10.02773
  Beta  occ. eigenvalues --   -7.79184  -5.75560  -5.75163  -5.74619  -0.88908
  Beta  occ. eigenvalues --   -0.80522  -0.75276  -0.68462  -0.66493  -0.64889
  Beta  occ. eigenvalues --   -0.58895  -0.58133  -0.57682  -0.54819  -0.50190
  Beta  occ. eigenvalues --   -0.47813  -0.45720  -0.42478  -0.38628  -0.37005
  Beta  occ. eigenvalues --   -0.34028  -0.33845  -0.32196  -0.31547  -0.30496
  Beta  occ. eigenvalues --   -0.29713  -0.29243  -0.29130  -0.27629  -0.27167
  Beta  occ. eigenvalues --   -0.26757  -0.26427  -0.25524  -0.25312  -0.24813
  Beta  occ. eigenvalues --   -0.23790  -0.23049  -0.22485  -0.21423  -0.18295
  Beta  occ. eigenvalues --   -0.17981  -0.16167  -0.11088  -0.09771  -0.08865
  Beta  occ. eigenvalues --   -0.06389
  Beta virt. eigenvalues --    0.07308   0.08450   0.08781   0.09855   0.10050
  Beta virt. eigenvalues --    0.10531   0.10894   0.11316   0.11479   0.12320
  Beta virt. eigenvalues --    0.13369   0.13528   0.13638   0.13856   0.14064

 Mulliken charges and spin densities:
               1          2
     1  C   -0.195275  -0.317567
     2  C   -0.321057   0.176827
     3  S   -0.513153  -0.034028
     4  C    0.148558   0.223801
     5  N   -0.030519   0.164988
     6  C    0.151721   0.005084
     7  O   -0.350447   0.004116
     8  N    0.325219   0.082461
     9  C   -0.207923   0.560726
    10  C   -0.023820  -0.146060
    11  C   -0.861653   0.021543
    12  C    0.035561  -0.059578
    13  C   -0.410870   0.016929
    14  C   -0.425393   0.006721
    15  C   -0.506587  -0.039533
    16  H   -0.018111   0.115997
    17  H   -0.028929   0.114275
    18  H    0.172169   0.033984
    19  H    0.147324   0.008415
    20  H    0.211479  -0.004916
    21  H    0.123715  -0.039468
    22  H    0.129688   0.004658
    23  H    0.094977  -0.000434
    24  H    0.119234   0.015142
    25  H    0.196208  -0.000073
    26  H    0.102460   0.006320
    27  H    0.128534   0.005100
    28  H    0.131679   0.002154
    29  H    0.094666   0.012831
    30  H    0.197062  -0.000209
    31  H    0.127800   0.015426
    32  H    0.099254   0.044384
    33  H    0.156427  -0.000018
 Sum of Mulliken charges =  -1.00000   1.00000

 Dipole moment (field-independent basis, Debye):
    X=             -3.2893    Y=              2.7614    Z=              0.3292  Tot=              4.3073
 Quadrupole moment (field-independent basis, Debye-Ang):
   XX=           -131.3086   YY=           -127.1288   ZZ=           -112.5508
   XY=             -4.1830   XZ=             -3.2668   YZ=              0.2473

 Summary of Natural Population Analysis:

                                       Natural Population
                Natural  -----------------------------------------------
    Atom  No    Charge         Core      Valence    Rydberg      Total
 -----------------------------------------------------------------------
      C    1   -0.29089      0.99965     2.28536    0.00587     3.29089
      C    2   -0.25412      0.99961     2.24202    0.01250     3.25412
      S    3    0.09907      4.99954     2.88280    0.01859     7.90093
      C    4    0.15413      0.99945     1.82894    0.01748     2.84587
      N    5   -0.27203      0.99959     2.75905    0.01340     3.77203
      C    6    0.39839      0.99968     1.57703    0.02490     2.60161
      O    7   -0.35505      0.99987     3.34932    0.00585     4.35505
      N    8   -0.19872      0.99960     2.68852    0.01060     3.69872
      C    9    0.13511      0.99950     1.85361    0.01178     2.86489
      C   10   -0.12161      0.99946     2.11332    0.00883     3.12161
      C   11   -0.28698      0.99965     2.28207    0.00526     3.28698
      C   12    0.06721      0.99960     1.92116    0.01202     2.93279
      C   13   -0.29044      0.99961     2.28529    0.00554     3.29044
      C   14   -0.29043      0.99961     2.28529    0.00553     3.29043
      C   15   -0.29203      0.99962     2.28693    0.00548     3.29203
      H   16    0.09164      0.00000     0.40654    0.00182     0.40836
      H   17    0.09060      0.00000     0.40786    0.00154     0.40940
      H   18    0.11372      0.00000     0.38456    0.00172     0.38628
      H   19    0.09343      0.00000     0.40540    0.00116     0.40657
      H   20    0.11686      0.00000     0.38161    0.00153     0.38314
      H   21    0.08437      0.00000     0.41460    0.00103     0.41563
      H   22    0.09730      0.00000     0.40165    0.00104     0.40270
      H   23    0.09492      0.00000     0.40430    0.00078     0.40508
      H   24    0.09789      0.00000     0.40106    0.00105     0.40211
      H   25    0.12170      0.00000     0.37732    0.00098     0.37830
      H   26    0.08878      0.00000     0.41035    0.00087     0.41122
      H   27    0.09721      0.00000     0.40196    0.00084     0.40279
      H   28    0.09720      0.00000     0.40196    0.00083     0.40280
      H   29    0.08886      0.00000     0.41026    0.00088     0.41114
      H   30    0.12173      0.00000     0.37729    0.00098     0.37827
      H   31    0.10192      0.00000     0.39726    0.00082     0.39808
      H   32    0.10213      0.00000     0.39704    0.00082     0.39787
      H   33    0.09811      0.00000     0.40106    0.00083     0.40189
 =======================================================================
   * Total *    0.00000     18.99404    41.82279    0.18317    61.00000

 Normal termination of Gaussian 16 at Thu Dec 10 17:31:14 2020.
