 Gaussian 16, Revision A.03,

 -----------------------------------------------------------
 # opt freq B3LYP/6-31G(d) empiricaldispersion=gd3bj scf=xqc
 -----------------------------------------------------------

 -------------------------------
 CID_150085776_JID_1707_neutraal
 -------------------------------
 Symbolic Z-matrix:
 Charge =  0 Multiplicity = 1

 SCF Done:  E(RB3LYP) =  -549.853448339     A.U. after   15 cycles
 SCF Done:  E(RB3LYP) =  -549.858544332     A.U. after   14 cycles
 SCF Done:  E(RB3LYP) =  -549.859495482     A.U. after   13 cycles
 SCF Done:  E(RB3LYP) =  -549.860291395     A.U. after   13 cycles
 SCF Done:  E(RB3LYP) =  -549.860498252     A.U. after   13 cycles
 SCF Done:  E(RB3LYP) =  -549.860870214     A.U. after   13 cycles
 SCF Done:  E(RB3LYP) =  -549.861046601     A.U. after   12 cycles
 SCF Done:  E(RB3LYP) =  -549.861261087     A.U. after   12 cycles
 SCF Done:  E(RB3LYP) =  -549.861304064     A.U. after   11 cycles
 SCF Done:  E(RB3LYP) =  -549.861319178     A.U. after   12 cycles
 SCF Done:  E(RB3LYP) =  -549.866290583     A.U. after    9 cycles
 SCF Done:  E(RB3LYP) =  -549.866293663     A.U. after    9 cycles
 SCF Done:  E(RB3LYP) =  -549.866296773     A.U. after    9 cycles
 SCF Done:  E(RB3LYP) =  -549.866297378     A.U. after    8 cycles
 SCF Done:  E(RB3LYP) =  -549.866297572     A.U. after    7 cycles
 Optimization completed.
    -- Stationary point found.
 Normal termination of Gaussian 16 at Tue Dec  8 20:56:26 2020.

 --------------------------------------------------------------------
 #N Geom=AllCheck Guess=TCheck SCRF=Check GenChk RB3LYP/6-31G(d) Freq
 --------------------------------------------------------------------

 Structure from the checkpoint file:  "JID_1707.chk"
 -------------------------------
 CID_150085776_JID_1707_neutraal
 -------------------------------
 Charge =  0 Multiplicity = 1

 SCF Done:  E(RB3LYP) =  -549.866297572     A.U. after    1 cycles

  Exact polarizability:  82.658  -2.412  99.404   0.478   5.600  74.604
 Approx polarizability: 104.117  -9.098 182.084   0.643  19.784 108.181

                      1                      2                      3
                      A                      A                      A
 Frequencies --     27.7250                49.9415                72.2285
 Red. masses --      2.9557                 6.0001                 4.9007
 Frc consts  --      0.0013                 0.0088                 0.0151
 IR Inten    --      0.2519                 0.8084                 0.0678

                      4                      5                      6
                      A                      A                      A
 Frequencies --     97.3229               144.8552               175.5901
 Red. masses --      3.6601                 2.8009                 4.3407
 Frc consts  --      0.0204                 0.0346                 0.0789
 IR Inten    --      0.7213                 6.6202                 0.7777

                      7                      8                      9
                      A                      A                      A
 Frequencies --    198.2053               224.1245               271.4614
 Red. masses --      1.2492                 4.3896                 3.5432
 Frc consts  --      0.0289                 0.1299                 0.1538
 IR Inten    --      2.7877                 3.8840                 0.5691

                     10                     11                     12
                      A                      A                      A
 Frequencies --    292.3821               359.9078               402.4378
 Red. masses --      3.3460                 3.2861                 3.1547
 Frc consts  --      0.1685                 0.2508                 0.3010
 IR Inten    --      3.0571                 6.3597                 5.2404

                     13                     14                     15
                      A                      A                      A
 Frequencies --    430.5391               571.7966               586.9579
 Red. masses --      2.8073                12.9472                 4.1485
 Frc consts  --      0.3066                 2.4941                 0.8421
 IR Inten    --      2.6180                11.6901                19.9301

                     16                     17                     18
                      A                      A                      A
 Frequencies --    647.4583               727.0714               773.9276
 Red. masses --      4.9580                 2.5753                 1.3345
 Frc consts  --      1.2246                 0.8021                 0.4709
 IR Inten    --      4.9472                 3.0401                 4.6593

                     19                     20                     21
                      A                      A                      A
 Frequencies --    826.2448               836.9609               866.1482
 Red. masses --      1.7110                 2.2719                 3.2990
 Frc consts  --      0.6882                 0.9377                 1.4582
 IR Inten    --      1.8599                23.2352                25.5573

                     22                     23                     24
                      A                      A                      A
 Frequencies --    909.0999               972.1899               989.6828
 Red. masses --      3.0802                 3.3180                 2.7917
 Frc consts  --      1.4998                 1.8477                 1.6110
 IR Inten    --     44.5370                 7.0318                 5.6618

                     25                     26                     27
                      A                      A                      A
 Frequencies --   1024.4517              1036.9128              1066.2107
 Red. masses --      2.2560                 2.7190                 1.5286
 Frc consts  --      1.3950                 1.7225                 1.0238
 IR Inten    --     61.5970                17.3580                 9.2411

                     28                     29                     30
                      A                      A                      A
 Frequencies --   1077.9323              1109.2552              1128.4238
 Red. masses --      1.4444                 3.2915                 1.2562
 Frc consts  --      0.9888                 2.3862                 0.9425
 IR Inten    --      3.3553               116.5563                19.3341

                     31                     32                     33
                      A                      A                      A
 Frequencies --   1171.0441              1188.6597              1203.8316
 Red. masses --      3.7786                 1.3119                 1.3676
 Frc consts  --      3.0530                 1.0921                 1.1678
 IR Inten    --    124.2244                 7.2053                 1.6634

                     34                     35                     36
                      A                      A                      A
 Frequencies --   1210.6720              1231.7558              1255.7743
 Red. masses --      2.1626                 1.5063                 1.9619
 Frc consts  --      1.8676                 1.3465                 1.8228
 IR Inten    --     57.4974                16.1639                29.2121

                     37                     38                     39
                      A                      A                      A
 Frequencies --   1292.4620              1351.1419              1365.7926
 Red. masses --      1.4058                 3.4915                 1.4429
 Frc consts  --      1.3836                 3.7555                 1.5858
 IR Inten    --     25.7486               123.3997                76.0351

                     40                     41                     42
                      A                      A                      A
 Frequencies --   1395.8634              1417.0447              1440.0171
 Red. masses --      1.4120                 1.2881                 1.2479
 Frc consts  --      1.6210                 1.5239                 1.5246
 IR Inten    --     17.8316                21.2638                11.4215

                     43                     44                     45
                      A                      A                      A
 Frequencies --   1482.5358              1499.6996              1508.5351
 Red. masses --      1.0921                 1.1533                 1.0872
 Frc consts  --      1.4143                 1.5283                 1.4577
 IR Inten    --      1.6690                 1.1869                 4.7573

                     46                     47                     48
                      A                      A                      A
 Frequencies --   1520.9530              1529.3589              1537.6761
 Red. masses --      1.0744                 1.3477                 1.0849
 Frc consts  --      1.4643                 1.8572                 1.5113
 IR Inten    --      7.0863                25.4340                 6.3366

                     49                     50                     51
                      A                      A                      A
 Frequencies --   2270.9365              3030.6450              3049.9933
 Red. masses --     13.6360                 1.0827                 1.0320
 Frc consts  --     41.4332                 5.8591                 5.6565
 IR Inten    --    425.4279                29.4260                42.7598

                     52                     53                     54
                      A                      A                      A
 Frequencies --   3055.0276              3116.0641              3122.4066
 Red. masses --      1.0699                 1.1058                 1.0879
 Frc consts  --      5.8832                 6.3264                 6.2492
 IR Inten    --     44.9916                34.4984                33.3862

                     55                     56                     57
                      A                      A                      A
 Frequencies --   3145.7756              3148.5067              3156.5845
 Red. masses --      1.1052                 1.0972                 1.0530
 Frc consts  --      6.4440                 6.4083                 6.1819
 IR Inten    --     34.3514                12.2418                11.6007

                     58                     59                     60
                      A                      A                      A
 Frequencies --   3162.3171              3237.6337              3253.1674
 Red. masses --      1.0600                 1.1191                 1.1149
 Frc consts  --      6.2455                 6.9117                 6.9516
 IR Inten    --      7.7226                 1.9766                14.3113

 - Thermochemistry -
 -------------------
 Temperature   298.150 Kelvin.  Pressure   1.00000 Atm.
 Atom     1 has atomic number  6 and mass  12.00000

 Molecular mass:   157.08513 amu.
 Principal axes and moments of inertia in atomic units:
                           1         2         3
     Eigenvalues --  1241.715261997.889222637.07998
           X            0.99789  -0.06390  -0.01149
           Y            0.06356   0.99759  -0.02782
           Z            0.01324   0.02703   0.99955
 This molecule is an asymmetric top.
 Rotational symmetry number  1.
 Warning -- assumption of classical behavior for rotation
           may cause significant error
 Rotational temperatures (Kelvin)      0.06975     0.04335     0.03284
 Rotational constants (GHZ):           1.45343     0.90332     0.68437
 Zero-point vibrational energy     474016.2 (Joules/Mol)
                                  113.29259 (Kcal/Mol)
 Warning -- explicit consideration of  15 degrees of freedom as
           vibrations may cause significant error
 Vibrational temperatures:     39.89    71.85   103.92   140.03   208.41
          (Kelvin)            252.64   285.17   322.47   390.57   420.67
                              517.83   579.02   619.45   822.69   844.50
                              931.55  1046.09  1113.51  1188.78  1204.20
                             1246.19  1307.99  1398.76  1423.93  1473.96
                             1491.89  1534.04  1550.90  1595.97  1623.55
                             1684.87  1710.22  1732.05  1741.89  1772.22
                             1806.78  1859.56  1943.99  1965.07  2008.34
                             2038.81  2071.86  2133.04  2157.73  2170.45
                             2188.31  2200.41  2212.37  3267.37  4360.42
                             4388.26  4395.50  4483.32  4492.45  4526.07
                             4530.00  4541.62  4549.87  4658.23  4680.58

 Zero-point correction=                           0.180543 (Hartree/Particle)
 Thermal correction to Energy=                    0.192130
 Thermal correction to Enthalpy=                  0.193074
 Thermal correction to Gibbs Free Energy=         0.141540
 Sum of electronic and zero-point Energies=           -549.685754
 Sum of electronic and thermal Energies=              -549.674168
 Sum of electronic and thermal Enthalpies=            -549.673224
 Sum of electronic and thermal Free Energies=         -549.724758

                     E (Thermal)             CV                S
                      KCal/Mol        Cal/Mol-Kelvin    Cal/Mol-Kelvin
 Total                  120.563             40.849            108.462
 Electronic               0.000              0.000              0.000
 Translational            0.889              2.981             41.064
 Rotational               0.889              2.981             30.260
 Vibrational            118.786             34.888             37.138
 Vibration     1          0.593              1.984              5.986
 Vibration     2          0.595              1.978              4.820
 Vibration     3          0.598              1.967              4.092
 Vibration     4          0.603              1.951              3.507
 Vibration     5          0.616              1.908              2.739
 Vibration     6          0.628              1.872              2.375
 Vibration     7          0.637              1.842              2.150
 Vibration     8          0.649              1.804              1.926
 Vibration     9          0.675              1.726              1.587
 Vibration    10          0.688              1.688              1.460
 Vibration    11          0.734              1.555              1.123
 Vibration    12          0.768              1.465              0.954
 Vibration    13          0.792              1.404              0.857
 Vibration    14          0.928              1.092              0.501
 Vibration    15          0.944              1.060              0.473

 Optimization completed.
    -- Stationary point found.
 Normal termination of Gaussian 16 at Tue Dec  8 21:00:57 2020.

 ----------------------------------------------------------------------
 # B3LYP/6-311++G(d,p) empiricaldispersion=gd3bj scf=xqc pop=npa geom=c
 heck
 ----------------------------------------------------------------------

 ---------------------------------------
 CID_150085776_JID_1707_Energie_neutraal
 ---------------------------------------
 Structure from the checkpoint file:  "JID_1707.chk"
 Charge =  0 Multiplicity = 1

 SCF Done:  E(RB3LYP) =  -550.025091554     A.U. after   14 cycles
 Normal termination of Gaussian 16 at Tue Dec  8 21:02:46 2020.

 ----------------------------------------------------------------------
 # B3LYP/6-311++G(d,p) empiricaldispersion=gd3bj scf=xqc pop=npa geom=c
 heck
 ----------------------------------------------------------------------

 -------------------------------------
 CID_150085776_JID_1707_Energie_kation
 -------------------------------------
 Structure from the checkpoint file:  "JID_1707.chk"
 Charge =  1 Multiplicity = 2

 SCF Done:  E(UB3LYP) =  -549.698129211     A.U. after   25 cycles
 Normal termination of Gaussian 16 at Tue Dec  8 21:06:27 2020.
 Gaussian 16:  ES64L-G16RevA.03 25-Dec-2016

 ----------------------------------------------------------------------
 # B3LYP/6-311++G(d,p) empiricaldispersion=gd3bj scf=xqc pop=npa geom=c
 heck
 ----------------------------------------------------------------------

 ------------------------------------
 CID_150085776_JID_1707_Energie_anion
 ------------------------------------
 Structure from the checkpoint file:  "JID_1707.chk"
 Charge = -1 Multiplicity = 2

                         Standard orientation:
 ---------------------------------------------------------------------
 Center     Atomic      Atomic             Coordinates (Angstroms)
 Number     Number       Type             X           Y           Z
 ---------------------------------------------------------------------
      1          6           0       -0.241051    1.824822   -1.333229
      2          8           0        0.189837    1.928104    0.022466
      3          6           0       -0.137749    0.860973    0.867884
      4          6           0       -1.643375    0.601409    1.042077
      5          7           0       -2.298689   -0.025954   -0.117155
      6          7           0       -2.042382   -1.219807   -0.316191
      7          7           0       -1.919994   -2.312813   -0.618563
      8          8           0        0.421900   -0.371706    0.473454
      9          6           0        1.810937   -0.481903    0.663783
     10          6           0        2.506158   -1.484931   -0.198278
     11          6           0        2.755709   -0.003656   -0.402425
     12          1           0       -1.320925    1.982619   -1.430075
     13          1           0        0.010213    0.848005   -1.759813
     14          1           0        0.292450    2.608354   -1.876638
     15          1           0        0.268713    1.167684    1.842271
     16          1           0       -1.783850   -0.010013    1.942607
     17          1           0       -2.149663    1.557065    1.189658
     18          1           0        2.111479   -0.382777    1.707748
     19          1           0        3.284702   -2.099031    0.244471
     20          1           0        1.887498   -1.992052   -0.932588
     21          1           0        2.321459    0.461881   -1.279826
     22          1           0        3.707723    0.416814   -0.090693
 ---------------------------------------------------------------------

 SCF Done:  E(UB3LYP) =  -550.010699372     A.U. after   33 cycles
 SCF Done:  E(UB3LYP) =  -550.010699372     a.u. after    1 cycles

 The electronic state is 2-A.
 Alpha  occ. eigenvalues --  -19.03095 -19.02294 -14.34390 -14.24450 -14.23224
 Alpha  occ. eigenvalues --  -10.16441 -10.12243 -10.10126 -10.09961 -10.07134
 Alpha  occ. eigenvalues --  -10.06876  -1.00926  -0.97205  -0.91232  -0.85152
 Alpha  occ. eigenvalues --   -0.75217  -0.65961  -0.60093  -0.53366  -0.50465
 Alpha  occ. eigenvalues --   -0.48500  -0.42979  -0.42809  -0.40575  -0.39146
 Alpha  occ. eigenvalues --   -0.38245  -0.36731  -0.35334  -0.33845  -0.32849
 Alpha  occ. eigenvalues --   -0.30910  -0.29705  -0.29569  -0.27602  -0.26768
 Alpha  occ. eigenvalues --   -0.23159  -0.21988  -0.19424  -0.17923  -0.17484
 Alpha  occ. eigenvalues --   -0.15997  -0.12711   0.05030
 Alpha virt. eigenvalues --    0.07039   0.07786   0.08350   0.09315   0.10045
 Alpha virt. eigenvalues --    0.10282   0.11225   0.11474   0.12771   0.13116
 Alpha virt. eigenvalues --    0.13551   0.14776   0.15015   0.16557   0.16641

  Beta  occ. eigenvalues --  -19.03083 -19.02293 -14.34218 -14.24204 -14.23268
  Beta  occ. eigenvalues --  -10.16422 -10.12224 -10.10095 -10.09879 -10.07126
  Beta  occ. eigenvalues --  -10.06858  -1.00588  -0.97179  -0.91218  -0.84978
  Beta  occ. eigenvalues --   -0.75183  -0.65856  -0.59997  -0.53295  -0.50425
  Beta  occ. eigenvalues --   -0.48421  -0.42904  -0.42744  -0.40494  -0.38748
  Beta  occ. eigenvalues --   -0.37902  -0.36599  -0.35223  -0.33778  -0.32412
  Beta  occ. eigenvalues --   -0.30834  -0.29539  -0.29405  -0.27512  -0.26741
  Beta  occ. eigenvalues --   -0.23126  -0.21950  -0.19388  -0.17558  -0.17429
  Beta  occ. eigenvalues --   -0.15969  -0.12638
  Beta virt. eigenvalues --    0.07573   0.08197   0.08740   0.09425   0.09964
  Beta virt. eigenvalues --    0.10742   0.10987   0.11762   0.11904   0.13111
  Beta virt. eigenvalues --    0.13507   0.13766   0.14973   0.15129   0.16544

 Mulliken charges and spin densities:
               1          2
     1  C    0.328367  -0.718552
     2  O   -0.141908   0.064438
     3  C   -0.375728   0.145818
     4  C    1.318705  -1.803111
     5  N   -0.674559   0.686652
     6  N    0.404599  -0.103079
     7  N   -0.061490  -0.190218
     8  O   -0.051530   0.011293
     9  C   -0.414723   0.355155
    10  C    0.384892  -0.712281
    11  C    0.245483  -0.504275
    12  H   -0.153678   0.320837
    13  H    0.131927   0.026935
    14  H   -0.250951   0.399374
    15  H   -0.357537   0.521360
    16  H   -0.517706   0.719573
    17  H   -0.396167   0.614478
    18  H   -0.445268   0.631061
    19  H    0.043676   0.089455
    20  H    0.098128   0.037531
    21  H    0.207946  -0.057691
    22  H   -0.322478   0.465248
 Sum of Mulliken charges =  -1.00000   1.00000

 Dipole moment (field-independent basis, Debye):
    X=              0.7777    Y=             -1.6202    Z=             -3.1755  Tot=              3.6488
 Quadrupole moment (field-independent basis, Debye-Ang):
   XX=           -114.5018   YY=           -103.8107   ZZ=            -98.9452
   XY=             -1.1260   XZ=             -2.3614   YZ=             -2.1306

 Summary of Natural Population Analysis:

                                       Natural Population
                Natural  -----------------------------------------------
    Atom  No    Charge         Core      Valence    Rydberg      Total
 -----------------------------------------------------------------------
      C    1   -0.10594      0.99959     2.09681    0.00954     3.10594
      O    2   -0.30156      0.99988     3.29163    0.01004     4.30156
      C    3    0.21693      0.99956     1.76249    0.02102     2.78307
      C    4   -0.10733      0.99956     2.09506    0.01271     3.10733
      N    5   -0.20535      0.99970     2.69093    0.01472     3.70535
      N    6    0.13558      0.99970     2.34915    0.01558     3.36442
      N    7   -0.02720      0.99982     2.51399    0.01340     3.52720
      O    8   -0.30580      0.99987     3.29502    0.01091     4.30580
      C    9    0.05804      0.99949     1.92773    0.01474     2.94196
      C   10   -0.20679      0.99962     2.19910    0.00807     3.20679
      C   11   -0.20967      0.99962     2.20004    0.01002     3.20967
      H   12    0.08926      0.00000     0.40922    0.00151     0.41074
      H   13    0.08403      0.00000     0.41441    0.00156     0.41597
      H   14    0.08700      0.00000     0.41185    0.00115     0.41300
      H   15    0.08409      0.00000     0.41309    0.00281     0.41591
      H   16    0.09925      0.00000     0.39809    0.00266     0.40075
      H   17    0.10535      0.00000     0.39208    0.00256     0.39465
      H   18    0.09102      0.00000     0.40672    0.00225     0.40898
      H   19    0.10186      0.00000     0.39721    0.00094     0.39814
      H   20    0.10761      0.00000     0.39128    0.00111     0.39239
      H   21    0.10600      0.00000     0.39295    0.00105     0.39400
      H   22    0.10363      0.00000     0.39470    0.00167     0.39637
 =======================================================================
   * Total *   -0.00000     10.99640    30.84355    0.16004    42.00000

 Normal termination of Gaussian 16 at Tue Dec  8 21:11:39 2020.
