 Gaussian 16, Revision A.03,

 -----------------------------------------------------------
 # opt freq B3LYP/6-31G(d) empiricaldispersion=gd3bj scf=xqc
 -----------------------------------------------------------

 ------------------------------
 CID_87830970_JID_3776_neutraal
 ------------------------------
 Symbolic Z-matrix:
 Charge =  0 Multiplicity = 1

 SCF Done:  E(RB3LYP) =  -869.971366270     A.U. after   13 cycles
 SCF Done:  E(RB3LYP) =  -869.973000508     A.U. after   11 cycles
 SCF Done:  E(RB3LYP) =  -869.973104679     A.U. after   10 cycles
 SCF Done:  E(RB3LYP) =  -869.973122696     A.U. after   10 cycles
 SCF Done:  E(RB3LYP) =  -869.973129517     A.U. after    9 cycles
 SCF Done:  E(RB3LYP) =  -869.973129850     A.U. after    7 cycles
 SCF Done:  E(RB3LYP) =  -869.973129859     A.U. after    7 cycles
 SCF Done:  E(RB3LYP) =  -869.973129863     A.U. after    6 cycles
 Optimization completed.
    -- Stationary point found.
 Normal termination of Gaussian 16 at Sun Dec 13 12:19:09 2020.

 --------------------------------------------------------------------
 #N Geom=AllCheck Guess=TCheck SCRF=Check GenChk RB3LYP/6-31G(d) Freq
 --------------------------------------------------------------------

 Structure from the checkpoint file:  "JID_3776.chk"
 ------------------------------
 CID_87830970_JID_3776_neutraal
 ------------------------------
 Charge =  0 Multiplicity = 1

 SCF Done:  E(RB3LYP) =  -869.973129863     A.U. after    1 cycles

  Exact polarizability: 196.228   4.669 126.110   2.341  -1.260 111.057
 Approx polarizability: 228.110   3.096 191.277   3.398  -4.586 168.334

                      1                      2                      3
                      A                      A                      A
 Frequencies --     24.2130                26.6214                48.9854
 Red. masses --      4.4424                 4.4615                 3.5611
 Frc consts  --      0.0015                 0.0019                 0.0050
 IR Inten    --      0.1568                 0.2674                 0.2552

                      4                      5                      6
                      A                      A                      A
 Frequencies --     57.0514                59.6390                80.6282
 Red. masses --      3.3990                 3.5786                 2.8824
 Frc consts  --      0.0065                 0.0075                 0.0110
 IR Inten    --      0.0485                 0.5289                 0.6576

                      7                      8                      9
                      A                      A                      A
 Frequencies --    107.3677               131.9007               170.5451
 Red. masses --      3.0227                 2.1060                 2.0474
 Frc consts  --      0.0205                 0.0216                 0.0351
 IR Inten    --      0.1482                 1.0315                 0.4669

                     10                     11                     12
                      A                      A                      A
 Frequencies --    197.6325               212.3132               228.1809
 Red. masses --      1.9166                 1.4172                 1.6834
 Frc consts  --      0.0441                 0.0376                 0.0516
 IR Inten    --      8.3760                 0.8792                 6.5333

                     13                     14                     15
                      A                      A                      A
 Frequencies --    256.0195               288.2500               314.8764
 Red. masses --      1.9709                 2.2702                 2.2740
 Frc consts  --      0.0761                 0.1111                 0.1328
 IR Inten    --      3.2346                 1.8733                 1.4054

                     16                     17                     18
                      A                      A                      A
 Frequencies --    321.5414               354.5786               386.3077
 Red. masses --      1.9355                 2.1697                 1.8778
 Frc consts  --      0.1179                 0.1607                 0.1651
 IR Inten    --      0.6543                 0.4511                 0.2528

                     19                     20                     21
                      A                      A                      A
 Frequencies --    418.7438               461.9147               494.9544
 Red. masses --      1.8375                 1.9685                 2.3005
 Frc consts  --      0.1898                 0.2475                 0.3321
 IR Inten    --      0.1543                 0.6003                 0.1052

                     22                     23                     24
                      A                      A                      A
 Frequencies --    525.8945               569.3338               651.2446
 Red. masses --      2.2745                 2.6803                 3.7289
 Frc consts  --      0.3706                 0.5119                 0.9318
 IR Inten    --      0.1784                 0.2530                 2.0703

                     25                     26                     27
                      A                      A                      A
 Frequencies --    706.3857               712.9253               745.0223
 Red. masses --      1.2428                 1.3531                 1.5115
 Frc consts  --      0.3654                 0.4052                 0.4943
 IR Inten    --     34.5895                 1.7388                 1.2132

                     28                     29                     30
                      A                      A                      A
 Frequencies --    790.4463               799.2009               816.2260
 Red. masses --      1.6743                 1.5952                 2.3830
 Frc consts  --      0.6163                 0.6003                 0.9354
 IR Inten    --      1.0328                 3.2326                 0.2571

                     31                     32                     33
                      A                      A                      A
 Frequencies --    857.6838               873.0841               910.7704
 Red. masses --      1.6994                 2.1576                 1.7139
 Frc consts  --      0.7365                 0.9690                 0.8376
 IR Inten    --      2.1110                 1.5899                 0.9369

                     34                     35                     36
                      A                      A                      A
 Frequencies --    940.5422               950.6077               986.2453
 Red. masses --      1.8958                 1.6386                 1.5430
 Frc consts  --      0.9881                 0.8724                 0.8843
 IR Inten    --      3.7324                 8.8429                 0.5008

                     37                     38                     39
                      A                      A                      A
 Frequencies --    990.7553              1007.6921              1015.4783
 Red. masses --      1.5288                 1.8824                 1.0917
 Frc consts  --      0.8842                 1.1262                 0.6633
 IR Inten    --      0.0708                 2.4403                21.5906

                     40                     41                     42
                      A                      A                      A
 Frequencies --   1034.7859              1044.2120              1069.2952
 Red. masses --      1.5608                 1.5850                 1.7769
 Frc consts  --      0.9847                 1.0182                 1.1971
 IR Inten    --      4.7235                 3.8585                 0.1467

                     43                     44                     45
                      A                      A                      A
 Frequencies --   1079.3102              1100.6660              1106.2074
 Red. masses --      1.5227                 1.9976                 2.0701
 Frc consts  --      1.0451                 1.4258                 1.4925
 IR Inten    --      0.1892                 2.5067                 0.4195

                     46                     47                     48
                      A                      A                      A
 Frequencies --   1124.5005              1126.8370              1146.7738
 Red. masses --      2.0798                 2.2023                 1.6996
 Frc consts  --      1.5495                 1.6476                 1.3169
 IR Inten    --      2.3477                 0.1649                 1.2489

                     49                     50                     51
                      A                      A                      A
 Frequencies --   1167.1158              1187.4816              1216.8377
 Red. masses --      1.2411                 1.4507                 1.3174
 Frc consts  --      0.9961                 1.2053                 1.1493
 IR Inten    --      2.5732                 0.3329                 1.5998

                     52                     53                     54
                      A                      A                      A
 Frequencies --   1234.9931              1253.1305              1279.6399
 Red. masses --      1.2784                 1.2158                 1.2684
 Frc consts  --      1.1488                 1.1249                 1.2237
 IR Inten    --      1.5061                 2.4418                 2.2677

                     55                     56                     57
                      A                      A                      A
 Frequencies --   1310.2160              1328.8576              1338.3237
 Red. masses --      1.2184                 1.2084                 1.2246
 Frc consts  --      1.2323                 1.2572                 1.2923
 IR Inten    --      2.2392                15.8151                 3.5367

                     58                     59                     60
                      A                      A                      A
 Frequencies --   1344.0865              1353.7354              1360.8653
 Red. masses --      1.1991                 1.2142                 1.1078
 Frc consts  --      1.2763                 1.3110                 1.2088
 IR Inten    --     11.6649                 9.9755                 0.5172

                     61                     62                     63
                      A                      A                      A
 Frequencies --   1373.7663              1381.3532              1392.4667
 Red. masses --      1.5564                 1.3343                 1.4998
 Frc consts  --      1.7305                 1.5001                 1.7134
 IR Inten    --      2.1680                16.8242                 1.3204

                     64                     65                     66
                      A                      A                      A
 Frequencies --   1400.2159              1413.9628              1417.0056
 Red. masses --      1.3714                 1.4448                 1.3956
 Frc consts  --      1.5842                 1.7019                 1.6511
 IR Inten    --      0.5628                 1.6684                 0.9863

                     67                     68                     69
                      A                      A                      A
 Frequencies --   1428.3248              1428.8855              1442.7511
 Red. masses --      1.4480                 1.4250                 1.2659
 Frc consts  --      1.7405                 1.7141                 1.5525
 IR Inten    --      2.2086                 2.1390                 2.7538

                     70                     71                     72
                      A                      A                      A
 Frequencies --   1497.9811              1505.8442              1509.9906
 Red. masses --      1.0818                 1.0890                 1.0454
 Frc consts  --      1.4303                 1.4549                 1.4044
 IR Inten    --      3.8980                 4.5324                 5.7216

                     73                     74                     75
                      A                      A                      A
 Frequencies --   1510.6856              1517.0672              1520.5756
 Red. masses --      1.0929                 1.0875                 1.0800
 Frc consts  --      1.4695                 1.4746                 1.4712
 IR Inten    --      1.4588                 7.8793                13.1927

                     76                     77                     78
                      A                      A                      A
 Frequencies --   1523.4994              1527.9706              1533.1396
 Red. masses --      1.0563                 1.1003                 1.0761
 Frc consts  --      1.4445                 1.5135                 1.4903
 IR Inten    --      9.7893                 3.2015                 6.8265

                     79                     80                     81
                      A                      A                      A
 Frequencies --   1536.5849              1544.3665              1761.7645
 Red. masses --      1.0735                 1.1001                 5.8133
 Frc consts  --      1.4934                 1.5459                10.6309
 IR Inten    --      4.3531                 0.4513                 1.8519

                     82                     83                     84
                      A                      A                      A
 Frequencies --   2681.9231              3025.8620              3030.0967
 Red. masses --      1.0385                 1.0641                 1.0383
 Frc consts  --      4.4009                 5.7404                 5.6169
 IR Inten    --     21.3111                37.7379                47.1087

                     85                     86                     87
                      A                      A                      A
 Frequencies --   3030.6897              3032.0480              3035.2467
 Red. masses --      1.0633                 1.0658                 1.0632
 Frc consts  --      5.7542                 5.7730                 5.7710
 IR Inten    --     10.7406                43.5881                10.9284

                     88                     89                     90
                      A                      A                      A
 Frequencies --   3036.6816              3039.0637              3046.6210
 Red. masses --      1.0619                 1.0633                 1.0629
 Frc consts  --      5.7695                 5.7859                 5.8125
 IR Inten    --      3.7987                23.7644                 5.1584

                     91                     92                     93
                      A                      A                      A
 Frequencies --   3050.6430              3060.3733              3065.1593
 Red. masses --      1.0650                 1.0988                 1.0976
 Frc consts  --      5.8394                 6.0632                 6.0757
 IR Inten    --      4.1991                 3.0211                 2.7388

                     94                     95                     96
                      A                      A                      A
 Frequencies --   3069.0759              3075.6072              3075.8725
 Red. masses --      1.0947                 1.0975                 1.1000
 Frc consts  --      6.0751                 6.1166                 6.1315
 IR Inten    --     41.8711               124.4309                41.0893

                     97                     98                     99
                      A                      A                      A
 Frequencies --   3078.9086              3079.3223              3083.1249
 Red. masses --      1.1003                 1.0763                 1.0979
 Frc consts  --      6.1453                 6.0131                 6.1486
 IR Inten    --    149.6427                13.6153                77.6576

                    100                    101                    102
                      A                      A                      A
 Frequencies --   3085.3426              3089.5859              3112.3992
 Red. masses --      1.0978                 1.0903                 1.0979
 Frc consts  --      6.1570                 6.1321                 6.2663
 IR Inten    --     19.0518                37.4516                 8.1308

                    103                    104                    105
                      A                      A                      A
 Frequencies --   3129.1792              3133.3197              3140.4346
 Red. masses --      1.1064                 1.0920                 1.0867
 Frc consts  --      6.3832                 6.3163                 6.3146
 IR Inten    --     21.2317                 3.0396                65.3917

 - Thermochemistry -
 -------------------
 Temperature   298.150 Kelvin.  Pressure   1.00000 Atm.
 Atom     1 has atomic number  6 and mass  12.00000

 Molecular mass:   200.15987 amu.
 Principal axes and moments of inertia in atomic units:
                           1         2         3
     Eigenvalues --   730.42684********************
           X            1.00000   0.00010   0.00034
           Y           -0.00010   0.99998  -0.00611
           Z           -0.00034   0.00611   0.99998
 This molecule is an asymmetric top.
 Rotational symmetry number  1.
 Warning -- assumption of classical behavior for rotation
           may cause significant error
 Rotational temperatures (Kelvin)      0.11858     0.00804     0.00793
 Rotational constants (GHZ):           2.47080     0.16749     0.16523
 Zero-point vibrational energy     892141.8 (Joules/Mol)
                                  213.22700 (Kcal/Mol)
 Warning -- explicit consideration of  23 degrees of freedom as
           vibrations may cause significant error
 Vibrational temperatures:     34.84    38.30    70.48    82.08    85.81
          (Kelvin)            116.01   154.48   189.78   245.38   284.35
                              305.47   328.30   368.35   414.73   453.04
                              462.63   510.16   555.81   602.48   664.59
                              712.13   756.64   819.14   937.00  1016.33
                             1025.74  1071.92  1137.28  1149.87  1174.37
                             1234.02  1256.17  1310.40  1353.23  1367.71
                             1418.99  1425.48  1449.84  1461.05  1488.83
                             1502.39  1538.48  1552.89  1583.61  1591.59
                             1617.91  1621.27  1649.95  1679.22  1708.52
                             1750.76  1776.88  1802.98  1841.12  1885.11
                             1911.93  1925.55  1933.84  1947.72  1957.98
                             1976.54  1987.46  2003.45  2014.60  2034.38
                             2038.76  2055.04  2055.85  2075.80  2155.26
                             2166.57  2172.54  2173.54  2182.72  2187.77
                             2191.98  2198.41  2205.85  2210.80  2222.00
                             2534.79  3858.69  4353.54  4359.63  4360.49
                             4362.44  4367.04  4369.11  4372.53  4383.41
                             4389.19  4403.19  4410.08  4415.72  4425.11
                             4425.49  4429.86  4430.46  4435.93  4439.12
                             4445.22  4478.05  4502.19  4508.15  4518.38

 Zero-point correction=                           0.339799 (Hartree/Particle)
 Thermal correction to Energy=                    0.356418
 Thermal correction to Enthalpy=                  0.357362
 Thermal correction to Gibbs Free Energy=         0.293243
 Sum of electronic and zero-point Energies=           -869.633331
 Sum of electronic and thermal Energies=              -869.616712
 Sum of electronic and thermal Enthalpies=            -869.615768
 Sum of electronic and thermal Free Energies=         -869.679887

                     E (Thermal)             CV                S
                      KCal/Mol        Cal/Mol-Kelvin    Cal/Mol-Kelvin
 Total                  223.655             60.591            134.950
 Electronic               0.000              0.000              0.000
 Translational            0.889              2.981             41.787
 Rotational               0.889              2.981             32.819
 Vibrational            221.878             54.629             60.345
 Vibration     1          0.593              1.985              6.255
 Vibration     2          0.593              1.984              6.066
 Vibration     3          0.595              1.978              4.858
 Vibration     4          0.596              1.975              4.557
 Vibration     5          0.597              1.974              4.469
 Vibration     6          0.600              1.962              3.876
 Vibration     7          0.606              1.943              3.316
 Vibration     8          0.612              1.921              2.918
 Vibration     9          0.626              1.879              2.429
 Vibration    10          0.637              1.843              2.155
 Vibration    11          0.643              1.822              2.024
 Vibration    12          0.651              1.798              1.893
 Vibration    13          0.666              1.753              1.689
 Vibration    14          0.685              1.696              1.484
 Vibration    15          0.702              1.645              1.337
 Vibration    16          0.707              1.632              1.302
 Vibration    17          0.730              1.566              1.146
 Vibration    18          0.755              1.499              1.014
 Vibration    19          0.782              1.430              0.896
 Vibration    20          0.820              1.335              0.761
 Vibration    21          0.851              1.261              0.671
 Vibration    22          0.881              1.193              0.596
 Vibration    23          0.925              1.098              0.506

 Optimization completed.
    -- Stationary point found.
 Normal termination of Gaussian 16 at Sun Dec 13 12:27:59 2020.

 ----------------------------------------------------------------------
 # B3LYP/6-311++G(d,p) empiricaldispersion=gd3bj scf=xqc pop=npa geom=c
 heck
 ----------------------------------------------------------------------

 --------------------------------------
 CID_87830970_JID_3776_Energie_neutraal
 --------------------------------------
 Structure from the checkpoint file:  "JID_3776.chk"
 Charge =  0 Multiplicity = 1

 SCF Done:  E(RB3LYP) =  -870.135911126     A.U. after   14 cycles
 Normal termination of Gaussian 16 at Sun Dec 13 12:32:20 2020.

 ----------------------------------------------------------------------
 # B3LYP/6-311++G(d,p) empiricaldispersion=gd3bj scf=xqc pop=npa geom=c
 heck
 ----------------------------------------------------------------------

 ------------------------------------
 CID_87830970_JID_3776_Energie_kation
 ------------------------------------
 Structure from the checkpoint file:  "JID_3776.chk"
 Charge =  1 Multiplicity = 2

 SCF Done:  E(UB3LYP) =  -869.835786612     A.U. after   29 cycles
 Normal termination of Gaussian 16 at Sun Dec 13 12:44:13 2020.
 Gaussian 16:  ES64L-G16RevA.03 25-Dec-2016

 ----------------------------------------------------------------------
 # B3LYP/6-311++G(d,p) empiricaldispersion=gd3bj scf=xqc pop=npa geom=c
 heck
 ----------------------------------------------------------------------

 -----------------------------------
 CID_87830970_JID_3776_Energie_anion
 -----------------------------------
 Structure from the checkpoint file:  "JID_3776.chk"
 Charge = -1 Multiplicity = 2

                         Standard orientation:
 ---------------------------------------------------------------------
 Center     Atomic      Atomic             Coordinates (Angstroms)
 Number     Number       Type             X           Y           Z
 ---------------------------------------------------------------------
      1          6           0        6.482248    0.924085    0.044274
      2          6           0        5.449232   -0.131115   -0.225040
      3          6           0        4.142981    0.093725   -0.384766
      4          6           0        3.110704   -0.970557   -0.634517
      5          6           0        2.148404   -1.188632    0.552098
      6          6           0        1.379963    0.063444    1.001679
      7          6           0        0.545207    0.743852   -0.094725
      8          6           0       -0.496782   -0.160063   -0.772043
      9          6           0       -1.515292   -0.803248    0.182542
     10          6           0       -2.318143    0.186118    1.041818
     11          6           0       -3.104546    1.242941    0.254385
     12          6           0       -4.075100    0.687265   -0.790906
     13         16           0       -5.437138   -0.358271   -0.118457
     14          1           0        6.031255    1.920830    0.097804
     15          1           0        7.250940    0.940909   -0.740193
     16          1           0        7.005658    0.737310    0.991775
     17          1           0        5.815669   -1.157371   -0.294479
     18          1           0        3.779049    1.120361   -0.316810
     19          1           0        2.525653   -0.711857   -1.528616
     20          1           0        3.612957   -1.919914   -0.858522
     21          1           0        1.438698   -1.982298    0.283758
     22          1           0        2.728041   -1.566634    1.403840
     23          1           0        0.727473   -0.212061    1.840252
     24          1           0        2.090175    0.796126    1.405357
     25          1           0        0.043992    1.617665    0.341493
     26          1           0        1.213011    1.143077   -0.869255
     27          1           0       -1.026949    0.429139   -1.531889
     28          1           0        0.015255   -0.959499   -1.322772
     29          1           0       -2.204551   -1.420703   -0.409766
     30          1           0       -0.998065   -1.501930    0.852195
     31          1           0       -3.014204   -0.377698    1.675331
     32          1           0       -1.642191    0.705093    1.732469
     33          1           0       -3.663536    1.869631    0.959016
     34          1           0       -2.404960    1.908255   -0.270862
     35          1           0       -4.597250    1.508070   -1.291894
     36          1           0       -3.551422    0.122063   -1.566905
     37          1           0       -4.673756   -1.403117    0.265190
 ---------------------------------------------------------------------

 SCF Done:  E(UB3LYP) =  -870.122679879     A.U. after   33 cycles
 SCF Done:  E(UB3LYP) =  -870.122679878     a.u. after    1 cycles

 The electronic state is 2-A.
 Alpha  occ. eigenvalues --  -88.74803 -10.10830 -10.07921 -10.07896 -10.07773
 Alpha  occ. eigenvalues --  -10.07628 -10.07495 -10.07370 -10.07322 -10.07120
 Alpha  occ. eigenvalues --  -10.07078 -10.07055 -10.07010  -7.83484  -5.79848
 Alpha  occ. eigenvalues --   -5.79517  -5.78872  -0.73368  -0.72263  -0.70217
 Alpha  occ. eigenvalues --   -0.67686  -0.64808  -0.61988  -0.59463  -0.57007
 Alpha  occ. eigenvalues --   -0.54224  -0.50918  -0.47650  -0.45609  -0.43962
 Alpha  occ. eigenvalues --   -0.39786  -0.39329  -0.37500  -0.36646  -0.35271
 Alpha  occ. eigenvalues --   -0.33967  -0.32847  -0.32616  -0.32116  -0.31899
 Alpha  occ. eigenvalues --   -0.30145  -0.29683  -0.28730  -0.27767  -0.27484
 Alpha  occ. eigenvalues --   -0.26403  -0.25833  -0.24629  -0.23954  -0.23734
 Alpha  occ. eigenvalues --   -0.23334  -0.22059  -0.21637  -0.21505  -0.15683
 Alpha  occ. eigenvalues --   -0.14838   0.04085
 Alpha virt. eigenvalues --    0.05516   0.06393   0.06956   0.07356   0.07637
 Alpha virt. eigenvalues --    0.08270   0.09075   0.09398   0.09604   0.09821
 Alpha virt. eigenvalues --    0.10142   0.10264   0.10690   0.11136   0.11529

  Beta  occ. eigenvalues --  -88.74789 -10.10798 -10.07904 -10.07882 -10.07763
  Beta  occ. eigenvalues --  -10.07596 -10.07489 -10.07358 -10.07311 -10.07097
  Beta  occ. eigenvalues --  -10.07067 -10.07043 -10.06994  -7.83468  -5.79818
  Beta  occ. eigenvalues --   -5.79508  -5.78861  -0.73338  -0.72233  -0.70183
  Beta  occ. eigenvalues --   -0.67646  -0.64766  -0.61942  -0.59413  -0.56956
  Beta  occ. eigenvalues --   -0.54169  -0.50856  -0.47592  -0.45554  -0.43908
  Beta  occ. eigenvalues --   -0.39750  -0.39297  -0.37462  -0.36613  -0.35227
  Beta  occ. eigenvalues --   -0.33921  -0.32796  -0.32580  -0.32082  -0.31855
  Beta  occ. eigenvalues --   -0.30106  -0.29649  -0.28700  -0.27733  -0.27438
  Beta  occ. eigenvalues --   -0.26372  -0.25805  -0.24596  -0.23922  -0.23698
  Beta  occ. eigenvalues --   -0.23288  -0.22032  -0.21602  -0.21473  -0.15652
  Beta  occ. eigenvalues --   -0.14800
  Beta virt. eigenvalues --    0.05960   0.06396   0.06908   0.07272   0.07691
  Beta virt. eigenvalues --    0.08072   0.08545   0.09288   0.09526   0.09924
  Beta virt. eigenvalues --    0.10072   0.10367   0.10532   0.10849   0.11356

 Mulliken charges and spin densities:
               1          2
     1  C    1.663580  -2.424539
     2  C   -0.215040  -0.020572
     3  C   -0.377824   0.577598
     4  C   -0.773714   0.606300
     5  C    0.483503  -0.783402
     6  C    0.114507  -0.485899
     7  C   -0.056289  -0.239346
     8  C   -0.869165   0.697354
     9  C    1.267524  -1.604109
    10  C   -0.516454   0.021760
    11  C   -0.097484   0.055216
    12  C    0.485035  -0.871411
    13  S    0.144074  -0.308626
    14  H   -0.232617   0.370076
    15  H   -0.204277   0.339182
    16  H   -0.220347   0.365962
    17  H   -0.256611   0.382911
    18  H    0.055722   0.060142
    19  H   -0.011992   0.132062
    20  H   -0.037359   0.211465
    21  H   -0.031997   0.171627
    22  H    0.008888   0.135881
    23  H   -0.046206   0.197099
    24  H    0.077635   0.083470
    25  H   -0.110288   0.259116
    26  H   -0.181432   0.357814
    27  H   -0.053479   0.210117
    28  H   -0.109092   0.280572
    29  H   -0.227023   0.406651
    30  H    0.151036  -0.006724
    31  H   -0.071517   0.231942
    32  H    0.007432   0.132365
    33  H   -0.126127   0.251485
    34  H   -0.083507   0.243606
    35  H   -0.399609   0.643127
    36  H   -0.041121   0.187846
    37  H   -0.108365   0.131883
 Sum of Mulliken charges =  -1.00000   1.00000

 Dipole moment (field-independent basis, Debye):
    X=             -1.7446    Y=             -1.2730    Z=              0.9470  Tot=              2.3581
 Quadrupole moment (field-independent basis, Debye-Ang):
   XX=           -240.9073   YY=           -128.8869   ZZ=           -126.1011
   XY=             -2.4377   XZ=             -6.4121   YZ=              0.0280

 Summary of Natural Population Analysis:

                                       Natural Population
                Natural  -----------------------------------------------
    Atom  No    Charge         Core      Valence    Rydberg      Total
 -----------------------------------------------------------------------
      C    1   -0.29744      0.99965     2.29279    0.00500     3.29744
      C    2   -0.08804      0.99952     2.08020    0.00832     3.08804
      C    3   -0.09343      0.99950     2.08458    0.00935     3.09343
      C    4   -0.20480      0.99961     2.19690    0.00829     3.20480
      C    5   -0.18533      0.99962     2.17859    0.00711     3.18533
      C    6   -0.19303      0.99962     2.18591    0.00749     3.19303
      C    7   -0.19434      0.99962     2.18544    0.00927     3.19434
      C    8   -0.19421      0.99962     2.18523    0.00935     3.19421
      C    9   -0.19508      0.99962     2.18588    0.00958     3.19508
      C   10   -0.19456      0.99962     2.18673    0.00821     3.19456
      C   11   -0.19870      0.99961     2.18862    0.01046     3.19870
      C   12   -0.24351      0.99958     2.23373    0.01019     3.24351
      S   13   -0.03070      4.99967     3.01579    0.01524     8.03070
      H   14    0.09945      0.00000     0.39902    0.00153     0.40055
      H   15    0.10012      0.00000     0.39824    0.00164     0.39988
      H   16    0.10157      0.00000     0.39647    0.00195     0.39843
      H   17    0.08774      0.00000     0.41088    0.00139     0.41226
      H   18    0.09030      0.00000     0.40824    0.00146     0.40970
      H   19    0.09932      0.00000     0.39912    0.00156     0.40068
      H   20    0.09861      0.00000     0.39999    0.00140     0.40139
      H   21    0.09579      0.00000     0.40282    0.00140     0.40421
      H   22    0.09667      0.00000     0.40203    0.00131     0.40333
      H   23    0.09682      0.00000     0.40187    0.00131     0.40318
      H   24    0.09817      0.00000     0.40047    0.00136     0.40183
      H   25    0.09683      0.00000     0.40190    0.00127     0.40317
      H   26    0.09648      0.00000     0.40217    0.00135     0.40352
      H   27    0.09692      0.00000     0.40179    0.00129     0.40308
      H   28    0.09711      0.00000     0.40155    0.00134     0.40289
      H   29    0.09695      0.00000     0.40164    0.00141     0.40305
      H   30    0.09788      0.00000     0.40090    0.00122     0.40212
      H   31    0.09897      0.00000     0.39963    0.00140     0.40103
      H   32    0.09811      0.00000     0.40063    0.00126     0.40189
      H   33    0.10061      0.00000     0.39812    0.00127     0.39939
      H   34    0.10015      0.00000     0.39843    0.00141     0.39985
      H   35    0.10686      0.00000     0.39164    0.00149     0.39314
      H   36    0.10246      0.00000     0.39596    0.00158     0.39754
      H   37    0.05926      0.00000     0.43774    0.00301     0.44074
 =======================================================================
   * Total *    0.00000     16.99488    38.85164    0.15348    56.00000

 Normal termination of Gaussian 16 at Sun Dec 13 12:57:56 2020.
