 Gaussian 16, Revision A.03,

 -----------------------------------------------------------
 # opt freq B3LYP/6-31G(d) empiricaldispersion=gd3bj scf=xqc
 -----------------------------------------------------------

 ------------------------------
 CID_65684141_JID_9664_neutraal
 ------------------------------
 Symbolic Z-matrix:
 Charge =  0 Multiplicity = 1

 SCF Done:  E(RB3LYP) =  -1316.22608901     A.U. after   15 cycles
 SCF Done:  E(RB3LYP) =  -1316.23480019     A.U. after   13 cycles
 SCF Done:  E(RB3LYP) =  -1316.23351703     A.U. after   13 cycles
 SCF Done:  E(RB3LYP) =  -1316.23643413     A.U. after   12 cycles
 SCF Done:  E(RB3LYP) =  -1316.23785412     A.U. after   13 cycles
 SCF Done:  E(RB3LYP) =  -1316.23845047     A.U. after   12 cycles
 SCF Done:  E(RB3LYP) =  -1316.23819694     A.U. after   12 cycles
 SCF Done:  E(RB3LYP) =  -1316.23885529     A.U. after   11 cycles
 SCF Done:  E(RB3LYP) =  -1316.23887468     A.U. after   11 cycles
 SCF Done:  E(RB3LYP) =  -1316.23897095     A.U. after   11 cycles
 SCF Done:  E(RB3LYP) =  -1316.23900975     A.U. after    9 cycles
 SCF Done:  E(RB3LYP) =  -1316.23901182     A.U. after    8 cycles
 SCF Done:  E(RB3LYP) =  -1316.23901221     A.U. after    8 cycles
 SCF Done:  E(RB3LYP) =  -1316.23901256     A.U. after    7 cycles
 SCF Done:  E(RB3LYP) =  -1316.23901260     A.U. after    7 cycles
 Optimization completed.
    -- Stationary point found.
 Normal termination of Gaussian 16 at Sat Dec 12 10:05:50 2020.

 --------------------------------------------------------------------
 #N Geom=AllCheck Guess=TCheck SCRF=Check GenChk RB3LYP/6-31G(d) Freq
 --------------------------------------------------------------------

 Structure from the checkpoint file:  "JID_9664.chk"
 ------------------------------
 CID_65684141_JID_9664_neutraal
 ------------------------------
 Charge =  0 Multiplicity = 1

 SCF Done:  E(RB3LYP) =  -1316.23901260     A.U. after    1 cycles

  Exact polarizability: 166.362  -3.954 155.910  -1.814   9.310 142.459
 Approx polarizability: 228.165  -4.103 226.364   3.284   5.135 211.720

                      1                      2                      3
                      A                      A                      A
 Frequencies --     18.4145                47.6430                52.9056
 Red. masses --      4.9605                 3.6746                 4.3902
 Frc consts  --      0.0010                 0.0049                 0.0072
 IR Inten    --      0.0300                 1.8437                 0.9067

                      4                      5                      6
                      A                      A                      A
 Frequencies --     59.1348                77.9620                83.3783
 Red. masses --      4.4074                 3.9931                 3.0036
 Frc consts  --      0.0091                 0.0143                 0.0123
 IR Inten    --      1.8007                 5.3508                 2.4605

                      7                      8                      9
                      A                      A                      A
 Frequencies --    111.0240               126.6474               143.9164
 Red. masses --      3.1961                 3.1375                 1.8080
 Frc consts  --      0.0232                 0.0297                 0.0221
 IR Inten    --      1.3558                 3.7916                 0.1657

                     10                     11                     12
                      A                      A                      A
 Frequencies --    152.7604               163.3268               183.6054
 Red. masses --      2.7864                 2.9306                 1.3569
 Frc consts  --      0.0383                 0.0461                 0.0269
 IR Inten    --      0.7836                 0.6945                 0.4973

                     13                     14                     15
                      A                      A                      A
 Frequencies --    198.6096               200.7797               214.8700
 Red. masses --      3.0696                 3.3442                 3.3045
 Frc consts  --      0.0713                 0.0794                 0.0899
 IR Inten    --      8.3935                 5.8519                 1.1706

                     16                     17                     18
                      A                      A                      A
 Frequencies --    265.9509               269.8244               277.4245
 Red. masses --      3.1171                 2.9302                 2.5006
 Frc consts  --      0.1299                 0.1257                 0.1134
 IR Inten    --      8.2455                 2.5308                22.2572

                     19                     20                     21
                      A                      A                      A
 Frequencies --    293.9629               311.5500               318.4087
 Red. masses --      1.9748                 2.2510                 2.2434
 Frc consts  --      0.1005                 0.1287                 0.1340
 IR Inten    --     69.7840                18.1037                 6.5321

                     22                     23                     24
                      A                      A                      A
 Frequencies --    337.8458               376.9331               379.6883
 Red. masses --      4.2949                 2.6978                 3.6658
 Frc consts  --      0.2888                 0.2258                 0.3114
 IR Inten    --     17.4636                10.6744                 2.4868

                     25                     26                     27
                      A                      A                      A
 Frequencies --    387.8648               417.3079               451.8806
 Red. masses --      2.6715                 2.9636                 2.6176
 Frc consts  --      0.2368                 0.3041                 0.3149
 IR Inten    --      2.9662                 1.8574                 1.3295

                     28                     29                     30
                      A                      A                      A
 Frequencies --    476.8834               502.6584               526.8189
 Red. masses --      4.2440                 3.8587                 2.7932
 Frc consts  --      0.5687                 0.5744                 0.4567
 IR Inten    --      2.5166                18.1660                 4.1623

                     31                     32                     33
                      A                      A                      A
 Frequencies --    547.8028               559.5590               581.6365
 Red. masses --      5.2500                 4.1225                 3.7212
 Frc consts  --      0.9282                 0.7605                 0.7417
 IR Inten    --     21.3700                22.1887                 3.7824

                     34                     35                     36
                      A                      A                      A
 Frequencies --    637.8943               687.8860               694.3948
 Red. masses --      4.1098                 3.9253                 3.5865
 Frc consts  --      0.9853                 1.0944                 1.0189
 IR Inten    --     17.7080                 6.8031                69.0564

                     37                     38                     39
                      A                      A                      A
 Frequencies --    735.3729               809.5476               861.3458
 Red. masses --      3.9078                 2.8119                 3.0846
 Frc consts  --      1.2451                 1.0858                 1.3483
 IR Inten    --     89.3711                 1.0201                11.5973

                     40                     41                     42
                      A                      A                      A
 Frequencies --    882.9820               887.8287               899.7434
 Red. masses --      1.7508                 1.6007                 2.9101
 Frc consts  --      0.8043                 0.7434                 1.3880
 IR Inten    --     35.4829                 7.0236                68.3053

                     43                     44                     45
                      A                      A                      A
 Frequencies --    911.1303               935.0411               968.4712
 Red. masses --      2.2566                 2.8261                 2.8059
 Frc consts  --      1.1037                 1.4558                 1.5506
 IR Inten    --     30.1486                96.7789                23.7477

                     46                     47                     48
                      A                      A                      A
 Frequencies --    981.5837              1003.0157              1029.2875
 Red. masses --      1.8326                 3.2102                 1.7052
 Frc consts  --      1.0403                 1.9028                 1.0644
 IR Inten    --     18.8843                29.9066                 7.1644

                     49                     50                     51
                      A                      A                      A
 Frequencies --   1039.5149              1052.2039              1074.0638
 Red. masses --      2.8101                 2.4963                 2.0383
 Frc consts  --      1.7891                 1.6284                 1.3854
 IR Inten    --     34.6029                22.8280                 7.2572

                     52                     53                     54
                      A                      A                      A
 Frequencies --   1080.2647              1084.9564              1111.2411
 Red. masses --      3.1502                 3.7527                 1.5417
 Frc consts  --      2.1660                 2.6027                 1.1216
 IR Inten    --     15.2587               136.3828                10.0948

                     55                     56                     57
                      A                      A                      A
 Frequencies --   1121.7242              1141.4237              1147.6660
 Red. masses --      8.3684                 2.3439                 2.1858
 Frc consts  --      6.2039                 1.7992                 1.6963
 IR Inten    --    139.6242                49.7371                13.3463

                     58                     59                     60
                      A                      A                      A
 Frequencies --   1166.7208              1171.9128              1185.0391
 Red. masses --      1.3845                 1.5426                 1.2865
 Frc consts  --      1.1104                 1.2483                 1.0644
 IR Inten    --      5.4416                 5.7004                 2.9772

                     61                     62                     63
                      A                      A                      A
 Frequencies --   1203.3828              1215.4262              1230.5575
 Red. masses --      1.5160                 1.5446                 1.5615
 Frc consts  --      1.2935                 1.3443                 1.3931
 IR Inten    --     22.0320                38.0332                43.5104

                     64                     65                     66
                      A                      A                      A
 Frequencies --   1240.1627              1248.2495              1267.6166
 Red. masses --      1.6032                 2.1496                 1.6238
 Frc consts  --      1.4528                 1.9733                 1.5373
 IR Inten    --     16.6883                62.8086                12.7617

                     67                     68                     69
                      A                      A                      A
 Frequencies --   1279.7121              1297.2667              1309.2194
 Red. masses --      2.0447                 1.2536                 6.1679
 Frc consts  --      1.9729                 1.2429                 6.2289
 IR Inten    --    149.7372                21.2761               213.9934

                     70                     71                     72
                      A                      A                      A
 Frequencies --   1342.0011              1349.5670              1357.1861
 Red. masses --      1.3502                 1.4833                 1.3863
 Frc consts  --      1.4327                 1.5918                 1.5045
 IR Inten    --      1.0490                91.4807                 2.6155

                     73                     74                     75
                      A                      A                      A
 Frequencies --   1375.7387              1380.1789              1400.9345
 Red. masses --      1.2895                 1.4747                 1.3523
 Frc consts  --      1.4380                 1.6551                 1.5637
 IR Inten    --      2.7980                 4.8628                29.1053

                     76                     77                     78
                      A                      A                      A
 Frequencies --   1403.3342              1406.9030              1417.7465
 Red. masses --      1.4350                 1.2727                 1.3490
 Frc consts  --      1.6651                 1.4843                 1.5976
 IR Inten    --      3.0153                17.3293                10.9107

                     79                     80                     81
                      A                      A                      A
 Frequencies --   1418.7902              1427.6340              1442.9842
 Red. masses --      1.4397                 1.3818                 1.3154
 Frc consts  --      1.7075                 1.6593                 1.6137
 IR Inten    --     52.7457                 9.8172                17.3270

                     82                     83                     84
                      A                      A                      A
 Frequencies --   1472.4557              1486.0604              1493.0147
 Red. masses --      1.1458                 1.0891                 1.2643
 Frc consts  --      1.4636                 1.4171                 1.6605
 IR Inten    --      0.7817                 7.5227                24.1537

                     85                     86                     87
                      A                      A                      A
 Frequencies --   1506.6786              1512.9825              1514.8894
 Red. masses --      1.0808                 1.0493                 1.0806
 Frc consts  --      1.4456                 1.4153                 1.4610
 IR Inten    --     10.2092                 4.6286                 2.4786

                     88                     89                     90
                      A                      A                      A
 Frequencies --   1519.3510              1522.1513              1522.8193
 Red. masses --      1.0841                 1.0647                 1.0793
 Frc consts  --      1.4745                 1.4534                 1.4747
 IR Inten    --      1.8136                18.1921                 3.5042

                     91                     92                     93
                      A                      A                      A
 Frequencies --   1525.6648              1536.5391              1543.0145
 Red. masses --      1.0505                 1.0899                 1.0570
 Frc consts  --      1.4407                 1.5161                 1.4827
 IR Inten    --      9.8455                 8.5919                 7.0039

                     94                     95                     96
                      A                      A                      A
 Frequencies --   1543.8245              1810.3173              2996.2435
 Red. masses --      1.0762                10.4537                 1.0736
 Frc consts  --      1.5113                20.1851                 5.6789
 IR Inten    --      6.9174               226.1321                46.9314

                     97                     98                     99
                      A                      A                      A
 Frequencies --   3022.6847              3033.7528              3036.1716
 Red. masses --      1.0707                 1.0472                 1.0666
 Frc consts  --      5.7636                 5.6787                 5.7931
 IR Inten    --     30.0267                56.0494                31.5909

                    100                    101                    102
                      A                      A                      A
 Frequencies --   3044.1033              3055.4298              3056.6452
 Red. masses --      1.0617                 1.0699                 1.0800
 Frc consts  --      5.7966                 5.8850                 5.9453
 IR Inten    --     10.9484                15.0286                64.3255

                    103                    104                    105
                      A                      A                      A
 Frequencies --   3062.5606              3076.9732              3077.8655
 Red. masses --      1.0658                 1.0954                 1.0297
 Frc consts  --      5.8898                 6.1106                 5.7472
 IR Inten    --     15.2560                45.0618                29.5575

                    106                    107                    108
                      A                      A                      A
 Frequencies --   3089.0175              3097.3804              3108.8891
 Red. masses --      1.0697                 1.1041                 1.1029
 Frc consts  --      6.0136                 6.2409                 6.2803
 IR Inten    --     25.6479                46.4201                31.6442

                    109                    110                    111
                      A                      A                      A
 Frequencies --   3112.7556              3124.4967              3138.9625
 Red. masses --      1.0932                 1.0936                 1.0935
 Frc consts  --      6.2405                 6.2903                 6.3481
 IR Inten    --     26.4218                12.2056                 5.6947

                    112                    113                    114
                      A                      A                      A
 Frequencies --   3155.2694              3169.5873              3184.3035
 Red. masses --      1.1077                 1.0948                 1.1071
 Frc consts  --      6.4977                 6.4800                 6.6138
 IR Inten    --     20.7241                 2.1488                20.3506

                    115                    116                    117
                      A                      A                      A
 Frequencies --   3186.8871              3191.2703              3761.3096
 Red. masses --      1.0988                 1.0899                 1.0663
 Frc consts  --      6.5751                 6.5396                 8.8879
 IR Inten    --      1.7456                 1.2932                11.4576

 - Thermochemistry -
 -------------------
 Temperature   298.150 Kelvin.  Pressure   1.00000 Atm.
 Atom     1 has atomic number  6 and mass  12.00000

 Molecular mass:   294.12494 amu.
 Principal axes and moments of inertia in atomic units:
                           1         2         3
     Eigenvalues --  4003.519836536.567707579.25691
           X            0.99990  -0.00464  -0.01299
           Y            0.00577   0.99604   0.08877
           Z            0.01252  -0.08883   0.99597
 This molecule is an asymmetric top.
 Rotational symmetry number  1.
 Warning -- assumption of classical behavior for rotation
           may cause significant error
 Rotational temperatures (Kelvin)      0.02163     0.01325     0.01143
 Rotational constants (GHZ):           0.45079     0.27610     0.23812
 Zero-point vibrational energy     919498.5 (Joules/Mol)
                                  219.76542 (Kcal/Mol)
 Warning -- explicit consideration of  33 degrees of freedom as
           vibrations may cause significant error
 Vibrational temperatures:     26.49    68.55    76.12    85.08   112.17
          (Kelvin)            119.96   159.74   182.22   207.06   219.79
                              234.99   264.17   285.75   288.88   309.15
                              382.64   388.22   399.15   422.95   448.25
                              458.12   486.08   542.32   546.29   558.05
                              600.41   650.16   686.13   723.21   757.97
                              788.17   805.08   836.85   917.79   989.71
                              999.08  1058.04  1164.76  1239.28  1270.41
                             1277.39  1294.53  1310.91  1345.32  1393.41
                             1412.28  1443.12  1480.92  1495.63  1513.89
                             1545.34  1554.26  1561.01  1598.83  1613.91
                             1642.25  1651.24  1678.65  1686.12  1705.01
                             1731.40  1748.73  1770.50  1784.32  1795.95
                             1823.82  1841.22  1866.48  1883.67  1930.84
                             1941.73  1952.69  1979.38  1985.77  2015.63
                             2019.08  2024.22  2039.82  2041.32  2054.05
                             2076.13  2118.54  2138.11  2148.12  2167.77
                             2176.84  2179.59  2186.01  2190.04  2191.00
                             2195.09  2210.74  2220.05  2221.22  2604.64
                             4310.93  4348.97  4364.89  4368.37  4379.79
                             4396.08  4397.83  4406.34  4427.08  4428.36
                             4444.41  4456.44  4473.00  4478.56  4495.45
                             4516.27  4539.73  4560.33  4581.50  4585.22
                             4591.53  5411.69

 Zero-point correction=                           0.350218 (Hartree/Particle)
 Thermal correction to Energy=                    0.370864
 Thermal correction to Enthalpy=                  0.371808
 Thermal correction to Gibbs Free Energy=         0.300307
 Sum of electronic and zero-point Energies=          -1315.888794
 Sum of electronic and thermal Energies=             -1315.868148
 Sum of electronic and thermal Enthalpies=           -1315.867204
 Sum of electronic and thermal Free Energies=        -1315.938706

                     E (Thermal)             CV                S
                      KCal/Mol        Cal/Mol-Kelvin    Cal/Mol-Kelvin
 Total                  232.721             76.529            150.488
 Electronic               0.000              0.000              0.000
 Translational            0.889              2.981             42.934
 Rotational               0.889              2.981             33.650
 Vibrational            230.943             70.567             73.905
 Vibration     1          0.593              1.986              6.798
 Vibration     2          0.595              1.978              4.913
 Vibration     3          0.596              1.976              4.706
 Vibration     4          0.597              1.974              4.486
 Vibration     5          0.599              1.964              3.942
 Vibration     6          0.600              1.961              3.810
 Vibration     7          0.607              1.940              3.251
 Vibration     8          0.611              1.926              2.996
 Vibration     9          0.616              1.909              2.751
 Vibration    10          0.619              1.900              2.638
 Vibration    11          0.623              1.887              2.511
 Vibration    12          0.631              1.862              2.291
 Vibration    13          0.637              1.842              2.146
 Vibration    14          0.638              1.839              2.126
 Vibration    15          0.645              1.818              2.002
 Vibration    16          0.672              1.736              1.622
 Vibration    17          0.674              1.729              1.597
 Vibration    18          0.678              1.715              1.549
 Vibration    19          0.689              1.685              1.451
 Vibration    20          0.700              1.652              1.354
 Vibration    21          0.705              1.638              1.318
 Vibration    22          0.718              1.600              1.222
 Vibration    23          0.747              1.519              1.051
 Vibration    24          0.750              1.513              1.040
 Vibration    25          0.756              1.496              1.008
 Vibration    26          0.780              1.433              0.901
 Vibration    27          0.811              1.357              0.790
 Vibration    28          0.833              1.301              0.719
 Vibration    29          0.858              1.244              0.652
 Vibration    30          0.882              1.191              0.594
 Vibration    31          0.903              1.144              0.549
 Vibration    32          0.915              1.119              0.525
 Vibration    33          0.938              1.071              0.482

                           ! Non-Optimized Parameters !
 Normal termination of Gaussian 16 at Sat Dec 12 10:29:18 2020.

 ----------------------------------------------------------------------
 # B3LYP/6-311++G(d,p) empiricaldispersion=gd3bj scf=xqc pop=npa geom=c
 heck
 ----------------------------------------------------------------------

 --------------------------------------
 CID_65684141_JID_9664_Energie_neutraal
 --------------------------------------
 Structure from the checkpoint file:  "JID_9664.chk"
 Charge =  0 Multiplicity = 1

 SCF Done:  E(RB3LYP) =  -1316.54230411     A.U. after   15 cycles
 Normal termination of Gaussian 16 at Sat Dec 12 10:38:33 2020.

 ----------------------------------------------------------------------
 # B3LYP/6-311++G(d,p) empiricaldispersion=gd3bj scf=xqc pop=npa geom=c
 heck
 ----------------------------------------------------------------------

 ------------------------------------
 CID_65684141_JID_9664_Energie_kation
 ------------------------------------
 Structure from the checkpoint file:  "JID_9664.chk"
 Charge =  1 Multiplicity = 2

 SCF Done:  E(UB3LYP) =  -1316.22618181     A.U. after   25 cycles
 Normal termination of Gaussian 16 at Sat Dec 12 10:59:51 2020.
 Gaussian 16:  ES64L-G16RevA.03 25-Dec-2016

 ----------------------------------------------------------------------
 # B3LYP/6-311++G(d,p) empiricaldispersion=gd3bj scf=xqc pop=npa geom=c
 heck
 ----------------------------------------------------------------------

 -----------------------------------
 CID_65684141_JID_9664_Energie_anion
 -----------------------------------
 Structure from the checkpoint file:  "JID_9664.chk"
 Charge = -1 Multiplicity = 2

                         Standard orientation:
 ---------------------------------------------------------------------
 Center     Atomic      Atomic             Coordinates (Angstroms)
 Number     Number       Type             X           Y           Z
 ---------------------------------------------------------------------
      1          6           0       -1.492568    2.984719    0.968220
      2          7           0       -0.697493    1.769103    0.756301
      3          6           0       -0.900965    0.698121    1.743748
      4          6           0       -2.244582   -0.049728    1.691570
      5          6           0       -2.188392   -1.272183    0.795821
      6          8           0       -1.205554   -1.970643    0.642297
      7          8           0       -3.383286   -1.526219    0.241057
      8          6           0       -3.409903   -2.625208   -0.682026
      9         16           0       -0.567044    1.304434   -0.861978
     10          8           0       -1.685778    0.451469   -1.285186
     11          8           0       -0.297117    2.536027   -1.608623
     12          7           0        0.779551    0.323502   -0.739027
     13          6           0        0.821627   -0.851790   -1.629274
     14          6           0        1.852941   -1.838065   -1.084575
     15          6           0        3.222917   -1.168535   -0.917434
     16          6           0        3.135417    0.104558   -0.057622
     17          6           0        2.061120    1.043022   -0.622515
     18          6           0        2.885358   -0.197524    1.427656
     19          8           0        3.938163   -0.950437    2.020370
     20          1           0       -1.283644    3.345381    1.979665
     21          1           0       -2.573715    2.817247    0.867150
     22          1           0       -1.181730    3.741727    0.249199
     23          1           0       -0.094440   -0.026012    1.628924
     24          1           0       -0.782645    1.182444    2.717557
     25          1           0       -2.484453   -0.411320    2.700227
     26          1           0       -3.068670    0.595222    1.379220
     27          1           0       -3.039223   -3.538113   -0.209594
     28          1           0       -4.453906   -2.736337   -0.975049
     29          1           0       -2.792643   -2.387944   -1.552318
     30          1           0        1.088064   -0.544619   -2.653742
     31          1           0       -0.168915   -1.300184   -1.642265
     32          1           0        1.926000   -2.688323   -1.772877
     33          1           0        1.478538   -2.225795   -0.130956
     34          1           0        3.951188   -1.864458   -0.483543
     35          1           0        3.613437   -0.898852   -1.908112
     36          1           0        4.095555    0.633284   -0.115281
     37          1           0        1.909633    1.899638    0.038780
     38          1           0        2.369894    1.427868   -1.605492
     39          1           0        2.842024    0.744706    1.984659
     40          1           0        1.919137   -0.700935    1.561875
     41          1           0        3.839555   -1.869678    1.731974
 ---------------------------------------------------------------------

 SCF Done:  E(UB3LYP) =  -1316.53306368     A.U. after   33 cycles
 SCF Done:  E(UB3LYP) =  -1316.53306368     a.u. after    1 cycles

 The electronic state is 2-A.
 Alpha  occ. eigenvalues --  -88.98631 -19.07930 -19.03298 -19.02874 -19.02817
 Alpha  occ. eigenvalues --  -19.01805 -14.25900 -14.25678 -10.20927 -10.13698
 Alpha  occ. eigenvalues --  -10.12301 -10.12156 -10.12021 -10.11431 -10.11372
 Alpha  occ. eigenvalues --  -10.09341 -10.09067 -10.08128 -10.07914  -8.04598
 Alpha  occ. eigenvalues --   -6.00852  -6.00838  -6.00785  -1.03942  -1.01932
 Alpha  occ. eigenvalues --   -0.93356  -0.92963  -0.92086  -0.86285  -0.84730
 Alpha  occ. eigenvalues --   -0.72446  -0.69905  -0.68650  -0.64455  -0.63407
 Alpha  occ. eigenvalues --   -0.59689  -0.58881  -0.56286  -0.53529  -0.49769
 Alpha  occ. eigenvalues --   -0.47842  -0.46170  -0.44835  -0.43569  -0.42167
 Alpha  occ. eigenvalues --   -0.41594  -0.40885  -0.39716  -0.39137  -0.38577
 Alpha  occ. eigenvalues --   -0.37578  -0.37208  -0.36118  -0.35639  -0.34727
 Alpha  occ. eigenvalues --   -0.34289  -0.33647  -0.33304  -0.32131  -0.31513
 Alpha  occ. eigenvalues --   -0.30767  -0.30086  -0.29108  -0.28899  -0.27681
 Alpha  occ. eigenvalues --   -0.27047  -0.26319  -0.25489  -0.25284  -0.24815
 Alpha  occ. eigenvalues --   -0.24119  -0.23453  -0.23008  -0.22009  -0.21671
 Alpha  occ. eigenvalues --   -0.19303  -0.18857  -0.17091  -0.16166   0.03838
 Alpha virt. eigenvalues --    0.05466   0.06261   0.06854   0.07750   0.07859
 Alpha virt. eigenvalues --    0.08331   0.09318   0.09504   0.09825   0.10146
 Alpha virt. eigenvalues --    0.10505   0.11117   0.11415   0.11702   0.11813

  Beta  occ. eigenvalues --  -88.98627 -19.07926 -19.03273 -19.02869 -19.02812
  Beta  occ. eigenvalues --  -19.01792 -14.25901 -14.25679 -10.20904 -10.13681
  Beta  occ. eigenvalues --  -10.12287 -10.12150 -10.11998 -10.11422 -10.11340
  Beta  occ. eigenvalues --  -10.09320 -10.09063 -10.08104 -10.07896  -8.04595
  Beta  occ. eigenvalues --   -6.00849  -6.00834  -6.00779  -1.03928  -1.01911
  Beta  occ. eigenvalues --   -0.93302  -0.92941  -0.92075  -0.86277  -0.84721
  Beta  occ. eigenvalues --   -0.72418  -0.69857  -0.68628  -0.64419  -0.63372
  Beta  occ. eigenvalues --   -0.59644  -0.58839  -0.56244  -0.53487  -0.49734
  Beta  occ. eigenvalues --   -0.47810  -0.46129  -0.44806  -0.43537  -0.42119
  Beta  occ. eigenvalues --   -0.41564  -0.40843  -0.39683  -0.39109  -0.38556
  Beta  occ. eigenvalues --   -0.37547  -0.37183  -0.36085  -0.35618  -0.34697
  Beta  occ. eigenvalues --   -0.34250  -0.33613  -0.33270  -0.32097  -0.31491
  Beta  occ. eigenvalues --   -0.30738  -0.30046  -0.29073  -0.28872  -0.27644
  Beta  occ. eigenvalues --   -0.27023  -0.26305  -0.25466  -0.25255  -0.24791
  Beta  occ. eigenvalues --   -0.24102  -0.23439  -0.22981  -0.21987  -0.21646
  Beta  occ. eigenvalues --   -0.19285  -0.18831  -0.17077  -0.16156
  Beta virt. eigenvalues --    0.05863   0.06541   0.06739   0.07336   0.08170
  Beta virt. eigenvalues --    0.08310   0.08697   0.09614   0.09749   0.09977
  Beta virt. eigenvalues --    0.10396   0.10690   0.11449   0.11567   0.11936

 Mulliken charges and spin densities:
               1          2
     1  C    0.555606  -0.765606
     2  N   -0.192943   0.056495
     3  C   -0.805982   0.573754
     4  C    1.205247  -1.774319
     5  C   -0.852835   0.509977
     6  O   -0.213742   0.015629
     7  O    0.004485   0.042143
     8  C    0.144963  -0.292543
     9  S    0.606467  -0.344688
    10  O   -0.074744  -0.017600
    11  O   -0.127031   0.007181
    12  N   -0.026883   0.008590
    13  C   -0.506776   0.144843
    14  C    0.141091  -0.411199
    15  C    0.333891  -0.893854
    16  C   -0.935347   1.094641
    17  C   -0.143193  -0.317957
    18  C    0.766036  -1.235857
    19  O   -0.266845   0.037898
    20  H   -0.363876   0.531236
    21  H   -0.011281   0.157745
    22  H    0.099721   0.079925
    23  H    0.619462  -0.558805
    24  H   -0.573077   0.789020
    25  H   -0.553598   0.757966
    26  H    0.256725  -0.003392
    27  H   -0.031686   0.195475
    28  H   -0.038450   0.188840
    29  H    0.041119   0.136752
    30  H   -0.000197   0.189165
    31  H    0.230577  -0.128344
    32  H   -0.382639   0.573627
    33  H    0.141201   0.028642
    34  H   -0.298228   0.449718
    35  H   -0.012428   0.137615
    36  H   -0.026269   0.238566
    37  H    0.080521   0.121743
    38  H    0.155793   0.053578
    39  H    0.169853   0.022330
    40  H   -0.146000   0.378916
    41  H    0.031289   0.222152
 Sum of Mulliken charges =  -1.00000   1.00000

 Dipole moment (field-independent basis, Debye):
    X=             -1.2482    Y=              0.3526    Z=             -3.8393  Tot=              4.0525
 Quadrupole moment (field-independent basis, Debye-Ang):
   XX=           -187.8125   YY=           -172.0120   ZZ=           -179.1658
   XY=             11.4757   XZ=              1.3258   YZ=             -2.1810

 Summary of Natural Population Analysis:

                                       Natural Population
                Natural  -----------------------------------------------
    Atom  No    Charge         Core      Valence    Rydberg      Total
 -----------------------------------------------------------------------
      C    1   -0.18224      0.99963     2.17374    0.00887     3.18224
      N    2   -0.36664      0.99974     2.85244    0.01446     3.86664
      C    3   -0.09279      0.99958     2.07875    0.01446     3.09279
      C    4   -0.24604      0.99956     2.23712    0.00936     3.24604
      C    5    0.41959      0.99969     1.55366    0.02707     2.58041
      O    6   -0.31717      0.99987     3.31129    0.00602     4.31717
      O    7   -0.27465      0.99985     3.26615    0.00865     4.27465
      C    8   -0.10427      0.99959     2.09685    0.00782     3.10427
      S    9    1.18042      4.99920     1.71785    0.10253     6.81958
      O   10   -0.46240      0.99990     3.45714    0.00535     4.46240
      O   11   -0.46248      0.99990     3.45762    0.00496     4.46248
      N   12   -0.37703      0.99971     2.86365    0.01367     3.87703
      C   13   -0.08459      0.99959     2.07382    0.01118     3.08459
      C   14   -0.19856      0.99962     2.18942    0.00953     3.19856
      C   15   -0.19297      0.99961     2.18314    0.01021     3.19297
      C   16   -0.12719      0.99958     2.11589    0.01171     3.12719
      C   17   -0.08638      0.99958     2.07486    0.01194     3.08638
      C   18   -0.01067      0.99955     1.99795    0.01317     3.01067
      O   19   -0.36774      0.99990     3.36179    0.00605     4.36774
      H   20    0.10255      0.00000     0.39597    0.00148     0.39745
      H   21    0.08944      0.00000     0.40935    0.00121     0.41056
      H   22    0.11139      0.00000     0.38752    0.00109     0.38861
      H   23    0.11448      0.00000     0.38278    0.00274     0.38552
      H   24    0.10553      0.00000     0.39202    0.00245     0.39447
      H   25    0.11994      0.00000     0.37777    0.00230     0.38006
      H   26    0.11370      0.00000     0.38477    0.00153     0.38630
      H   27    0.09197      0.00000     0.40677    0.00127     0.40803
      H   28    0.08936      0.00000     0.40972    0.00092     0.41064
      H   29    0.09434      0.00000     0.40446    0.00121     0.40566
      H   30    0.08477      0.00000     0.41404    0.00119     0.41523
      H   31    0.11835      0.00000     0.37994    0.00171     0.38165
      H   32    0.10303      0.00000     0.39583    0.00114     0.39697
      H   33    0.10589      0.00000     0.39216    0.00195     0.39411
      H   34    0.10210      0.00000     0.39643    0.00147     0.39790
      H   35    0.09809      0.00000     0.40065    0.00126     0.40191
      H   36    0.10390      0.00000     0.39505    0.00105     0.39610
      H   37    0.11026      0.00000     0.38846    0.00128     0.38974
      H   38    0.09545      0.00000     0.40357    0.00099     0.40455
      H   39    0.08707      0.00000     0.41165    0.00127     0.41293
      H   40    0.08339      0.00000     0.41482    0.00179     0.41661
      H   41    0.22883      0.00000     0.26779    0.00338     0.27117
 =======================================================================
   * Total *    0.00000     22.99365    55.67467    0.33168    79.00000

 Normal termination of Gaussian 16 at Sat Dec 12 11:27:47 2020.
