 Gaussian 16, Revision A.03,

 -----------------------------------------------------------
 # opt freq B3LYP/6-31G(d) empiricaldispersion=gd3bj scf=xqc
 -----------------------------------------------------------

 ------------------------------
 CID_84070943_JID_5602_neutraal
 ------------------------------
 Symbolic Z-matrix:
 Charge =  0 Multiplicity = 1

 SCF Done:  E(RB3LYP) =  -760.616192994     A.U. after   15 cycles
 SCF Done:  E(RB3LYP) =  -760.622108017     A.U. after   13 cycles
 SCF Done:  E(RB3LYP) =  -760.622464733     A.U. after   13 cycles
 SCF Done:  E(RB3LYP) =  -760.622643182     A.U. after   12 cycles
 SCF Done:  E(RB3LYP) =  -760.623826924     A.U. after   12 cycles
 SCF Done:  E(RB3LYP) =  -760.624018608     A.U. after   11 cycles
 SCF Done:  E(RB3LYP) =  -760.624086176     A.U. after   11 cycles
 SCF Done:  E(RB3LYP) =  -760.624097908     A.U. after   10 cycles
 SCF Done:  E(RB3LYP) =  -760.624102288     A.U. after   10 cycles
 SCF Done:  E(RB3LYP) =  -760.624103459     A.U. after    8 cycles
 SCF Done:  E(RB3LYP) =  -760.624103874     A.U. after    8 cycles
 SCF Done:  E(RB3LYP) =  -760.624104041     A.U. after    8 cycles
 SCF Done:  E(RB3LYP) =  -760.624104119     A.U. after    8 cycles
 Optimization completed.
    -- Stationary point found.
 Normal termination of Gaussian 16 at Thu Dec 10 16:39:47 2020.

 --------------------------------------------------------------------
 #N Geom=AllCheck Guess=TCheck SCRF=Check GenChk RB3LYP/6-31G(d) Freq
 --------------------------------------------------------------------

 Structure from the checkpoint file:  "JID_5602.chk"
 ------------------------------
 CID_84070943_JID_5602_neutraal
 ------------------------------
 Charge =  0 Multiplicity = 1

 SCF Done:  E(RB3LYP) =  -760.624104119     A.U. after    1 cycles

  Exact polarizability: 165.812   4.854 141.625  -0.017   3.153  66.030
 Approx polarizability: 243.372  13.610 233.425   2.540  12.775 100.058

                      1                      2                      3
                      A                      A                      A
 Frequencies --     53.2014                72.8281                79.1015
 Red. masses --      3.4933                 6.3099                 2.4935
 Frc consts  --      0.0058                 0.0197                 0.0092
 IR Inten    --      0.9768                 0.5150                 1.8554

                      4                      5                      6
                      A                      A                      A
 Frequencies --     90.8301               113.4781               120.4986
 Red. masses --      3.3350                 4.6707                 1.0540
 Frc consts  --      0.0162                 0.0354                 0.0090
 IR Inten    --      3.3935                 0.3134                 0.3843

                      7                      8                      9
                      A                      A                      A
 Frequencies --    147.8102               160.7813               169.4858
 Red. masses --      1.5531                 1.7464                 1.2648
 Frc consts  --      0.0200                 0.0266                 0.0214
 IR Inten    --      0.9782                 1.7757                 0.9257

                     10                     11                     12
                      A                      A                      A
 Frequencies --    195.3736               214.3324               253.1030
 Red. masses --      4.3270                 3.6590                 4.7626
 Frc consts  --      0.0973                 0.0990                 0.1798
 IR Inten    --      3.6116                 2.0001                10.0876

                     13                     14                     15
                      A                      A                      A
 Frequencies --    296.3956               329.9116               356.4815
 Red. masses --      3.4310                 6.9148                 3.8475
 Frc consts  --      0.1776                 0.4434                 0.2881
 IR Inten    --      4.0627                 1.3884                11.4770

                     16                     17                     18
                      A                      A                      A
 Frequencies --    364.7725               411.6430               415.9111
 Red. masses --      5.1977                 5.5380                 5.0342
 Frc consts  --      0.4075                 0.5529                 0.5131
 IR Inten    --      6.3618                15.9537                 3.2496

                     19                     20                     21
                      A                      A                      A
 Frequencies --    432.4619               450.2770               503.8579
 Red. masses --      4.9569                 1.4018                 4.7427
 Frc consts  --      0.5462                 0.1675                 0.7094
 IR Inten    --     12.2685               195.5079                 6.7003

                     22                     23                     24
                      A                      A                      A
 Frequencies --    541.9063               586.9515               615.3739
 Red. masses --      5.9026                 2.1821                 1.1543
 Frc consts  --      1.0213                 0.4429                 0.2575
 IR Inten    --     18.1306                31.5764                40.3186

                     25                     26                     27
                      A                      A                      A
 Frequencies --    644.1020               661.9903               671.4642
 Red. masses --      2.7980                 3.4998                 3.4493
 Frc consts  --      0.6839                 0.9037                 0.9163
 IR Inten    --     36.1445                38.9154                67.6721

                     28                     29                     30
                      A                      A                      A
 Frequencies --    686.8710               729.5101               769.4170
 Red. masses --      4.8993                 5.6386                 6.5892
 Frc consts  --      1.3619                 1.7680                 2.2983
 IR Inten    --     28.0527                28.2449                18.6143

                     31                     32                     33
                      A                      A                      A
 Frequencies --    798.6399               868.5874               960.7211
 Red. masses --     10.1313                 4.1979                 4.9084
 Frc consts  --      3.8073                 1.8660                 2.6692
 IR Inten    --     17.9021                 1.9138                37.9275

                     34                     35                     36
                      A                      A                      A
 Frequencies --   1023.8674              1030.4779              1069.8026
 Red. masses --      7.6087                 2.0048                 1.4926
 Frc consts  --      4.6995                 1.2543                 1.0065
 IR Inten    --     42.9327                16.1773                 1.7935

                     37                     38                     39
                      A                      A                      A
 Frequencies --   1083.0534              1132.4500              1179.1104
 Red. masses --      5.0441                 2.4412                 2.5424
 Frc consts  --      3.4861                 1.8445                 2.0826
 IR Inten    --    178.8588                75.4149               356.7905

                     40                     41                     42
                      A                      A                      A
 Frequencies --   1187.5465              1189.5659              1217.4183
 Red. masses --      1.2562                 1.3565                 1.6362
 Frc consts  --      1.0438                 1.1310                 1.4288
 IR Inten    --      8.3451                16.7148               140.2886

                     43                     44                     45
                      A                      A                      A
 Frequencies --   1228.7916              1233.2934              1293.2932
 Red. masses --      1.6088                 1.6733                 4.6850
 Frc consts  --      1.4312                 1.4995                 4.6169
 IR Inten    --     66.1170                48.3639                94.9084

                     46                     47                     48
                      A                      A                      A
 Frequencies --   1323.5140              1381.3345              1431.4321
 Red. masses --      5.8681                 3.2954                 1.3473
 Frc consts  --      6.0562                 3.7048                 1.6266
 IR Inten    --     43.6621                23.7874                 9.7788

                     49                     50                     51
                      A                      A                      A
 Frequencies --   1448.4148              1460.4970              1485.5889
 Red. masses --      3.7150                 3.1116                 1.5396
 Frc consts  --      4.5920                 3.9105                 2.0019
 IR Inten    --    168.8774                97.1162                13.3745

                     52                     53                     54
                      A                      A                      A
 Frequencies --   1502.8266              1507.4573              1510.8270
 Red. masses --      1.7153                 1.2646                 1.0603
 Frc consts  --      2.2825                 1.6931                 1.4260
 IR Inten    --     43.9457                 6.7146                 9.2763

                     55                     56                     57
                      A                      A                      A
 Frequencies --   1513.9035              1516.4924              1523.8372
 Red. masses --      1.0799                 1.0814                 1.4928
 Frc consts  --      1.4582                 1.4653                 2.0424
 IR Inten    --      3.4467                 4.1768                15.8507

                     58                     59                     60
                      A                      A                      A
 Frequencies --   1538.5609              1545.7215              1591.2290
 Red. masses --      1.0591                 1.0522                 4.1522
 Frc consts  --      1.4772                 1.4812                 6.1943
 IR Inten    --      2.8279                14.6675                76.0910

                     61                     62                     63
                      A                      A                      A
 Frequencies --   1622.3776              1662.9470              1768.9798
 Red. masses --      2.3207                 3.6545                 6.9270
 Frc consts  --      3.5989                 5.9543                12.7714
 IR Inten    --    117.1972               152.8541               270.0446

                     64                     65                     66
                      A                      A                      A
 Frequencies --   3049.2383              3052.3485              3053.0385
 Red. masses --      1.0352                 1.0370                 1.0332
 Frc consts  --      5.6708                 5.6923                 5.6742
 IR Inten    --     55.7685                41.8504                35.6986

                     67                     68                     69
                      A                      A                      A
 Frequencies --   3102.6408              3125.9164              3128.5003
 Red. masses --      1.1001                 1.1008                 1.1049
 Frc consts  --      6.2395                 6.3374                 6.3718
 IR Inten    --     18.8285                22.9267                23.9472

                     70                     71                     72
                      A                      A                      A
 Frequencies --   3160.9569              3163.1333              3165.1440
 Red. masses --      1.1008                 1.1061                 1.1061
 Frc consts  --      6.4804                 6.5203                 6.5288
 IR Inten    --      7.7717                21.7606                20.9550

                     73                     74                     75
                      A                      A                      A
 Frequencies --   3548.4067              3688.0894              3693.9127
 Red. masses --      1.0471                 1.1004                 1.0649
 Frc consts  --      7.7681                 8.8183                 8.5615
 IR Inten    --     94.3373                99.8706                49.5483

 - Thermochemistry -
 -------------------
 Temperature   298.150 Kelvin.  Pressure   1.00000 Atm.
 Atom     1 has atomic number  6 and mass  12.00000

 Molecular mass:   212.07971 amu.
 Principal axes and moments of inertia in atomic units:
                           1         2         3
     Eigenvalues --  1935.216823860.800405471.17891
           X            1.00000  -0.00031  -0.00233
           Y            0.00029   0.99996  -0.00909
           Z            0.00233   0.00909   0.99996
 This molecule is an asymmetric top.
 Rotational symmetry number  1.
 Warning -- assumption of classical behavior for rotation
           may cause significant error
 Rotational temperatures (Kelvin)      0.04476     0.02243     0.01583
 Rotational constants (GHZ):           0.93258     0.46745     0.32986
 Zero-point vibrational energy     561670.7 (Joules/Mol)
                                  134.24252 (Kcal/Mol)
 Warning -- explicit consideration of  24 degrees of freedom as
           vibrations may cause significant error
 Vibrational temperatures:     76.54   104.78   113.81   130.68   163.27
          (Kelvin)            173.37   212.67   231.33   243.85   281.10
                              308.38   364.16   426.45   474.67   512.90
                              524.83   592.26   598.40   622.22   647.85
                              724.94   779.68   844.49   885.39   926.72
                              952.46   966.09   988.25  1049.60  1107.02
                             1149.06  1249.70  1382.26  1473.12  1482.63
                             1539.21  1558.27  1629.34  1696.48  1708.61
                             1711.52  1751.59  1767.96  1774.43  1860.76
                             1904.24  1987.43  2059.51  2083.95  2101.33
                             2137.43  2162.23  2168.89  2173.74  2178.17
                             2181.89  2192.46  2213.65  2223.95  2289.42
                             2334.24  2392.61  2545.17  4387.17  4391.65
                             4392.64  4464.01  4497.50  4501.21  4547.91
                             4551.04  4553.94  5105.37  5306.34  5314.72

 Zero-point correction=                           0.213929 (Hartree/Particle)
 Thermal correction to Energy=                    0.229382
 Thermal correction to Enthalpy=                  0.230326
 Thermal correction to Gibbs Free Energy=         0.171420
 Sum of electronic and zero-point Energies=           -760.410175
 Sum of electronic and thermal Energies=              -760.394722
 Sum of electronic and thermal Enthalpies=            -760.393778
 Sum of electronic and thermal Free Energies=         -760.452684

                     E (Thermal)             CV                S
                      KCal/Mol        Cal/Mol-Kelvin    Cal/Mol-Kelvin
 Total                  143.939             56.217            123.978
 Electronic               0.000              0.000              0.000
 Translational            0.889              2.981             41.959
 Rotational               0.889              2.981             32.080
 Vibrational            142.162             50.256             49.939
 Vibration     1          0.596              1.976              4.695
 Vibration     2          0.599              1.967              4.075
 Vibration     3          0.600              1.963              3.913
 Vibration     4          0.602              1.956              3.642
 Vibration     5          0.607              1.938              3.209
 Vibration     6          0.609              1.932              3.092
 Vibration     7          0.617              1.905              2.700
 Vibration     8          0.622              1.890              2.541
 Vibration     9          0.625              1.880              2.441
 Vibration    10          0.636              1.846              2.176
 Vibration    11          0.644              1.819              2.006
 Vibration    12          0.664              1.758              1.709
 Vibration    13          0.690              1.680              1.437
 Vibration    14          0.713              1.616              1.261
 Vibration    15          0.732              1.562              1.137
 Vibration    16          0.738              1.545              1.102
 Vibration    17          0.776              1.445              0.921
 Vibration    18          0.779              1.436              0.906
 Vibration    19          0.793              1.400              0.851
 Vibration    20          0.809              1.360              0.795
 Vibration    21          0.859              1.241              0.649
 Vibration    22          0.897              1.157              0.561
 Vibration    23          0.944              1.060              0.473
 Vibration    24          0.975              0.999              0.424

                           ! Non-Optimized Parameters !
 Normal termination of Gaussian 16 at Thu Dec 10 16:48:41 2020.

 ----------------------------------------------------------------------
 # B3LYP/6-311++G(d,p) empiricaldispersion=gd3bj scf=xqc pop=npa geom=c
 heck
 ----------------------------------------------------------------------

 --------------------------------------
 CID_84070943_JID_5602_Energie_neutraal
 --------------------------------------
 Structure from the checkpoint file:  "JID_5602.chk"
 Charge =  0 Multiplicity = 1

 SCF Done:  E(RB3LYP) =  -760.853129678     A.U. after   16 cycles
 Normal termination of Gaussian 16 at Thu Dec 10 16:53:56 2020.

 ----------------------------------------------------------------------
 # B3LYP/6-311++G(d,p) empiricaldispersion=gd3bj scf=xqc pop=npa geom=c
 heck
 ----------------------------------------------------------------------

 ------------------------------------
 CID_84070943_JID_5602_Energie_kation
 ------------------------------------
 Structure from the checkpoint file:  "JID_5602.chk"
 Charge =  1 Multiplicity = 2

 SCF Done:  E(UB3LYP) =  -760.564793768     A.U. after   25 cycles
 Normal termination of Gaussian 16 at Thu Dec 10 17:04:20 2020.
 Gaussian 16:  ES64L-G16RevA.03 25-Dec-2016

 ----------------------------------------------------------------------
 # B3LYP/6-311++G(d,p) empiricaldispersion=gd3bj scf=xqc pop=npa geom=c
 heck
 ----------------------------------------------------------------------

 -----------------------------------
 CID_84070943_JID_5602_Energie_anion
 -----------------------------------
 Structure from the checkpoint file:  "JID_5602.chk"
 Charge = -1 Multiplicity = 2

                         Standard orientation:
 ---------------------------------------------------------------------
 Center     Atomic      Atomic             Coordinates (Angstroms)
 Number     Number       Type             X           Y           Z
 ---------------------------------------------------------------------
      1          6           0        0.825016    3.045417    0.371596
      2          6           0        0.332291    1.633786    0.195706
      3          6           0        1.254204    0.565796    0.063691
      4          6           0        0.781035   -0.730622   -0.066941
      5          6           0       -0.614025   -0.974082   -0.101267
      6          6           0       -1.451888    0.164597    0.004068
      7          7           0       -0.972292    1.414057    0.161424
      8          6           0       -2.915164   -0.000474   -0.072836
      9          8           0       -3.488524   -1.072532   -0.251877
     10          8           0       -3.612059    1.145527    0.062318
     11          7           0       -1.055542   -2.260806   -0.183493
     12          8           0        1.614946   -1.820301   -0.188382
     13          6           0        2.333754   -2.137786    1.014639
     14          8           0        2.594899    0.848764    0.119095
     15          6           0        3.335585    0.537842   -1.069073
     16          1           0       -0.035892    3.712618    0.445619
     17          1           0        1.450586    3.361021   -0.471898
     18          1           0        1.438111    3.146212    1.274568
     19          1           0       -4.546735    0.878842   -0.016826
     20          1           0       -0.385332   -2.947373   -0.496684
     21          1           0       -2.040766   -2.385826   -0.382540
     22          1           0        2.993642   -1.313558    1.300895
     23          1           0        1.634904   -2.352423    1.831136
     24          1           0        2.923062   -3.028658    0.789138
     25          1           0        3.313234   -0.534250   -1.283365
     26          1           0        2.931111    1.090376   -1.925627
     27          1           0        4.359975    0.861759   -0.876667
 ---------------------------------------------------------------------

 SCF Done:  E(UB3LYP) =  -760.856764447     A.U. after   29 cycles

 The electronic state is 2-A.
 Alpha  occ. eigenvalues --  -19.02771 -19.02467 -19.02027 -18.95850 -14.18847
 Alpha  occ. eigenvalues --  -14.15133 -10.14174 -10.10594 -10.10001 -10.08561
 Alpha  occ. eigenvalues --  -10.08512 -10.08101 -10.06475 -10.05352 -10.04058
 Alpha  occ. eigenvalues --   -0.96502  -0.94769  -0.92634  -0.86935  -0.80653
 Alpha  occ. eigenvalues --   -0.77988  -0.65543  -0.64238  -0.59639  -0.57461
 Alpha  occ. eigenvalues --   -0.56709  -0.51438  -0.47436  -0.45856  -0.41962
 Alpha  occ. eigenvalues --   -0.40349  -0.38983  -0.37115  -0.35764  -0.34789
 Alpha  occ. eigenvalues --   -0.34504  -0.34186  -0.32902  -0.31734  -0.31432
 Alpha  occ. eigenvalues --   -0.29707  -0.29415  -0.28103  -0.26487  -0.25662
 Alpha  occ. eigenvalues --   -0.25143  -0.23811  -0.23022  -0.19986  -0.19418
 Alpha  occ. eigenvalues --   -0.18445  -0.15978  -0.14419  -0.12190  -0.10867
 Alpha  occ. eigenvalues --   -0.08017   0.04483
 Alpha virt. eigenvalues --    0.07326   0.08179   0.09353   0.09599   0.10026
 Alpha virt. eigenvalues --    0.10889   0.11264   0.12326   0.12994   0.13238
 Alpha virt. eigenvalues --    0.13874   0.14453   0.14790   0.15245   0.16763

  Beta  occ. eigenvalues --  -19.02782 -19.02416 -19.02022 -18.95588 -14.18826
  Beta  occ. eigenvalues --  -14.14785 -10.13946 -10.10541 -10.09921 -10.08513
  Beta  occ. eigenvalues --  -10.08413 -10.07796 -10.06583 -10.05250 -10.04050
  Beta  occ. eigenvalues --   -0.96247  -0.94675  -0.92540  -0.86559  -0.80374
  Beta  occ. eigenvalues --   -0.77734  -0.65134  -0.64097  -0.59451  -0.57269
  Beta  occ. eigenvalues --   -0.56468  -0.51082  -0.47252  -0.45747  -0.41862
  Beta  occ. eigenvalues --   -0.40252  -0.38857  -0.36889  -0.35515  -0.34688
  Beta  occ. eigenvalues --   -0.34370  -0.33993  -0.32768  -0.31655  -0.30474
  Beta  occ. eigenvalues --   -0.29514  -0.29262  -0.28036  -0.26409  -0.25318
  Beta  occ. eigenvalues --   -0.24920  -0.23647  -0.22809  -0.19650  -0.18795
  Beta  occ. eigenvalues --   -0.17466  -0.15858  -0.14199  -0.11042  -0.10286
  Beta  occ. eigenvalues --   -0.07315
  Beta virt. eigenvalues --    0.07364   0.08501   0.09345   0.09590   0.09975
  Beta virt. eigenvalues --    0.10351   0.11039   0.11402   0.12371   0.13053
  Beta virt. eigenvalues --    0.13447   0.14010   0.14487   0.14798   0.15249

 Mulliken charges and spin densities:
               1          2
     1  C   -0.239377  -0.061117
     2  C   -0.403657   0.010384
     3  C    0.148319   0.353654
     4  C   -0.646713   0.086280
     5  C   -0.085783  -0.007293
     6  C   -0.018971   0.044544
     7  N    0.014675   0.172823
     8  C    0.197195   0.147607
     9  O   -0.461753   0.084269
    10  O   -0.202119   0.011106
    11  N   -0.429178   0.017060
    12  O   -0.211890   0.021189
    13  C    0.260308  -0.536056
    14  O   -0.215974   0.035419
    15  C    0.429854  -0.659323
    16  H    0.152159   0.006373
    17  H    0.128108   0.006316
    18  H    0.134571   0.011863
    19  H    0.267874   0.000545
    20  H    0.240422   0.018609
    21  H    0.300487   0.000883
    22  H    0.042968   0.137555
    23  H    0.029347   0.105067
    24  H   -0.147712   0.284164
    25  H   -0.020021   0.187787
    26  H   -0.080580   0.194198
    27  H   -0.182559   0.326097
 Sum of Mulliken charges =  -1.00000   1.00000

 Dipole moment (field-independent basis, Debye):
    X=             -0.0931    Y=             -0.4006    Z=              0.0004  Tot=              0.4113
 Quadrupole moment (field-independent basis, Debye-Ang):
   XX=           -136.9028   YY=           -111.8467   ZZ=           -100.4404
   XY=              0.6660   XZ=              1.4682   YZ=              0.1453

 Summary of Natural Population Analysis:

                                       Natural Population
                Natural  -----------------------------------------------
    Atom  No    Charge         Core      Valence    Rydberg      Total
 -----------------------------------------------------------------------
      C    1   -0.29404      0.99964     2.28891    0.00548     3.29404
      C    2    0.05056      0.99954     1.93613    0.01377     2.94944
      C    3    0.17713      0.99928     1.81047    0.01312     2.82287
      C    4    0.13056      0.99930     1.85668    0.01346     2.86944
      C    5    0.08581      0.99947     1.90367    0.01105     2.91419
      C    6    0.02106      0.99946     1.96753    0.01195     2.97894
      N    7   -0.17121      0.99965     2.66114    0.01041     3.67121
      C    8    0.41420      0.99967     1.55903    0.02710     2.58580
      O    9   -0.33051      0.99987     3.32358    0.00706     4.33051
      O   10   -0.33531      0.99987     3.32953    0.00591     4.33531
      N   11   -0.39690      0.99969     2.88866    0.00854     3.89690
      O   12   -0.30136      0.99987     3.28987    0.01162     4.30136
      C   13   -0.09787      0.99959     2.08912    0.00916     3.09787
      O   14   -0.29337      0.99987     3.28318    0.01033     4.29337
      C   15   -0.09567      0.99959     2.08701    0.00907     3.09567
      H   16    0.10444      0.00000     0.39425    0.00131     0.39556
      H   17    0.09573      0.00000     0.40266    0.00161     0.40427
      H   18    0.09741      0.00000     0.40112    0.00147     0.40259
      H   19    0.22868      0.00000     0.26860    0.00272     0.27132
      H   20    0.18861      0.00000     0.30967    0.00172     0.31139
      H   21    0.20920      0.00000     0.28908    0.00172     0.29080
      H   22    0.08946      0.00000     0.40903    0.00151     0.41054
      H   23    0.08310      0.00000     0.41592    0.00097     0.41690
      H   24    0.08533      0.00000     0.41330    0.00137     0.41467
      H   25    0.08860      0.00000     0.40978    0.00162     0.41140
      H   26    0.08063      0.00000     0.41818    0.00119     0.41937
      H   27    0.08570      0.00000     0.41298    0.00132     0.41430
 =======================================================================
   * Total *    0.00000     14.99438    40.81907    0.18655    56.00000

 Normal termination of Gaussian 16 at Thu Dec 10 17:15:34 2020.
