 Gaussian 16, Revision A.03,

 -----------------------------------------------------------
 # opt freq B3LYP/6-31G(d) empiricaldispersion=gd3bj scf=xqc
 -----------------------------------------------------------

 ------------------------------
 CID_44541672_JID_9631_neutraal
 ------------------------------
 Symbolic Z-matrix:
 Charge =  0 Multiplicity = 1

 SCF Done:  E(RB3LYP) =  -861.115880214     A.U. after   15 cycles
 SCF Done:  E(RB3LYP) =  -861.123850489     A.U. after   14 cycles
 SCF Done:  E(RB3LYP) =  -861.125820118     A.U. after   14 cycles
 SCF Done:  E(RB3LYP) =  -861.126331454     A.U. after   14 cycles
 SCF Done:  E(RB3LYP) =  -861.127911352     A.U. after   12 cycles
 SCF Done:  E(RB3LYP) =  -861.128159507     A.U. after   13 cycles
 SCF Done:  E(RB3LYP) =  -861.128260351     A.U. after   13 cycles
 SCF Done:  E(RB3LYP) =  -861.128392035     A.U. after   12 cycles
 SCF Done:  E(RB3LYP) =  -861.128449783     A.U. after   12 cycles
 SCF Done:  E(RB3LYP) =  -861.128481408     A.U. after   12 cycles
 SCF Done:  E(RB3LYP) =  -861.128519396     A.U. after   12 cycles
 SCF Done:  E(RB3LYP) =  -861.128534308     A.U. after   11 cycles
 SCF Done:  E(RB3LYP) =  -861.128536283     A.U. after    9 cycles
 SCF Done:  E(RB3LYP) =  -861.128536991     A.U. after    9 cycles
 SCF Done:  E(RB3LYP) =  -861.128537268     A.U. after    8 cycles
 SCF Done:  E(RB3LYP) =  -861.128537335     A.U. after    7 cycles
 Optimization completed.
    -- Stationary point found.
 Normal termination of Gaussian 16 at Sat Dec 12 09:58:34 2020.

 --------------------------------------------------------------------
 #N Geom=AllCheck Guess=TCheck SCRF=Check GenChk RB3LYP/6-31G(d) Freq
 --------------------------------------------------------------------

 Structure from the checkpoint file:  "JID_9631.chk"
 ------------------------------
 CID_44541672_JID_9631_neutraal
 ------------------------------
 Charge =  0 Multiplicity = 1

 SCF Done:  E(RB3LYP) =  -861.128537335     A.U. after    1 cycles

  Exact polarizability: 212.237 -16.308 203.633 -30.875 -10.323 107.507
 Approx polarizability: 339.396 -44.523 336.868 -72.347 -16.296 175.549

                      1                      2                      3
                      A                      A                      A
 Frequencies --     17.4120                24.3662                51.0880
 Red. masses --      5.9543                 4.0261                 4.5958
 Frc consts  --      0.0011                 0.0014                 0.0071
 IR Inten    --      0.3174                 0.0322                 2.7643

                      4                      5                      6
                      A                      A                      A
 Frequencies --     61.4683                78.2184               106.4891
 Red. masses --      3.5804                 8.1523                 4.6179
 Frc consts  --      0.0080                 0.0294                 0.0309
 IR Inten    --      1.1813                 2.6944                 4.2333

                      7                      8                      9
                      A                      A                      A
 Frequencies --    125.0506               143.8923               179.6830
 Red. masses --      4.4841                 4.2777                 1.0335
 Frc consts  --      0.0413                 0.0522                 0.0197
 IR Inten    --      1.9327                 0.4553                 0.2037

                     10                     11                     12
                      A                      A                      A
 Frequencies --    204.9246               218.2125               249.6525
 Red. masses --      3.7948                 3.6596                 1.3680
 Frc consts  --      0.0939                 0.1027                 0.0502
 IR Inten    --      1.9379                 1.9755                 0.3260

                     13                     14                     15
                      A                      A                      A
 Frequencies --    288.9673               299.1286               322.6736
 Red. masses --      3.3667                 4.1036                 3.3598
 Frc consts  --      0.1656                 0.2163                 0.2061
 IR Inten    --      2.6563                 6.4673                 2.3631

                     16                     17                     18
                      A                      A                      A
 Frequencies --    348.7907               358.8515               405.1124
 Red. masses --      3.6446                 5.0702                 5.1637
 Frc consts  --      0.2612                 0.3847                 0.4993
 IR Inten    --      3.1449                11.1008                 0.3591

                     19                     20                     21
                      A                      A                      A
 Frequencies --    436.6563               459.1818               468.6159
 Red. masses --      4.6668                 3.8456                 2.4945
 Frc consts  --      0.5243                 0.4777                 0.3228
 IR Inten    --      5.5649                 4.6538                10.2240

                     22                     23                     24
                      A                      A                      A
 Frequencies --    511.8337               533.2300               540.1662
 Red. masses --      4.2125                 4.1187                 3.1123
 Frc consts  --      0.6502                 0.6900                 0.5350
 IR Inten    --      9.8431                 2.4768                23.0327

                     25                     26                     27
                      A                      A                      A
 Frequencies --    550.6328               552.8614               594.8664
 Red. masses --      3.3404                 3.1120                 3.3290
 Frc consts  --      0.5967                 0.5604                 0.6941
 IR Inten    --      3.9948                17.3845                 1.2125

                     28                     29                     30
                      A                      A                      A
 Frequencies --    604.9925               668.2118               675.9134
 Red. masses --      3.7998                 4.1530                 1.6257
 Frc consts  --      0.8194                 1.0925                 0.4376
 IR Inten    --     13.5019                 2.1438                91.8860

                     31                     32                     33
                      A                      A                      A
 Frequencies --    693.4624               719.3650               761.1080
 Red. masses --      5.3448                 5.7668                 2.2260
 Frc consts  --      1.5144                 1.7583                 0.7597
 IR Inten    --      5.6712                 8.1331                10.1919

                     34                     35                     36
                      A                      A                      A
 Frequencies --    771.5382               800.5793               829.8110
 Red. masses --      3.8685                 1.5771                 3.3049
 Frc consts  --      1.3568                 0.5955                 1.3408
 IR Inten    --      7.2398                 0.8581                 4.4425

                     37                     38                     39
                      A                      A                      A
 Frequencies --    852.0028               856.2560               873.0393
 Red. masses --      1.6503                 1.7926                 5.5259
 Frc consts  --      0.7058                 0.7743                 2.4816
 IR Inten    --     66.1205                 7.5091                 2.9991

                     40                     41                     42
                      A                      A                      A
 Frequencies --    925.9749               942.5550               964.2708
 Red. masses --      5.0267                 1.4499                 1.6086
 Frc consts  --      2.5394                 0.7590                 0.8812
 IR Inten    --     18.1187                 1.2834                10.5340

                     43                     44                     45
                      A                      A                      A
 Frequencies --    972.3546               987.5493               996.0929
 Red. masses --      1.5170                 1.3820                 3.0257
 Frc consts  --      0.8451                 0.7941                 1.7688
 IR Inten    --      9.9109                 1.0567                13.2328

                     46                     47                     48
                      A                      A                      A
 Frequencies --   1050.6577              1065.0837              1073.5913
 Red. masses --      1.7990                 1.7605                 2.6836
 Frc consts  --      1.1700                 1.1767                 1.8224
 IR Inten    --      3.0024                 4.2273                15.3460

                     49                     50                     51
                      A                      A                      A
 Frequencies --   1077.9256              1126.9924              1164.7594
 Red. masses --      4.8707                 2.1089                 2.2405
 Frc consts  --      3.3344                 1.5782                 1.7909
 IR Inten    --     80.2471                21.3155                13.6220

                     52                     53                     54
                      A                      A                      A
 Frequencies --   1175.4473              1185.7024              1206.7550
 Red. masses --      1.2983                 1.2731                 1.2874
 Frc consts  --      1.0569                 1.0545                 1.1046
 IR Inten    --     14.2427                 0.7340                19.8388

                     55                     56                     57
                      A                      A                      A
 Frequencies --   1221.4569              1248.6959              1256.4305
 Red. masses --      1.4152                 2.0818                 2.3078
 Frc consts  --      1.2440                 1.9125                 2.1465
 IR Inten    --      0.5785                63.3886                 9.9537

                     58                     59                     60
                      A                      A                      A
 Frequencies --   1270.6988              1304.1216              1318.0637
 Red. masses --      1.5022                 2.8501                 2.0094
 Frc consts  --      1.4291                 2.8559                 2.0568
 IR Inten    --    102.9367               236.9973                37.3344

                     61                     62                     63
                      A                      A                      A
 Frequencies --   1358.4605              1373.1865              1390.5210
 Red. masses --      1.8007                 2.8476                 1.5584
 Frc consts  --      1.9579                 3.1636                 1.7754
 IR Inten    --     62.4946                29.1452                27.3869

                     64                     65                     66
                      A                      A                      A
 Frequencies --   1407.7779              1427.1720              1437.4369
 Red. masses --      5.1599                 1.5119                 2.7650
 Frc consts  --      6.0250                 1.8143                 3.3661
 IR Inten    --     26.2342                66.4237                35.3867

                     67                     68                     69
                      A                      A                      A
 Frequencies --   1485.0135              1491.7822              1497.0890
 Red. masses --      1.6722                 1.1480                 1.4973
 Frc consts  --      2.1727                 1.5052                 1.9772
 IR Inten    --     25.9244                44.5014                31.7662

                     70                     71                     72
                      A                      A                      A
 Frequencies --   1500.7480              1514.6403              1519.5538
 Red. masses --      1.8159                 1.1180                 1.0757
 Frc consts  --      2.4096                 1.5112                 1.4635
 IR Inten    --      9.1871                 2.1097                19.1204

                     73                     74                     75
                      A                      A                      A
 Frequencies --   1520.9512              1523.4179              1534.3128
 Red. masses --      1.0761                 1.9555                 1.0867
 Frc consts  --      1.4667                 2.6739                 1.5072
 IR Inten    --      4.5366                19.3621                35.9798

                     76                     77                     78
                      A                      A                      A
 Frequencies --   1566.4371              1625.6493              1650.5872
 Red. masses --      3.4378                 6.7134                 5.3886
 Frc consts  --      4.9700                10.4531                 8.6498
 IR Inten    --     37.6454                87.3317                 7.3729

                     79                     80                     81
                      A                      A                      A
 Frequencies --   1684.7657              1768.5203              1808.3628
 Red. masses --      5.8978                11.4447                 8.2950
 Frc consts  --      9.8633                21.0898                15.9823
 IR Inten    --    151.5021               164.1817               407.1520

                     82                     83                     84
                      A                      A                      A
 Frequencies --   3029.4002              3052.0056              3056.7031
 Red. masses --      1.0348                 1.0703                 1.0398
 Frc consts  --      5.5953                 5.8737                 5.7241
 IR Inten    --     37.0616                25.3338                 5.8970

                     85                     86                     87
                      A                      A                      A
 Frequencies --   3089.9540              3116.2439              3154.2749
 Red. masses --      1.1068                 1.1007                 1.0930
 Frc consts  --      6.2260                 6.2975                 6.4071
 IR Inten    --     37.2655                 9.0472                 8.1005

                     88                     89                     90
                      A                      A                      A
 Frequencies --   3167.8513              3180.9199              3185.6944
 Red. masses --      1.1000                 1.0999                 1.0882
 Frc consts  --      6.5036                 6.5571                 6.5065
 IR Inten    --     25.0952                 8.1246                 2.0669

                     91                     92                     93
                      A                      A                      A
 Frequencies --   3192.3438              3209.1602              3224.2496
 Red. masses --      1.0888                 1.0919                 1.0941
 Frc consts  --      6.5375                 6.6254                 6.7015
 IR Inten    --     12.3355                16.3822                 7.9066

                     94                     95                     96
                      A                      A                      A
 Frequencies --   3225.3279              3273.1034              3587.1750
 Red. masses --      1.0935                 1.0876                 1.0753
 Frc consts  --      6.7024                 6.8651                 8.1527
 IR Inten    --      5.8653                 6.8541                27.5900

 - Thermochemistry -
 -------------------
 Temperature   298.150 Kelvin.  Pressure   1.00000 Atm.
 Atom     1 has atomic number  6 and mass  12.00000

 Molecular mass:   257.10519 amu.
 Principal axes and moments of inertia in atomic units:
                           1         2         3
     Eigenvalues --  3584.975916894.459639002.07579
           X            0.99998  -0.00590   0.00380
           Y            0.00596   0.99981  -0.01861
           Z           -0.00369   0.01863   0.99982
 This molecule is an asymmetric top.
 Rotational symmetry number  1.
 Warning -- assumption of classical behavior for rotation
           may cause significant error
 Rotational temperatures (Kelvin)      0.02416     0.01256     0.00962
 Rotational constants (GHZ):           0.50342     0.26177     0.20048
 Zero-point vibrational energy     721373.8 (Joules/Mol)
                                  172.41247 (Kcal/Mol)
 Warning -- explicit consideration of  28 degrees of freedom as
           vibrations may cause significant error
 Vibrational temperatures:     25.05    35.06    73.50    88.44   112.54
          (Kelvin)            153.21   179.92   207.03   258.52   294.84
                              313.96   359.19   415.76   430.38   464.26
                              501.83   516.31   582.87   628.25   660.66
                              674.23   736.41   767.20   777.18   792.24
                              795.44   855.88   870.45   961.41   972.49
                              997.74  1035.01  1095.06  1110.07  1151.86
                             1193.91  1225.84  1231.96  1256.11  1332.27
                             1356.13  1387.37  1399.00  1420.86  1433.16
                             1511.66  1532.42  1544.66  1550.89  1621.49
                             1675.83  1691.21  1705.96  1736.25  1757.40
                             1796.59  1807.72  1828.25  1876.34  1896.40
                             1954.52  1975.71  2000.65  2025.48  2053.38
                             2068.15  2136.60  2146.34  2153.98  2159.24
                             2179.23  2186.30  2188.31  2191.86  2207.53
                             2253.75  2338.95  2374.83  2424.00  2544.51
                             2601.83  4358.63  4391.16  4397.91  4445.75
                             4483.58  4538.30  4557.83  4576.63  4583.50
                             4593.07  4617.27  4638.98  4640.53  4709.27
                             5161.14

 Zero-point correction=                           0.274757 (Hartree/Particle)
 Thermal correction to Energy=                    0.292015
 Thermal correction to Enthalpy=                  0.292959
 Thermal correction to Gibbs Free Energy=         0.227591
 Sum of electronic and zero-point Energies=           -860.853781
 Sum of electronic and thermal Energies=              -860.836523
 Sum of electronic and thermal Enthalpies=            -860.835578
 Sum of electronic and thermal Free Energies=         -860.900946

                     E (Thermal)             CV                S
                      KCal/Mol        Cal/Mol-Kelvin    Cal/Mol-Kelvin
 Total                  183.242             65.578            137.578
 Electronic               0.000              0.000              0.000
 Translational            0.889              2.981             42.533
 Rotational               0.889              2.981             33.764
 Vibrational            181.465             59.616             61.281
 Vibration     1          0.593              1.986              6.909
 Vibration     2          0.593              1.985              6.242
 Vibration     3          0.595              1.977              4.775
 Vibration     4          0.597              1.973              4.409
 Vibration     5          0.600              1.964              3.935
 Vibration     6          0.605              1.944              3.332
 Vibration     7          0.610              1.928              3.021
 Vibration     8          0.616              1.909              2.751
 Vibration     9          0.629              1.867              2.332
 Vibration    10          0.640              1.833              2.088
 Vibration    11          0.646              1.813              1.974
 Vibration    12          0.662              1.763              1.733
 Vibration    13          0.686              1.694              1.480
 Vibration    14          0.692              1.675              1.422
 Vibration    15          0.708              1.630              1.297
 Vibration    16          0.726              1.578              1.172
 Vibration    17          0.734              1.557              1.127
 Vibration    18          0.770              1.459              0.944
 Vibration    19          0.797              1.390              0.837
 Vibration    20          0.817              1.341              0.768
 Vibration    21          0.826              1.320              0.741
 Vibration    22          0.867              1.224              0.629
 Vibration    23          0.888              1.177              0.580
 Vibration    24          0.895              1.161              0.565
 Vibration    25          0.906              1.138              0.543
 Vibration    26          0.908              1.133              0.538
 Vibration    27          0.953              1.043              0.459
 Vibration    28          0.964              1.021              0.441

                           ! Non-Optimized Parameters !
 Normal termination of Gaussian 16 at Sat Dec 12 10:14:44 2020.

 ----------------------------------------------------------------------
 # B3LYP/6-311++G(d,p) empiricaldispersion=gd3bj scf=xqc pop=npa geom=c
 heck
 ----------------------------------------------------------------------

 --------------------------------------
 CID_44541672_JID_9631_Energie_neutraal
 --------------------------------------
 Structure from the checkpoint file:  "JID_9631.chk"
 Charge =  0 Multiplicity = 1

 SCF Done:  E(RB3LYP) =  -861.366989328     A.U. after   15 cycles
 Normal termination of Gaussian 16 at Sat Dec 12 10:20:39 2020.

 ----------------------------------------------------------------------
 # B3LYP/6-311++G(d,p) empiricaldispersion=gd3bj scf=xqc pop=npa geom=c
 heck
 ----------------------------------------------------------------------

 ------------------------------------
 CID_44541672_JID_9631_Energie_kation
 ------------------------------------
 Structure from the checkpoint file:  "JID_9631.chk"
 Charge =  1 Multiplicity = 2

 SCF Done:  E(UB3LYP) =  -861.072061852     A.U. after   29 cycles
 Normal termination of Gaussian 16 at Sat Dec 12 10:36:02 2020.
 Gaussian 16:  ES64L-G16RevA.03 25-Dec-2016

 ----------------------------------------------------------------------
 # B3LYP/6-311++G(d,p) empiricaldispersion=gd3bj scf=xqc pop=npa geom=c
 heck
 ----------------------------------------------------------------------

 -----------------------------------
 CID_44541672_JID_9631_Energie_anion
 -----------------------------------
 Structure from the checkpoint file:  "JID_9631.chk"
 Charge = -1 Multiplicity = 2

                         Standard orientation:
 ---------------------------------------------------------------------
 Center     Atomic      Atomic             Coordinates (Angstroms)
 Number     Number       Type             X           Y           Z
 ---------------------------------------------------------------------
      1          6           0       -2.894046   -0.270302   -1.981412
      2          6           0       -3.720984   -0.737031   -0.793124
      3          8           0       -4.939282   -0.662959   -0.773417
      4          7           0       -3.026490   -1.294175    0.264966
      5          6           0       -1.611018   -1.096919    0.500597
      6          6           0       -1.331368    0.277020    1.152374
      7          8           0       -2.140207    0.699330    1.963727
      8          6           0       -0.188859    1.117184    0.683613
      9          6           0       -0.439639    2.483427    0.646857
     10          6           0        0.486440    3.388448    0.100330
     11          6           0        1.679672    2.917533   -0.403259
     12          6           0        2.001431    1.540916   -0.346832
     13          6           0        1.069233    0.609840    0.219863
     14          6           0        1.459966   -0.751957    0.337234
     15          6           0        2.685254   -1.180201   -0.137649
     16          6           0        3.587789   -0.263805   -0.738764
     17          6           0        3.250998    1.059485   -0.827348
     18          8           0        3.137458   -2.460175   -0.071227
     19          6           0        2.287018   -3.439359    0.506208
     20          1           0       -3.582564    0.063586   -2.757727
     21          1           0       -2.265523   -1.075859   -2.377630
     22          1           0       -2.234077    0.560668   -1.705580
     23          1           0       -3.600637   -1.368292    1.097259
     24          1           0       -1.264600   -1.885051    1.181132
     25          1           0       -1.059927   -1.215775   -0.432657
     26          1           0       -1.392454    2.834889    1.028255
     27          1           0        0.251236    4.447534    0.064699
     28          1           0        2.400259    3.600724   -0.845730
     29          1           0        0.808380   -1.451235    0.838516
     30          1           0        4.538508   -0.640950   -1.100022
     31          1           0        3.947379    1.770180   -1.264160
     32          1           0        2.077248   -3.214799    1.559933
     33          1           0        1.339710   -3.517446   -0.042848
     34          1           0        2.827423   -4.384201    0.436999
 ---------------------------------------------------------------------

 SCF Done:  E(UB3LYP) =  -861.397807039     A.U. after   25 cycles

 The electronic state is 2-A.
 Alpha  occ. eigenvalues --  -19.05088 -18.98279 -18.94773 -14.22151 -10.16775
 Alpha  occ. eigenvalues --  -10.13474 -10.11243 -10.09326 -10.09144 -10.07186
 Alpha  occ. eigenvalues --  -10.06012 -10.05065 -10.05025 -10.04964 -10.04687
 Alpha  occ. eigenvalues --  -10.03480 -10.03009 -10.02709 -10.02489  -0.96865
 Alpha  occ. eigenvalues --   -0.93334  -0.89019  -0.80840  -0.74583  -0.69495
 Alpha  occ. eigenvalues --   -0.65269  -0.63909  -0.63746  -0.60710  -0.59605
 Alpha  occ. eigenvalues --   -0.58548  -0.50257  -0.49494  -0.48295  -0.46426
 Alpha  occ. eigenvalues --   -0.42866  -0.42120  -0.39193  -0.38800  -0.37821
 Alpha  occ. eigenvalues --   -0.37686  -0.36914  -0.35563  -0.34077  -0.32709
 Alpha  occ. eigenvalues --   -0.32392  -0.31785  -0.30972  -0.30006  -0.29766
 Alpha  occ. eigenvalues --   -0.29646  -0.28331  -0.27675  -0.26826  -0.26070
 Alpha  occ. eigenvalues --   -0.25881  -0.24375  -0.24080  -0.22773  -0.21446
 Alpha  occ. eigenvalues --   -0.20722  -0.18472  -0.16312  -0.15678  -0.14970
 Alpha  occ. eigenvalues --   -0.11359  -0.10489  -0.09262   0.02525
 Alpha virt. eigenvalues --    0.06693   0.08482   0.08490   0.09355   0.09512
 Alpha virt. eigenvalues --    0.09823   0.10642   0.11098   0.11275   0.11370
 Alpha virt. eigenvalues --    0.11834   0.12185   0.13129   0.13651   0.13972

  Beta  occ. eigenvalues --  -19.05045 -18.98280 -18.94363 -14.22138 -10.16775
  Beta  occ. eigenvalues --  -10.13475 -10.11134 -10.09171 -10.09048 -10.07184
  Beta  occ. eigenvalues --  -10.05994 -10.05140 -10.04993 -10.04827 -10.04662
  Beta  occ. eigenvalues --  -10.03547 -10.02901 -10.02314 -10.02223  -0.96768
  Beta  occ. eigenvalues --   -0.93330  -0.88291  -0.80791  -0.74377  -0.69171
  Beta  occ. eigenvalues --   -0.64912  -0.63816  -0.63666  -0.60424  -0.59325
  Beta  occ. eigenvalues --   -0.58423  -0.49761  -0.49142  -0.48173  -0.46331
  Beta  occ. eigenvalues --   -0.42622  -0.41860  -0.39055  -0.38645  -0.37784
  Beta  occ. eigenvalues --   -0.37596  -0.36728  -0.35460  -0.33933  -0.32542
  Beta  occ. eigenvalues --   -0.32206  -0.31693  -0.30697  -0.29902  -0.29685
  Beta  occ. eigenvalues --   -0.29560  -0.28114  -0.27306  -0.26544  -0.25982
  Beta  occ. eigenvalues --   -0.25714  -0.23914  -0.23720  -0.21958  -0.20612
  Beta  occ. eigenvalues --   -0.20483  -0.17579  -0.15986  -0.15123  -0.14864
  Beta  occ. eigenvalues --   -0.10599  -0.10060  -0.07981
  Beta virt. eigenvalues --    0.06627   0.08087   0.08472   0.08581   0.09356
  Beta virt. eigenvalues --    0.09759   0.10569   0.10712   0.11106   0.11339
  Beta virt. eigenvalues --    0.11720   0.12049   0.12179   0.13139   0.13711

 Mulliken charges and spin densities:
               1          2
     1  C   -0.497224  -0.002277
     2  C    0.097932  -0.005785
     3  O   -0.364347   0.000509
     4  N   -0.062597  -0.016688
     5  C   -0.480267   0.006168
     6  C   -0.317635   0.168266
     7  O   -0.331880   0.144571
     8  C    0.563706   0.037750
     9  C   -0.168041   0.235495
    10  C   -0.372849  -0.046241
    11  C   -0.352211   0.292178
    12  C    0.387810  -0.058489
    13  C    0.310189   0.006794
    14  C    0.360937   0.015716
    15  C   -1.044106   0.076898
    16  C   -0.367286  -0.010058
    17  C   -0.069287   0.135309
    18  O   -0.159925   0.007165
    19  C   -0.325747  -0.009223
    20  H    0.174152  -0.000198
    21  H    0.152426   0.002845
    22  H    0.185791  -0.001630
    23  H    0.290981   0.000452
    24  H    0.132605   0.070920
    25  H    0.134373  -0.017231
    26  H    0.177944  -0.014489
    27  H    0.122637   0.002720
    28  H    0.076504  -0.023519
    29  H    0.047196  -0.000544
    30  H    0.142550  -0.000569
    31  H    0.103540  -0.009898
    32  H    0.159399  -0.002689
    33  H    0.141317   0.012407
    34  H    0.151411   0.003364
 Sum of Mulliken charges =  -1.00000   1.00000

 Dipole moment (field-independent basis, Debye):
    X=              4.4557    Y=             -4.2690    Z=             -2.0554  Tot=              6.5040
 Quadrupole moment (field-independent basis, Debye-Ang):
   XX=           -179.0829   YY=           -126.1106   ZZ=           -127.1680
   XY=             -1.6611   XZ=              3.0908   YZ=             -7.8961

 Summary of Natural Population Analysis:

                                       Natural Population
                Natural  -----------------------------------------------
    Atom  No    Charge         Core      Valence    Rydberg      Total
 -----------------------------------------------------------------------
      C    1   -0.33865      0.99962     2.33517    0.00385     3.33865
      C    2    0.34576      0.99971     1.63299    0.02153     2.65424
      O    3   -0.32705      0.99987     3.32024    0.00693     4.32705
      N    4   -0.31797      0.99968     2.80677    0.01153     3.81797
      C    5   -0.13642      0.99960     2.12454    0.01228     3.13642
      C    6    0.28483      0.99969     1.69094    0.02455     2.71517
      O    7   -0.26202      0.99988     3.25798    0.00416     4.26202
      C    8   -0.00139      0.99944     1.99163    0.01031     3.00139
      C    9   -0.03909      0.99959     2.02455    0.01495     3.03909
      C   10   -0.13178      0.99957     2.12286    0.00935     3.13178
      C   11   -0.01039      0.99954     2.00142    0.00943     3.01039
      C   12   -0.05891      0.99950     2.05108    0.00833     3.05891
      C   13   -0.02483      0.99953     2.01098    0.01432     3.02483
      C   14   -0.15168      0.99946     2.14561    0.00661     3.15168
      C   15    0.17626      0.99940     1.81218    0.01216     2.82374
      C   16   -0.13402      0.99953     2.12513    0.00936     3.13402
      C   17   -0.04594      0.99954     2.03799    0.00840     3.04594
      O   18   -0.27315      0.99985     3.26329    0.01002     4.27315
      C   19   -0.10178      0.99962     2.09415    0.00801     3.10178
      H   20    0.10799      0.00000     0.39100    0.00101     0.39201
      H   21    0.10514      0.00000     0.39406    0.00080     0.39486
      H   22    0.11933      0.00000     0.37984    0.00083     0.38067
      H   23    0.19646      0.00000     0.30176    0.00178     0.30354
      H   24    0.10079      0.00000     0.39750    0.00172     0.39921
      H   25    0.10330      0.00000     0.39535    0.00135     0.39670
      H   26    0.10168      0.00000     0.39696    0.00136     0.39832
      H   27    0.09139      0.00000     0.40752    0.00109     0.40861
      H   28    0.08419      0.00000     0.41423    0.00158     0.41581
      H   29    0.09893      0.00000     0.39937    0.00170     0.40107
      H   30    0.09795      0.00000     0.40097    0.00108     0.40205
      H   31    0.09024      0.00000     0.40828    0.00148     0.40976
      H   32    0.08265      0.00000     0.41589    0.00146     0.41735
      H   33    0.08362      0.00000     0.41492    0.00146     0.41638
      H   34    0.08729      0.00000     0.41192    0.00079     0.41271
 =======================================================================
   * Total *    0.00275     18.99262    48.77902    0.22561    67.99725

 Normal termination of Gaussian 16 at Sat Dec 12 10:48:58 2020.
