 Gaussian 16, Revision A.03,

 -----------------------------------------------------------
 # opt freq B3LYP/6-31G(d) empiricaldispersion=gd3bj scf=xqc
 -----------------------------------------------------------

 ------------------------------
 CID_54349050_JID_4093_neutraal
 ------------------------------
 Symbolic Z-matrix:
 Charge =  0 Multiplicity = 1

 SCF Done:  E(RB3LYP) =  -612.384487834     A.U. after   15 cycles
 SCF Done:  E(RB3LYP) =  -612.389403889     A.U. after   12 cycles
 SCF Done:  E(RB3LYP) =  -612.390124985     A.U. after   12 cycles
 SCF Done:  E(RB3LYP) =  -612.390546752     A.U. after   12 cycles
 SCF Done:  E(RB3LYP) =  -612.391085434     A.U. after   12 cycles
 SCF Done:  E(RB3LYP) =  -612.391583631     A.U. after   12 cycles
 SCF Done:  E(RB3LYP) =  -612.391903963     A.U. after   12 cycles
 SCF Done:  E(RB3LYP) =  -612.392173752     A.U. after   12 cycles
 SCF Done:  E(RB3LYP) =  -612.392237763     A.U. after   12 cycles
 SCF Done:  E(RB3LYP) =  -612.392279099     A.U. after   11 cycles
 SCF Done:  E(RB3LYP) =  -612.392283999     A.U. after    9 cycles
 SCF Done:  E(RB3LYP) =  -612.392285243     A.U. after   10 cycles
 SCF Done:  E(RB3LYP) =  -612.392287477     A.U. after   10 cycles
 SCF Done:  E(RB3LYP) =  -612.392287734     A.U. after    8 cycles
 Optimization completed.
    -- Stationary point found.
 Normal termination of Gaussian 16 at Mon Dec 14 16:35:07 2020.

 --------------------------------------------------------------------
 #N Geom=AllCheck Guess=TCheck SCRF=Check GenChk RB3LYP/6-31G(d) Freq
 --------------------------------------------------------------------

 Structure from the checkpoint file:  "JID_4093.chk"
 ------------------------------
 CID_54349050_JID_4093_neutraal
 ------------------------------
 Charge =  0 Multiplicity = 1

 SCF Done:  E(RB3LYP) =  -612.392287734     A.U. after    1 cycles

  Exact polarizability: 164.888  -5.788 125.541  -5.865  -7.956  84.608
 Approx polarizability: 220.680  -8.291 203.603  -7.708 -16.583 138.492

 ******    1 imaginary frequencies (negative Signs) ******

                      1                      2                      3
                      A                      A                      A
 Frequencies --    -25.0310                41.3155                64.9503
 Red. masses --      1.0303                 5.3479                 3.6500
 Frc consts  --      0.0004                 0.0054                 0.0091
 IR Inten    --      0.1614                 1.9997                 0.5401

                      4                      5                      6
                      A                      A                      A
 Frequencies --    128.7207               136.8287               228.6925
 Red. masses --      4.0121                 4.5740                 2.7353
 Frc consts  --      0.0392                 0.0505                 0.0843
 IR Inten    --      1.2132                 0.1868                 1.2502

                      7                      8                      9
                      A                      A                      A
 Frequencies --    233.3709               275.1685               291.0160
 Red. masses --      1.3748                 2.0464                 2.3180
 Frc consts  --      0.0441                 0.0913                 0.1157
 IR Inten    --      0.6105                 4.0907                 1.5824

                     10                     11                     12
                      A                      A                      A
 Frequencies --    313.8943               343.0834               356.3521
 Red. masses --      3.2622                 3.8745                 3.6480
 Frc consts  --      0.1894                 0.2687                 0.2729
 IR Inten    --      1.1559                 3.2717                 6.8716

                     13                     14                     15
                      A                      A                      A
 Frequencies --    381.7888               433.0789               465.3583
 Red. masses --      4.2205                 3.2296                 3.3969
 Frc consts  --      0.3625                 0.3569                 0.4334
 IR Inten    --      2.3651                 2.4421                 0.2914

                     16                     17                     18
                      A                      A                      A
 Frequencies --    510.9681               528.3223               548.4042
 Red. masses --      4.4466                 3.7107                 1.7509
 Frc consts  --      0.6840                 0.6102                 0.3103
 IR Inten    --      6.8743                 4.3133                47.3385

                     19                     20                     21
                      A                      A                      A
 Frequencies --    570.4338               622.8201               671.6111
 Red. masses --      2.0312                 3.1710                 4.5068
 Frc consts  --      0.3894                 0.7247                 1.1977
 IR Inten    --     31.2972                20.0438                18.3550

                     22                     23                     24
                      A                      A                      A
 Frequencies --    701.7068               729.4026               744.6972
 Red. masses --      4.7347                 3.9773                 2.9903
 Frc consts  --      1.3736                 1.2467                 0.9771
 IR Inten    --     13.3548                 5.1482                29.3568

                     25                     26                     27
                      A                      A                      A
 Frequencies --    788.7036               799.1616               834.5828
 Red. masses --      2.9118                 3.8510                 1.5282
 Frc consts  --      1.0672                 1.4491                 0.6271
 IR Inten    --     31.5452                 3.7066                43.6295

                     28                     29                     30
                      A                      A                      A
 Frequencies --    860.7616               902.3068               931.1554
 Red. masses --      2.0095                 1.4295                 1.8247
 Frc consts  --      0.8772                 0.6857                 0.9321
 IR Inten    --      5.5800                 3.0091                 0.3859

                     31                     32                     33
                      A                      A                      A
 Frequencies --    960.6270               968.7891               981.7629
 Red. masses --      2.6682                 1.3365                 1.7715
 Frc consts  --      1.4507                 0.7390                 1.0060
 IR Inten    --      1.3042                 0.1966                 3.3770

                     34                     35                     36
                      A                      A                      A
 Frequencies --   1037.6733              1063.6847              1076.3678
 Red. masses --      1.5089                 1.8489                 1.5139
 Frc consts  --      0.9572                 1.2325                 1.0334
 IR Inten    --      0.8339                30.6682                 4.3537

                     37                     38                     39
                      A                      A                      A
 Frequencies --   1102.8202              1125.3345              1158.1327
 Red. masses --      2.9263                 2.4751                 1.5835
 Frc consts  --      2.0969                 1.8467                 1.2513
 IR Inten    --     21.3064                 3.5321                 4.7449

                     40                     41                     42
                      A                      A                      A
 Frequencies --   1178.8908              1192.4384              1248.7962
 Red. masses --      1.9240                 2.5962                 1.7249
 Frc consts  --      1.5754                 2.1750                 1.5849
 IR Inten    --     15.4601                20.4407                 8.5060

                     43                     44                     45
                      A                      A                      A
 Frequencies --   1277.4177              1298.5100              1316.3202
 Red. masses --      1.5290                 4.3050                 1.5478
 Frc consts  --      1.4700                 4.2767                 1.5801
 IR Inten    --      8.2195                10.6549                 4.4386

                     46                     47                     48
                      A                      A                      A
 Frequencies --   1327.0645              1342.4291              1351.6491
 Red. masses --      1.3557                 1.5272                 2.4220
 Frc consts  --      1.4067                 1.6215                 2.6071
 IR Inten    --      5.4175                 1.0869               150.7718

                     49                     50                     51
                      A                      A                      A
 Frequencies --   1361.2561              1419.3473              1426.8752
 Red. masses --      2.4027                 1.3260                 1.4250
 Frc consts  --      2.6232                 1.5739                 1.7093
 IR Inten    --      8.2107                 4.4254                32.0433

                     52                     53                     54
                      A                      A                      A
 Frequencies --   1443.1863              1461.0318              1482.1569
 Red. masses --      1.2476                 2.2909                 1.3688
 Frc consts  --      1.5310                 2.8812                 1.7717
 IR Inten    --      0.1276                15.9002                12.9225

                     55                     56                     57
                      A                      A                      A
 Frequencies --   1489.1684              1516.0006              1522.9647
 Red. masses --      1.9153                 1.0460                 1.0523
 Frc consts  --      2.5025                 1.4163                 1.4380
 IR Inten    --     26.1882                 5.5846                 7.1154

                     58                     59                     60
                      A                      A                      A
 Frequencies --   1527.0643              1532.3466              1534.2184
 Red. masses --      1.1115                 1.0903                 1.1137
 Frc consts  --      1.5272                 1.5084                 1.5445
 IR Inten    --      7.1100                 4.6717                11.4169

                     61                     62                     63
                      A                      A                      A
 Frequencies --   1550.2800              1640.9770              1677.0808
 Red. masses --      2.9808                 5.6183                 6.3210
 Frc consts  --      4.2208                 8.9137                10.4748
 IR Inten    --     60.1873                 2.2701                 0.6503

                     64                     65                     66
                      A                      A                      A
 Frequencies --   1769.1802              3012.6498              3044.7330
 Red. masses --      7.9615                 1.0729                 1.0380
 Frc consts  --     14.6822                 5.7371                 5.6693
 IR Inten    --    304.4843                48.8552                33.5714

                     67                     68                     69
                      A                      A                      A
 Frequencies --   3049.2173              3069.6329              3097.3261
 Red. masses --      1.0476                 1.0804                 1.1003
 Frc consts  --      5.7389                 5.9979                 6.2191
 IR Inten    --     21.3517                14.7255                20.2274

                     70                     71                     72
                      A                      A                      A
 Frequencies --   3113.7698              3127.3169              3128.2668
 Red. masses --      1.0913                 1.0931                 1.1010
 Frc consts  --      6.2340                 6.2988                 6.3483
 IR Inten    --     17.1904                23.8432                16.9937

                     73                     74                     75
                      A                      A                      A
 Frequencies --   3165.8549              3172.5515              3185.0582
 Red. masses --      1.0899                 1.1024                 1.0887
 Frc consts  --      6.4362                 6.5375                 6.5072
 IR Inten    --     20.2504                 7.9206                16.1868

                     76                     77                     78
                      A                      A                      A
 Frequencies --   3213.3351              3480.3187              3593.6310
 Red. masses --      1.0936                 1.0728                 1.0762
 Frc consts  --      6.6529                 7.6562                 8.1883
 IR Inten    --     10.0016                 0.1438                21.4160

 - Thermochemistry -
 -------------------
 Temperature   298.150 Kelvin.  Pressure   1.00000 Atm.
 Atom     1 has atomic number  6 and mass  12.00000

 Molecular mass:   190.11061 amu.
 Principal axes and moments of inertia in atomic units:
                           1         2         3
     Eigenvalues --  1247.589284064.894014702.62717
           X            0.99965  -0.02272  -0.01386
           Y            0.02229   0.99929  -0.03035
           Z            0.01454   0.03003   0.99944
 This molecule is an asymmetric top.
 Rotational symmetry number  1.
 Warning -- assumption of classical behavior for rotation
           may cause significant error
 Rotational temperatures (Kelvin)      0.06943     0.02131     0.01842
 Rotational constants (GHZ):           1.44658     0.44398     0.38377
    1 imaginary frequencies ignored.
 Zero-point vibrational energy     623578.4 (Joules/Mol)
                                  149.03881 (Kcal/Mol)
 Warning -- explicit consideration of  18 degrees of freedom as
           vibrations may cause significant error
 Vibrational temperatures:     59.44    93.45   185.20   196.87   329.04
          (Kelvin)            335.77   395.91   418.71   451.62   493.62
                              512.71   549.31   623.10   669.55   735.17
                              760.14   789.03   820.73   896.10   966.30
                             1009.60  1049.45  1071.45  1134.77  1149.82
                             1200.78  1238.44  1298.22  1339.72  1382.13
                             1393.87  1412.54  1492.98  1530.41  1548.65
                             1586.71  1619.11  1666.29  1696.16  1715.65
                             1796.74  1837.92  1868.27  1893.89  1909.35
                             1931.46  1944.72  1958.54  2042.12  2052.96
                             2076.42  2102.10  2132.49  2142.58  2181.19
                             2191.21  2197.10  2204.70  2207.40  2230.51
                             2361.00  2412.95  2545.46  4334.53  4380.69
                             4387.14  4416.52  4456.36  4480.02  4499.51
                             4500.88  4554.96  4564.59  4582.59  4623.27
                             5007.40  5170.43

 Zero-point correction=                           0.237508 (Hartree/Particle)
 Thermal correction to Energy=                    0.249471
 Thermal correction to Enthalpy=                  0.250415
 Thermal correction to Gibbs Free Energy=         0.199279
 Sum of electronic and zero-point Energies=           -612.154779
 Sum of electronic and thermal Energies=              -612.142817
 Sum of electronic and thermal Enthalpies=            -612.141872
 Sum of electronic and thermal Free Energies=         -612.193008

                     E (Thermal)             CV                S
                      KCal/Mol        Cal/Mol-Kelvin    Cal/Mol-Kelvin
 Total                  156.546             47.644            107.625
 Electronic               0.000              0.000              0.000
 Translational            0.889              2.981             41.633
 Rotational               0.889              2.981             31.545
 Vibrational            154.768             41.682             34.447
 Vibration     1          0.594              1.981              5.195
 Vibration     2          0.597              1.971              4.301
 Vibration     3          0.611              1.925              2.965
 Vibration     4          0.614              1.917              2.848
 Vibration     5          0.651              1.797              1.889
 Vibration     6          0.654              1.790              1.853
 Vibration     7          0.677              1.719              1.564
 Vibration     8          0.687              1.690              1.468
 Vibration     9          0.702              1.647              1.342
 Vibration    10          0.722              1.589              1.198
 Vibration    11          0.732              1.562              1.138
 Vibration    12          0.751              1.509              1.032
 Vibration    13          0.794              1.398              0.849
 Vibration    14          0.823              1.327              0.751
 Vibration    15          0.866              1.226              0.631
 Vibration    16          0.883              1.187              0.591
 Vibration    17          0.904              1.143              0.547
 Vibration    18          0.927              1.095              0.503

                           ! Non-Optimized Parameters !
 Normal termination of Gaussian 16 at Mon Dec 14 16:43:02 2020.

 ----------------------------------------------------------------------
 # B3LYP/6-311++G(d,p) empiricaldispersion=gd3bj scf=xqc pop=npa geom=c
 heck
 ----------------------------------------------------------------------

 --------------------------------------
 CID_54349050_JID_4093_Energie_neutraal
 --------------------------------------
 Structure from the checkpoint file:  "JID_4093.chk"
 Charge =  0 Multiplicity = 1

 SCF Done:  E(RB3LYP) =  -612.564455783     A.U. after   16 cycles
 Normal termination of Gaussian 16 at Mon Dec 14 16:46:57 2020.

 ----------------------------------------------------------------------
 # B3LYP/6-311++G(d,p) empiricaldispersion=gd3bj scf=xqc pop=npa geom=c
 heck
 ----------------------------------------------------------------------

 ------------------------------------
 CID_54349050_JID_4093_Energie_kation
 ------------------------------------
 Structure from the checkpoint file:  "JID_4093.chk"
 Charge =  1 Multiplicity = 2

 SCF Done:  E(UB3LYP) =  -612.265575074     A.U. after   26 cycles
 Normal termination of Gaussian 16 at Mon Dec 14 16:55:33 2020.
 Gaussian 16:  ES64L-G16RevA.03 25-Dec-2016

 ----------------------------------------------------------------------
 # B3LYP/6-311++G(d,p) empiricaldispersion=gd3bj scf=xqc pop=npa geom=c
 heck
 ----------------------------------------------------------------------

 -----------------------------------
 CID_54349050_JID_4093_Energie_anion
 -----------------------------------
 Structure from the checkpoint file:  "JID_4093.chk"
 Charge = -1 Multiplicity = 2

                         Standard orientation:
 ---------------------------------------------------------------------
 Center     Atomic      Atomic             Coordinates (Angstroms)
 Number     Number       Type             X           Y           Z
 ---------------------------------------------------------------------
      1          6           0       -3.388853    1.350777    0.168118
      2          6           0       -2.025107    0.789049   -0.246468
      3          6           0       -2.187288   -0.718929   -0.547785
      4          8           0       -2.992610   -1.067770   -1.404806
      5          7           0       -1.474395   -1.661328    0.147756
      6          6           0       -0.343154   -1.517661    1.070345
      7          6           0        0.705257   -0.548512    0.583355
      8          6           0        0.325238    0.793950    0.420680
      9          7           0       -1.010153    1.213566    0.723908
     10          6           0        1.251946    1.713579   -0.063045
     11          6           0        2.550223    1.306067   -0.375018
     12          6           0        2.949023   -0.023044   -0.204867
     13          6           0        2.006293   -0.941056    0.279248
     14          6           0        4.349485   -0.471404   -0.545978
     15          1           0       -3.329808    2.439090    0.254149
     16          1           0       -3.693665    0.943739    1.141023
     17          1           0       -4.145707    1.075089   -0.567991
     18          1           0       -1.746336    1.228639   -1.211291
     19          1           0       -1.676926   -2.595369   -0.186532
     20          1           0        0.094631   -2.512441    1.185234
     21          1           0       -0.704508   -1.223559    2.066653
     22          1           0       -1.282649    0.906216    1.656253
     23          1           0        0.943960    2.747690   -0.181782
     24          1           0        3.265840    2.033551   -0.749630
     25          1           0        2.295021   -1.982379    0.411177
     26          1           0        4.812246   -1.010238    0.289211
     27          1           0        4.351387   -1.150304   -1.408038
     28          1           0        4.990854    0.379880   -0.793142
 ---------------------------------------------------------------------

 SCF Done:  E(UB3LYP) =  -612.553863869     A.U. after   33 cycles
 SCF Done:  E(UB3LYP) =  -612.553863869     a.u. after    1 cycles

 The electronic state is 2-A.
 Alpha  occ. eigenvalues --  -18.98657 -14.23753 -14.21348 -10.17154 -10.11957
 Alpha  occ. eigenvalues --  -10.11449 -10.10548 -10.08797 -10.08396 -10.07707
 Alpha  occ. eigenvalues --  -10.07645 -10.07423 -10.07269 -10.07246  -0.93947
 Alpha  occ. eigenvalues --   -0.84184  -0.81187  -0.75872  -0.68966  -0.66804
 Alpha  occ. eigenvalues --   -0.64792  -0.60105  -0.57805  -0.55348  -0.51553
 Alpha  occ. eigenvalues --   -0.48520  -0.46931  -0.42884  -0.40324  -0.40032
 Alpha  occ. eigenvalues --   -0.37841  -0.36287  -0.35499  -0.34957  -0.33369
 Alpha  occ. eigenvalues --   -0.32569  -0.32435  -0.30818  -0.30261  -0.29314
 Alpha  occ. eigenvalues --   -0.28549  -0.27987  -0.26496  -0.25518  -0.24914
 Alpha  occ. eigenvalues --   -0.24419  -0.18426  -0.15990  -0.15598  -0.14871
 Alpha  occ. eigenvalues --   -0.13269   0.04292
 Alpha virt. eigenvalues --    0.06279   0.06980   0.07437   0.07972   0.08261
 Alpha virt. eigenvalues --    0.08651   0.09299   0.10331   0.10492   0.10857
 Alpha virt. eigenvalues --    0.11048   0.11255   0.12260   0.13133   0.13236

  Beta  occ. eigenvalues --  -18.98647 -14.23736 -14.21328 -10.17150 -10.11954
  Beta  occ. eigenvalues --  -10.11398 -10.10549 -10.08804 -10.08382 -10.07692
  Beta  occ. eigenvalues --  -10.07620 -10.07384 -10.07255 -10.07213  -0.93928
  Beta  occ. eigenvalues --   -0.84155  -0.81149  -0.75837  -0.68934  -0.66750
  Beta  occ. eigenvalues --   -0.64760  -0.60026  -0.57745  -0.55304  -0.51490
  Beta  occ. eigenvalues --   -0.48483  -0.46881  -0.42839  -0.40288  -0.39944
  Beta  occ. eigenvalues --   -0.37804  -0.36227  -0.35457  -0.34919  -0.33325
  Beta  occ. eigenvalues --   -0.32534  -0.32404  -0.30773  -0.30208  -0.29283
  Beta  occ. eigenvalues --   -0.28514  -0.27963  -0.26459  -0.25455  -0.24874
  Beta  occ. eigenvalues --   -0.24385  -0.18399  -0.15892  -0.15536  -0.14817
  Beta  occ. eigenvalues --   -0.13242
  Beta virt. eigenvalues --    0.06563   0.07096   0.07539   0.07730   0.08238
  Beta virt. eigenvalues --    0.08712   0.09275   0.09727   0.10608   0.10708
  Beta virt. eigenvalues --    0.11146   0.11244   0.11792   0.12637   0.13112

 Mulliken charges and spin densities:
               1          2
     1  C    0.127880  -0.649182
     2  C   -0.299627   0.085861
     3  C   -0.088800   0.095748
     4  O   -0.362908   0.013954
     5  N   -0.468017   0.270081
     6  C    2.926300  -3.826623
     7  C   -1.997886   3.277645
     8  C   -1.655328   0.936943
     9  N    0.050518   0.079527
    10  C    0.175916  -0.418321
    11  C   -0.010117  -0.899954
    12  C    0.321506   0.333543
    13  C    0.134358  -0.260944
    14  C    2.426907  -2.912475
    15  H    0.094848   0.063236
    16  H   -0.088763   0.236187
    17  H    0.172566  -0.002785
    18  H    0.160548   0.031187
    19  H    0.006280   0.326354
    20  H   -1.050623   1.245823
    21  H   -0.545385   0.746959
    22  H    0.087505   0.192629
    23  H    0.050486   0.120128
    24  H   -0.143043   0.259300
    25  H   -0.440718   0.607312
    26  H   -0.260867   0.419028
    27  H   -0.042613   0.204917
    28  H   -0.280922   0.423921
 Sum of Mulliken charges =  -1.00000   1.00000

 Dipole moment (field-independent basis, Debye):
    X=             -1.6717    Y=              5.8502    Z=             -2.1517  Tot=              6.4536
 Quadrupole moment (field-independent basis, Debye-Ang):
   XX=           -152.6626   YY=           -127.6948   ZZ=           -121.7150
   XY=             -0.6168   XZ=             -2.3796   YZ=              4.6627

 Summary of Natural Population Analysis:

                                       Natural Population
                Natural  -----------------------------------------------
    Atom  No    Charge         Core      Valence    Rydberg      Total
 -----------------------------------------------------------------------
      C    1   -0.28315      0.99964     2.27858    0.00492     3.28315
      C    2   -0.04628      0.99956     2.03364    0.01307     3.04628
      C    3    0.34072      0.99964     1.63586    0.02378     2.65928
      O    4   -0.33174      0.99988     3.32599    0.00588     4.33174
      N    5   -0.31583      0.99967     2.80484    0.01131     3.81583
      C    6   -0.09504      0.99957     2.08175    0.01373     3.09504
      C    7   -0.02254      0.99945     2.01248    0.01061     3.02254
      C    8    0.07160      0.99941     1.91596    0.01304     2.92840
      N    9   -0.34522      0.99972     2.83333    0.01217     3.84522
      C   10   -0.09439      0.99950     2.08591    0.00898     3.09439
      C   11   -0.09807      0.99951     2.08989    0.00867     3.09807
      C   12   -0.01570      0.99952     2.00600    0.01018     3.01570
      C   13   -0.08831      0.99947     2.07859    0.01025     3.08831
      C   14   -0.29074      0.99964     2.28601    0.00510     3.29074
      H   15    0.10050      0.00000     0.39852    0.00097     0.39950
      H   16    0.09778      0.00000     0.40110    0.00112     0.40222
      H   17    0.11019      0.00000     0.38896    0.00085     0.38981
      H   18    0.10362      0.00000     0.39512    0.00126     0.39638
      H   19    0.19775      0.00000     0.29930    0.00296     0.30225
      H   20    0.11078      0.00000     0.38415    0.00507     0.38922
      H   21    0.10007      0.00000     0.39545    0.00448     0.39993
      H   22    0.17931      0.00000     0.31736    0.00333     0.32069
      H   23    0.10271      0.00000     0.39608    0.00121     0.39729
      H   24    0.09782      0.00000     0.40130    0.00089     0.40218
      H   25    0.10339      0.00000     0.39489    0.00172     0.39661
      H   26    0.10613      0.00000     0.39230    0.00157     0.39387
      H   27    0.10430      0.00000     0.39437    0.00133     0.39570
      H   28    0.10035      0.00000     0.39840    0.00125     0.39965
 =======================================================================
   * Total *   -0.00000     13.99417    36.82615    0.17968    51.00000

 Normal termination of Gaussian 16 at Mon Dec 14 17:06:27 2020.
