 Gaussian 16, Revision A.03,

 -----------------------------------------------------------
 # opt freq B3LYP/6-31G(d) empiricaldispersion=gd3bj scf=xqc
 -----------------------------------------------------------

 -------------------------------
 CID_150571041_JID_8181_neutraal
 -------------------------------
 Symbolic Z-matrix:
 Charge =  0 Multiplicity = 1

 SCF Done:  E(RB3LYP) =  -804.544073366     A.U. after   15 cycles
 SCF Done:  E(RB3LYP) =  -804.548127375     A.U. after   13 cycles
 SCF Done:  E(RB3LYP) =  -804.553091322     A.U. after   12 cycles
 SCF Done:  E(RB3LYP) =  -804.553486088     A.U. after   12 cycles
 SCF Done:  E(RB3LYP) =  -804.553751194     A.U. after   12 cycles
 SCF Done:  E(RB3LYP) =  -804.553792369     A.U. after   10 cycles
 SCF Done:  E(RB3LYP) =  -804.553831595     A.U. after   10 cycles
 SCF Done:  E(RB3LYP) =  -804.553240497     A.U. after   13 cycles
 SCF Done:  E(RB3LYP) =  -804.553929499     A.U. after   11 cycles
 SCF Done:  E(RB3LYP) =  -804.553968566     A.U. after   11 cycles
 SCF Done:  E(RB3LYP) =  -804.554183137     A.U. after   10 cycles
 SCF Done:  E(RB3LYP) =  -804.554189661     A.U. after    9 cycles
 SCF Done:  E(RB3LYP) =  -804.554192783     A.U. after   10 cycles
 SCF Done:  E(RB3LYP) =  -804.554193236     A.U. after    8 cycles
 SCF Done:  E(RB3LYP) =  -804.554193496     A.U. after    8 cycles
 SCF Done:  E(RB3LYP) =  -804.554193574     A.U. after    8 cycles
 Optimization completed.
    -- Stationary point found.
 Normal termination of Gaussian 16 at Fri Dec 11 19:31:07 2020.

 --------------------------------------------------------------------
 #N Geom=AllCheck Guess=TCheck SCRF=Check GenChk RB3LYP/6-31G(d) Freq
 --------------------------------------------------------------------

 Structure from the checkpoint file:  "JID_8181.chk"
 -------------------------------
 CID_150571041_JID_8181_neutraal
 -------------------------------
 Charge =  0 Multiplicity = 1

 SCF Done:  E(RB3LYP) =  -804.554193574     A.U. after    1 cycles

  Exact polarizability: 319.534  11.124 180.215  -2.833   4.106  59.015
 Approx polarizability: 541.857  32.772 323.385  -4.924   7.468  94.448

                      1                      2                      3
                      A                      A                      A
 Frequencies --     30.9005                62.3357                82.8023
 Red. masses --      3.2488                 6.3686                 3.7006
 Frc consts  --      0.0018                 0.0146                 0.0149
 IR Inten    --      0.8309                 0.3092                 3.1329

                      4                      5                      6
                      A                      A                      A
 Frequencies --    127.5253               149.3027               205.7057
 Red. masses --      4.5756                 6.0379                 4.9400
 Frc consts  --      0.0438                 0.0793                 0.1232
 IR Inten    --      6.1838                 1.5281                 1.9899

                      7                      8                      9
                      A                      A                      A
 Frequencies --    218.7607               274.0306               289.3353
 Red. masses --      3.6836                 3.4399                 1.5804
 Frc consts  --      0.1039                 0.1522                 0.0780
 IR Inten    --      5.3609                 6.7625                60.6206

                     10                     11                     12
                      A                      A                      A
 Frequencies --    313.8274               329.9479               334.6949
 Red. masses --      1.1527                 7.2564                 5.0904
 Frc consts  --      0.0669                 0.4654                 0.3360
 IR Inten    --    122.1002                 0.3637                 0.5046

                     13                     14                     15
                      A                      A                      A
 Frequencies --    345.9084               358.1788               408.4422
 Red. masses --      3.6418                 5.7711                 5.0289
 Frc consts  --      0.2567                 0.4362                 0.4943
 IR Inten    --      4.1918                 8.0536                 5.8170

                     16                     17                     18
                      A                      A                      A
 Frequencies --    432.4523               440.8709               474.8479
 Red. masses --      3.6277                 4.5568                 2.9473
 Frc consts  --      0.3997                 0.5218                 0.3915
 IR Inten    --      0.5842                16.9750                 5.2164

                     19                     20                     21
                      A                      A                      A
 Frequencies --    475.5826               511.5296               527.5006
 Red. masses --      4.7117                 4.6535                 3.4891
 Frc consts  --      0.6279                 0.7174                 0.5720
 IR Inten    --     13.2954                 2.2285                 0.4367

                     22                     23                     24
                      A                      A                      A
 Frequencies --    605.1036               612.8533               616.0375
 Red. masses --      6.2441                 6.5428                 4.0246
 Frc consts  --      1.3470                 1.4479                 0.8999
 IR Inten    --      3.8047                20.3373                 0.1250

                     25                     26                     27
                      A                      A                      A
 Frequencies --    640.6039               666.3299               719.6861
 Red. masses --      3.0744                 5.3675                 1.9450
 Frc consts  --      0.7433                 1.4041                 0.5935
 IR Inten    --      7.7227                 8.4893                69.2186

                     28                     29                     30
                      A                      A                      A
 Frequencies --    728.9092               739.6967               758.6785
 Red. masses --      1.7609                 4.0056                 3.2503
 Frc consts  --      0.5512                 1.2913                 1.1023
 IR Inten    --     62.2209                 0.6196                 3.6671

                     31                     32                     33
                      A                      A                      A
 Frequencies --    777.1285               794.5302               819.4586
 Red. masses --      6.7438                 1.6241                 4.7482
 Frc consts  --      2.3996                 0.6041                 1.8786
 IR Inten    --     12.2228                20.0100                 5.1078

                     34                     35                     36
                      A                      A                      A
 Frequencies --    823.0037               841.1391               857.0715
 Red. masses --      1.5722                 1.4530                 4.2505
 Frc consts  --      0.6274                 0.6057                 1.8396
 IR Inten    --      1.2942                 1.6257                 7.4011

                     37                     38                     39
                      A                      A                      A
 Frequencies --    886.5907               900.1001               936.7607
 Red. masses --      1.5911                 1.4711                 4.4009
 Frc consts  --      0.7369                 0.7022                 2.2753
 IR Inten    --     43.9856                11.5641                10.5961

                     40                     41                     42
                      A                      A                      A
 Frequencies --    939.9418               962.7626               991.5216
 Red. masses --      1.3063                 1.2711                 3.2089
 Frc consts  --      0.6800                 0.6942                 1.8587
 IR Inten    --      3.2345                 0.7516                25.7172

                     43                     44                     45
                      A                      A                      A
 Frequencies --   1019.4828              1070.9799              1094.5328
 Red. masses --      2.1771                 3.0337                 3.1069
 Frc consts  --      1.3332                 2.0502                 2.1930
 IR Inten    --     11.8095                 9.7390                45.9983

                     46                     47                     48
                      A                      A                      A
 Frequencies --   1169.1594              1185.5679              1193.9807
 Red. masses --      1.5154                 1.3097                 1.4824
 Frc consts  --      1.2205                 1.0846                 1.2452
 IR Inten    --     11.3344                 6.1720                23.6381

                     49                     50                     51
                      A                      A                      A
 Frequencies --   1213.3770              1238.2370              1247.1784
 Red. masses --      1.3757                 1.4435                 1.1591
 Frc consts  --      1.1934                 1.3040                 1.0623
 IR Inten    --    170.6615                85.4249                63.2923

                     52                     53                     54
                      A                      A                      A
 Frequencies --   1272.5122              1277.1644              1301.6188
 Red. masses --      2.5209                 2.2813                 1.4018
 Frc consts  --      2.4051                 2.1924                 1.3992
 IR Inten    --    184.5187                37.2366                65.3473

                     55                     56                     57
                      A                      A                      A
 Frequencies --   1322.1111              1325.2777              1355.1807
 Red. masses --      3.2680                 1.4608                 3.9845
 Frc consts  --      3.3656                 1.5117                 4.3114
 IR Inten    --     17.6356                 2.1724                48.3684

                     58                     59                     60
                      A                      A                      A
 Frequencies --   1378.7110              1404.6452              1428.2634
 Red. masses --      2.4601                 4.5451                 1.9356
 Frc consts  --      2.7552                 5.2836                 2.3264
 IR Inten    --    199.9128                 2.4425                 1.4922

                     61                     62                     63
                      A                      A                      A
 Frequencies --   1455.1737              1462.0186              1469.0575
 Red. masses --      4.0201                 2.1710                 2.0097
 Frc consts  --      5.0155                 2.7341                 2.5555
 IR Inten    --     16.2373                28.1462                17.9429

                     64                     65                     66
                      A                      A                      A
 Frequencies --   1508.3156              1520.5046              1542.3711
 Red. masses --      3.1848                 2.1943                 1.2413
 Frc consts  --      4.2689                 2.9889                 1.7398
 IR Inten    --    163.4104                55.4974                 4.1047

                     67                     68                     69
                      A                      A                      A
 Frequencies --   1550.0941              1612.4587              1632.0394
 Red. masses --      2.5231                 5.3358                 4.3712
 Frc consts  --      3.5719                 8.1738                 6.8598
 IR Inten    --     27.6945                43.1528                20.7400

                     70                     71                     72
                      A                      A                      A
 Frequencies --   1659.7050              1684.0370              1705.2366
 Red. masses --      5.6970                 5.8283                 6.0466
 Frc consts  --      9.2461                 9.7386                10.3593
 IR Inten    --      8.1477               385.1715                41.6440

                     73                     74                     75
                      A                      A                      A
 Frequencies --   2990.6231              3061.1448              3166.0691
 Red. masses --      1.0695                 1.0929                 1.0874
 Frc consts  --      5.6355                 6.0337                 6.4222
 IR Inten    --     50.3101                28.9162                16.3748

                     76                     77                     78
                      A                      A                      A
 Frequencies --   3172.0273              3187.1089              3193.2773
 Red. masses --      1.0899                 1.0886                 1.0941
 Frc consts  --      6.4611                 6.5151                 6.5731
 IR Inten    --     10.0187                12.1590                29.3479

                     79                     80                     81
                      A                      A                      A
 Frequencies --   3202.5275              3206.9878              3220.3915
 Red. masses --      1.0889                 1.0898                 1.0943
 Frc consts  --      6.5799                 6.6040                 6.6865
 IR Inten    --      6.1209                16.3242                12.7764

                     82                     83                     84
                      A                      A                      A
 Frequencies --   3516.1331              3757.0188              3771.6450
 Red. masses --      1.0646                 1.0661                 1.0666
 Frc consts  --      7.7548                 8.8658                 8.9399
 IR Inten    --    386.8978                72.5189                31.5901

 - Thermochemistry -
 -------------------
 Temperature   298.150 Kelvin.  Pressure   1.00000 Atm.
 Atom     1 has atomic number  6 and mass  12.00000

 Molecular mass:   240.07864 amu.
 Principal axes and moments of inertia in atomic units:
                           1         2         3
     Eigenvalues --  1812.941157893.986909673.53726
           X            0.99996  -0.00887  -0.00104
           Y            0.00887   0.99995   0.00488
           Z            0.00100  -0.00489   0.99999
 This molecule is an asymmetric top.
 Rotational symmetry number  1.
 Warning -- assumption of classical behavior for rotation
           may cause significant error
 Rotational temperatures (Kelvin)      0.04778     0.01097     0.00895
 Rotational constants (GHZ):           0.99548     0.22862     0.18656
 Zero-point vibrational energy     620600.7 (Joules/Mol)
                                  148.32713 (Kcal/Mol)
 Warning -- explicit consideration of  24 degrees of freedom as
           vibrations may cause significant error
 Vibrational temperatures:     44.46    89.69   119.13   183.48   214.81
          (Kelvin)            295.96   314.75   394.27   416.29   451.53
                              474.72   481.55   497.69   515.34   587.66
                              622.20   634.31   683.20   684.26   735.98
                              758.96   870.61   881.76   886.34   921.69
                              958.70  1035.47  1048.74  1064.26  1091.57
                             1118.11  1143.15  1179.02  1184.12  1210.21
                             1233.13  1275.61  1295.04  1347.79  1352.37
                             1385.20  1426.58  1466.81  1540.90  1574.79
                             1682.16  1705.77  1717.87  1745.78  1781.55
                             1794.41  1830.86  1837.55  1872.74  1902.22
                             1906.78  1949.80  1983.66  2020.97  2054.95
                             2093.67  2103.52  2113.65  2170.13  2187.67
                             2219.13  2230.24  2319.97  2348.14  2387.95
                             2422.95  2453.46  4302.84  4404.30  4555.27
                             4563.84  4585.54  4594.41  4607.72  4614.14
                             4633.43  5058.93  5405.51  5426.56

 Zero-point correction=                           0.236374 (Hartree/Particle)
 Thermal correction to Energy=                    0.250770
 Thermal correction to Enthalpy=                  0.251714
 Thermal correction to Gibbs Free Energy=         0.194907
 Sum of electronic and zero-point Energies=           -804.317819
 Sum of electronic and thermal Energies=              -804.303424
 Sum of electronic and thermal Enthalpies=            -804.302480
 Sum of electronic and thermal Free Energies=         -804.359287

                     E (Thermal)             CV                S
                      KCal/Mol        Cal/Mol-Kelvin    Cal/Mol-Kelvin
 Total                  157.360             58.467            119.560
 Electronic               0.000              0.000              0.000
 Translational            0.889              2.981             42.329
 Rotational               0.889              2.981             33.292
 Vibrational            155.583             52.505             43.939
 Vibration     1          0.594              1.984              5.771
 Vibration     2          0.597              1.972              4.382
 Vibration     3          0.600              1.961              3.823
 Vibration     4          0.611              1.926              2.983
 Vibration     5          0.618              1.903              2.681
 Vibration     6          0.640              1.832              2.081
 Vibration     7          0.647              1.812              1.969
 Vibration     8          0.676              1.721              1.571
 Vibration     9          0.686              1.694              1.478
 Vibration    10          0.702              1.647              1.342
 Vibration    11          0.713              1.616              1.260
 Vibration    12          0.716              1.606              1.237
 Vibration    13          0.724              1.584              1.185
 Vibration    14          0.733              1.558              1.130
 Vibration    15          0.773              1.452              0.932
 Vibration    16          0.793              1.400              0.851
 Vibration    17          0.801              1.381              0.824
 Vibration    18          0.832              1.306              0.724
 Vibration    19          0.832              1.304              0.722
 Vibration    20          0.867              1.224              0.630
 Vibration    21          0.882              1.189              0.593
 Vibration    22          0.964              1.021              0.441
 Vibration    23          0.972              1.005              0.428
 Vibration    24          0.976              0.998              0.423

                           ! Non-Optimized Parameters !
 Normal termination of Gaussian 16 at Fri Dec 11 19:41:29 2020.

 ----------------------------------------------------------------------
 # B3LYP/6-311++G(d,p) empiricaldispersion=gd3bj scf=xqc pop=npa geom=c
 heck
 ----------------------------------------------------------------------

 ---------------------------------------
 CID_150571041_JID_8181_Energie_neutraal
 ---------------------------------------
 Structure from the checkpoint file:  "JID_8181.chk"
 Charge =  0 Multiplicity = 1

 SCF Done:  E(RB3LYP) =  -804.788310597     A.U. after   15 cycles
 Normal termination of Gaussian 16 at Fri Dec 11 19:45:30 2020.

 ----------------------------------------------------------------------
 # B3LYP/6-311++G(d,p) empiricaldispersion=gd3bj scf=xqc pop=npa geom=c
 heck
 ----------------------------------------------------------------------

 -------------------------------------
 CID_150571041_JID_8181_Energie_kation
 -------------------------------------
 Structure from the checkpoint file:  "JID_8181.chk"
 Charge =  1 Multiplicity = 2

 SCF Done:  E(UB3LYP) =  -804.537906637     A.U. after   19 cycles
 Normal termination of Gaussian 16 at Fri Dec 11 19:52:21 2020.
 Gaussian 16:  ES64L-G16RevA.03 25-Dec-2016

 ----------------------------------------------------------------------
 # B3LYP/6-311++G(d,p) empiricaldispersion=gd3bj scf=xqc pop=npa geom=c
 heck
 ----------------------------------------------------------------------

 ------------------------------------
 CID_150571041_JID_8181_Energie_anion
 ------------------------------------
 Structure from the checkpoint file:  "JID_8181.chk"
 Charge = -1 Multiplicity = 2

                         Standard orientation:
 ---------------------------------------------------------------------
 Center     Atomic      Atomic             Coordinates (Angstroms)
 Number     Number       Type             X           Y           Z
 ---------------------------------------------------------------------
      1          6           0       -3.157682    1.514892    0.070719
      2          6           0       -4.214553    0.645355    0.043017
      3          6           0       -3.982637   -0.760859   -0.017869
      4          6           0       -2.703425   -1.258764   -0.048790
      5          6           0       -1.583729   -0.380332   -0.019477
      6          6           0       -0.263809   -0.856999   -0.047729
      7          6           0        0.847281   -0.001844   -0.015295
      8          6           0        0.599788    1.423425    0.025964
      9          6           0        1.712773    2.318150    0.020326
     10          6           0        2.987647    1.845071   -0.031435
     11          6           0        3.244051    0.438978   -0.072664
     12          6           0        2.206885   -0.479449   -0.041938
     13          6           0        2.445365   -1.969570   -0.116756
     14          8           0        3.759072   -2.306974    0.371555
     15          8           0        4.557860    0.112473   -0.141665
     16          6           0       -0.711087    1.900763    0.058563
     17          6           0       -1.814246    1.040829    0.040134
     18          8           0       -5.028462   -1.642819   -0.046927
     19          1           0       -3.332819    2.586644    0.115982
     20          1           0       -5.237179    1.017442    0.066593
     21          1           0       -2.551486   -2.332717   -0.093822
     22          1           0       -0.128893   -1.931645   -0.106832
     23          1           0        1.520888    3.387444    0.054172
     24          1           0        3.848323    2.505531   -0.041036
     25          1           0        1.704805   -2.498854    0.494109
     26          1           0        2.331732   -2.325586   -1.153539
     27          1           0        3.975736   -3.198445    0.061875
     28          1           0        4.622230   -0.859709   -0.019275
     29          1           0       -0.877434    2.975526    0.092957
     30          1           0       -5.859393   -1.144937   -0.015510
 ---------------------------------------------------------------------

 SCF Done:  E(UB3LYP) =  -804.803497688     A.U. after   26 cycles

 The electronic state is 2-A.
 Alpha  occ. eigenvalues --  -19.04236 -19.04023 -19.00849 -10.11792 -10.10151
 Alpha  occ. eigenvalues --  -10.09330 -10.04844 -10.04722 -10.04254 -10.03963
 Alpha  occ. eigenvalues --  -10.03898 -10.03851 -10.03725 -10.03051 -10.02902
 Alpha  occ. eigenvalues --  -10.02711 -10.02022 -10.01971  -0.94932  -0.94506
 Alpha  occ. eigenvalues --   -0.91986  -0.74171  -0.71299  -0.66116  -0.65614
 Alpha  occ. eigenvalues --   -0.63143  -0.59686  -0.58446  -0.55332  -0.51360
 Alpha  occ. eigenvalues --   -0.49603  -0.47148  -0.45965  -0.44222  -0.42964
 Alpha  occ. eigenvalues --   -0.40609  -0.37917  -0.37255  -0.36254  -0.34654
 Alpha  occ. eigenvalues --   -0.33013  -0.32212  -0.30787  -0.29877  -0.29403
 Alpha  occ. eigenvalues --   -0.29368  -0.28166  -0.27764  -0.27163  -0.26734
 Alpha  occ. eigenvalues --   -0.25407  -0.24724  -0.23631  -0.22321  -0.21030
 Alpha  occ. eigenvalues --   -0.20439  -0.19829  -0.18240  -0.16600  -0.14317
 Alpha  occ. eigenvalues --   -0.12279  -0.08900  -0.06114   0.03397
 Alpha virt. eigenvalues --    0.05630   0.07177   0.09229   0.09902   0.10026
 Alpha virt. eigenvalues --    0.10767   0.11341   0.11737   0.12058   0.12842
 Alpha virt. eigenvalues --    0.13222   0.13738   0.13995   0.15442   0.15727

  Beta  occ. eigenvalues --  -19.04209 -19.03990 -19.00785 -10.11788 -10.10072
  Beta  occ. eigenvalues --  -10.09199 -10.04857 -10.04743 -10.04191 -10.04042
  Beta  occ. eigenvalues --  -10.03854 -10.03790 -10.03615 -10.02835 -10.02820
  Beta  occ. eigenvalues --  -10.02648 -10.01791 -10.01640  -0.94851  -0.94422
  Beta  occ. eigenvalues --   -0.91854  -0.73957  -0.71069  -0.65819  -0.65303
  Beta  occ. eigenvalues --   -0.62848  -0.59521  -0.58145  -0.55093  -0.50946
  Beta  occ. eigenvalues --   -0.49466  -0.46963  -0.45772  -0.44032  -0.42801
  Beta  occ. eigenvalues --   -0.40478  -0.37785  -0.37145  -0.36118  -0.34565
  Beta  occ. eigenvalues --   -0.32894  -0.32103  -0.30686  -0.29731  -0.29256
  Beta  occ. eigenvalues --   -0.28986  -0.28041  -0.27450  -0.26868  -0.26584
  Beta  occ. eigenvalues --   -0.25305  -0.24193  -0.23523  -0.22184  -0.20843
  Beta  occ. eigenvalues --   -0.20181  -0.19482  -0.18112  -0.15685  -0.13296
  Beta  occ. eigenvalues --   -0.11598  -0.08244  -0.04835
  Beta virt. eigenvalues --    0.06113   0.07161   0.08205   0.09226   0.09897
  Beta virt. eigenvalues --    0.10003   0.11001   0.11417   0.11922   0.12016
  Beta virt. eigenvalues --    0.13194   0.13740   0.13755   0.14238   0.15395

 Mulliken charges and spin densities:
               1          2
     1  C   -0.231233   0.161469
     2  C    0.016507   0.043235
     3  C   -0.366988   0.057214
     4  C   -0.292884   0.062010
     5  C    0.292475  -0.045720
     6  C   -0.501143   0.140894
     7  C    0.362039   0.026891
     8  C    0.196952  -0.019897
     9  C   -0.168218   0.135789
    10  C   -0.132203   0.017079
    11  C   -0.578401   0.020032
    12  C    0.235336   0.179654
    13  C   -0.264915  -0.305214
    14  O   -0.328880  -0.017157
    15  O   -0.310777   0.013508
    16  C   -0.158941   0.316158
    17  C    0.135972  -0.055639
    18  O   -0.248096   0.008022
    19  H    0.099178  -0.015013
    20  H    0.075719  -0.005622
    21  H    0.141996  -0.001965
    22  H   -0.086710  -0.023451
    23  H    0.096833  -0.013726
    24  H    0.138604  -0.003173
    25  H    0.178555   0.005474
    26  H    0.054703   0.124774
    27  H    0.044578   0.213213
    28  H    0.340809   0.001278
    29  H    0.014274  -0.019539
    30  H    0.244860  -0.000577
 Sum of Mulliken charges =  -1.00000   1.00000

 Dipole moment (field-independent basis, Debye):
    X=             -2.1738    Y=             -0.8329    Z=             -0.2919  Tot=              2.3462
 Quadrupole moment (field-independent basis, Debye-Ang):
   XX=           -154.6485   YY=           -117.7879   ZZ=           -118.8308
   XY=             -9.5501   XZ=             -1.8078   YZ=              1.1709

 Summary of Natural Population Analysis:

                                       Natural Population
                Natural  -----------------------------------------------
    Atom  No    Charge         Core      Valence    Rydberg      Total
 -----------------------------------------------------------------------
      C    1    0.00537      0.99955     1.98762    0.00745     2.99463
      C    2   -0.16276      0.99957     2.14592    0.01727     3.16276
      C    3    0.14142      0.99945     1.84155    0.01758     2.85858
      C    4   -0.06329      0.99950     2.05880    0.00499     3.06329
      C    5   -0.02953      0.99943     2.01453    0.01557     3.02953
      C    6   -0.09037      0.99952     2.07955    0.01130     3.09037
      C    7   -0.03242      0.99954     2.01767    0.01521     3.03242
      C    8   -0.00075      0.99953     1.99345    0.00777     3.00075
      C    9   -0.06567      0.99960     2.04652    0.01955     3.06567
      C   10   -0.12266      0.99954     2.11252    0.01060     3.12266
      C   11    0.18907      0.99936     1.79621    0.01535     2.81093
      C   12   -0.10259      0.99947     2.08234    0.02079     3.10259
      C   13    0.03208      0.99956     1.95073    0.01763     2.96792
      O   14   -0.38902      0.99989     3.37581    0.01331     4.38902
      O   15   -0.35289      0.99987     3.34569    0.00732     4.35289
      C   16    0.01929      0.99947     1.97415    0.00709     2.98071
      C   17   -0.09029      0.99957     2.07171    0.01901     3.09029
      O   18   -0.34269      0.99988     3.33877    0.00404     4.34269
      H   19    0.08279      0.00000     0.41445    0.00276     0.41721
      H   20    0.08624      0.00000     0.41242    0.00134     0.41376
      H   21    0.09060      0.00000     0.40752    0.00188     0.40940
      H   22    0.08601      0.00000     0.41079    0.00320     0.41399
      H   23    0.09038      0.00000     0.40818    0.00144     0.40962
      H   24    0.09534      0.00000     0.40327    0.00140     0.40466
      H   25    0.08221      0.00000     0.41541    0.00239     0.41779
      H   26    0.07711      0.00000     0.42028    0.00261     0.42289
      H   27    0.23309      0.00000     0.26251    0.00441     0.26691
      H   28    0.24485      0.00000     0.25127    0.00388     0.25515
      H   29    0.08189      0.00000     0.41680    0.00130     0.41811
      H   30    0.22572      0.00000     0.27126    0.00301     0.27428
 =======================================================================
   * Total *    0.01854     17.99231    44.72772    0.26144    62.98146

 Normal termination of Gaussian 16 at Fri Dec 11 20:01:47 2020.
