 Gaussian 16, Revision A.03,

 -----------------------------------------------------------
 # opt freq B3LYP/6-31G(d) empiricaldispersion=gd3bj scf=xqc
 -----------------------------------------------------------

 -------------------------------
 CID_114974036_JID_3581_neutraal
 -------------------------------
 Symbolic Z-matrix:
 Charge =  0 Multiplicity = 1

 SCF Done:  E(RB3LYP) =  -580.463256454     A.U. after   14 cycles
 SCF Done:  E(RB3LYP) =  -580.470374210     A.U. after   13 cycles
 SCF Done:  E(RB3LYP) =  -580.470454577     A.U. after   12 cycles
 SCF Done:  E(RB3LYP) =  -580.471818165     A.U. after   12 cycles
 SCF Done:  E(RB3LYP) =  -580.472455379     A.U. after   12 cycles
 SCF Done:  E(RB3LYP) =  -580.473396145     A.U. after   13 cycles
 SCF Done:  E(RB3LYP) =  -580.473806868     A.U. after   12 cycles
 SCF Done:  E(RB3LYP) =  -580.474117956     A.U. after   12 cycles
 SCF Done:  E(RB3LYP) =  -580.474158348     A.U. after   12 cycles
 SCF Done:  E(RB3LYP) =  -580.474145158     A.U. after   12 cycles
 SCF Done:  E(RB3LYP) =  -580.474518749     A.U. after   10 cycles
 SCF Done:  E(RB3LYP) =  -580.474519878     A.U. after   10 cycles
 SCF Done:  E(RB3LYP) =  -580.474520340     A.U. after    8 cycles
 SCF Done:  E(RB3LYP) =  -580.474520350     A.U. after    7 cycles
 SCF Done:  E(RB3LYP) =  -580.474520370     A.U. after    8 cycles
 Optimization completed.
    -- Stationary point found.
 Normal termination of Gaussian 16 at Sun Dec 13 12:35:28 2020.

 --------------------------------------------------------------------
 #N Geom=AllCheck Guess=TCheck SCRF=Check GenChk RB3LYP/6-31G(d) Freq
 --------------------------------------------------------------------

 Structure from the checkpoint file:  "JID_3581.chk"
 -------------------------------
 CID_114974036_JID_3581_neutraal
 -------------------------------
 Charge =  0 Multiplicity = 1

 SCF Done:  E(RB3LYP) =  -580.474520370     A.U. after    1 cycles

  Exact polarizability: 132.014   0.238 112.023  -1.172   2.274  99.629
 Approx polarizability: 161.605  -3.090 167.084  -1.062   7.977 149.878

                      1                      2                      3
                      A                      A                      A
 Frequencies --     20.4078                31.4703                49.9464
 Red. masses --      4.8500                 3.0038                 3.4567
 Frc consts  --      0.0012                 0.0018                 0.0051
 IR Inten    --      0.0822                 0.1833                 1.5281

                      4                      5                      6
                      A                      A                      A
 Frequencies --     88.7673               135.7640               161.9390
 Red. masses --      2.7124                 2.9651                 3.7819
 Frc consts  --      0.0126                 0.0322                 0.0584
 IR Inten    --      0.3027                 2.4109                 1.3288

                      7                      8                      9
                      A                      A                      A
 Frequencies --    171.8038               228.6313               246.0170
 Red. masses --      2.6732                 2.1436                 1.2868
 Frc consts  --      0.0465                 0.0660                 0.0459
 IR Inten    --      0.4240                 5.0869                 1.5786

                     10                     11                     12
                      A                      A                      A
 Frequencies --    283.2957               297.8082               305.2281
 Red. masses --      2.5552                 1.9895                 2.4155
 Frc consts  --      0.1208                 0.1040                 0.1326
 IR Inten    --      1.0561                 0.1403                 0.1550

                     13                     14                     15
                      A                      A                      A
 Frequencies --    346.8784               440.8918               470.7933
 Red. masses --      3.3271                 3.1186                 2.6639
 Frc consts  --      0.2359                 0.3572                 0.3479
 IR Inten    --     10.8633                 2.4203                 1.1661

                     16                     17                     18
                      A                      A                      A
 Frequencies --    557.4553               597.3062               623.7031
 Red. masses --      2.8452                 2.1837                 2.9554
 Frc consts  --      0.5209                 0.4590                 0.6774
 IR Inten    --      1.2682                 4.6157                14.3739

                     19                     20                     21
                      A                      A                      A
 Frequencies --    666.9059               732.4342               761.1970
 Red. masses --      3.1454                 3.5992                 1.5805
 Frc consts  --      0.8242                 1.1376                 0.5396
 IR Inten    --      1.1443                 8.0838                 0.3355

                     22                     23                     24
                      A                      A                      A
 Frequencies --    785.7266               832.0824               841.4249
 Red. masses --      1.3637                 2.1597                 2.7142
 Frc consts  --      0.4960                 0.8810                 1.1322
 IR Inten    --      1.2700                 1.7071                 1.7015

                     25                     26                     27
                      A                      A                      A
 Frequencies --    890.1693               896.0290               899.1679
 Red. masses --      2.2200                 2.3065                 2.2205
 Frc consts  --      1.0365                 1.0911                 1.0578
 IR Inten    --     30.1039                 3.0608                 1.3679

                     28                     29                     30
                      A                      A                      A
 Frequencies --    923.4072               944.8113               946.5271
 Red. masses --      2.3083                 2.4087                 2.4535
 Frc consts  --      1.1596                 1.2668                 1.2951
 IR Inten    --      8.2657                 1.9153                 2.9198

                     31                     32                     33
                      A                      A                      A
 Frequencies --    978.3942               984.0752              1023.8833
 Red. masses --      2.8167                 1.2448                 2.4184
 Frc consts  --      1.5886                 0.7102                 1.4938
 IR Inten    --      2.0155                 0.5827                30.6353

                     34                     35                     36
                      A                      A                      A
 Frequencies --   1054.2600              1059.5164              1066.9587
 Red. masses --      2.5267                 1.7276                 1.6857
 Frc consts  --      1.6546                 1.1426                 1.1306
 IR Inten    --     13.6708                26.3228                23.4422

                     37                     38                     39
                      A                      A                      A
 Frequencies --   1110.9588              1116.0820              1131.8839
 Red. masses --      1.6260                 2.8209                 1.9412
 Frc consts  --      1.1824                 2.0703                 1.4653
 IR Inten    --      2.8480                19.4531                16.2567

                     40                     41                     42
                      A                      A                      A
 Frequencies --   1144.1238              1151.2865              1166.6939
 Red. masses --      2.7631                 2.0639                 2.5116
 Frc consts  --      2.1311                 1.6118                 2.0142
 IR Inten    --     68.2749                43.4790                21.3111

                     43                     44                     45
                      A                      A                      A
 Frequencies --   1208.2558              1235.2946              1252.2282
 Red. masses --      1.2788                 1.2580                 1.3452
 Frc consts  --      1.1000                 1.1310                 1.2428
 IR Inten    --      1.7727                 4.8219                 5.1024

                     46                     47                     48
                      A                      A                      A
 Frequencies --   1259.0026              1263.4193              1276.3475
 Red. masses --      1.2038                 1.3727                 1.3799
 Frc consts  --      1.1242                 1.2910                 1.3245
 IR Inten    --      0.9636                 2.6416                 0.0490

                     49                     50                     51
                      A                      A                      A
 Frequencies --   1284.5606              1289.0012              1298.3234
 Red. masses --      1.1550                 1.3346                 1.4397
 Frc consts  --      1.1229                 1.3065                 1.4298
 IR Inten    --      1.2560                 7.0197                 2.2756

                     52                     53                     54
                      A                      A                      A
 Frequencies --   1329.7424              1337.0209              1360.2932
 Red. masses --      1.4412                 1.3624                 1.4542
 Frc consts  --      1.5014                 1.4350                 1.5854
 IR Inten    --      1.7153                 6.8424                 1.9036

                     55                     56                     57
                      A                      A                      A
 Frequencies --   1373.2240              1385.5972              1403.3479
 Red. masses --      1.2374                 1.8194                 1.3681
 Frc consts  --      1.3749                 2.0580                 1.5874
 IR Inten    --      7.6637                33.8159                22.9899

                     58                     59                     60
                      A                      A                      A
 Frequencies --   1414.3657              1426.9609              1439.1355
 Red. masses --      1.3222                 1.5639                 1.3351
 Frc consts  --      1.5584                 1.8762                 1.6292
 IR Inten    --     10.9123                 8.1835                16.9857

                     61                     62                     63
                      A                      A                      A
 Frequencies --   1467.7895              1505.3250              1505.6169
 Red. masses --      1.0872                 1.1011                 1.0914
 Frc consts  --      1.3800                 1.4701                 1.4577
 IR Inten    --     11.3558                 4.7335                 1.5596

                     64                     65                     66
                      A                      A                      A
 Frequencies --   1513.0375              1513.4710              1527.3776
 Red. masses --      1.0796                 1.0523                 1.0480
 Frc consts  --      1.4562                 1.4202                 1.4404
 IR Inten    --      2.9733                 1.7923                 2.4771

                     67                     68                     69
                      A                      A                      A
 Frequencies --   1540.4517              1546.3031              1799.7606
 Red. masses --      1.1416                 1.0999                10.3672
 Frc consts  --      1.5960                 1.5495                19.7852
 IR Inten    --      4.4260                 1.5267                99.7961

                     70                     71                     72
                      A                      A                      A
 Frequencies --   2970.7947              3007.5294              3020.4881
 Red. masses --      1.0835                 1.0640                 1.0701
 Frc consts  --      5.6340                 5.6702                 5.7521
 IR Inten    --     48.1056                21.2851                50.0707

                     73                     74                     75
                      A                      A                      A
 Frequencies --   3038.7211              3044.6219              3055.7960
 Red. masses --      1.0938                 1.0859                 1.0360
 Frc consts  --      5.9509                 5.9305                 5.7000
 IR Inten    --     16.7305                27.3396                14.7683

                     76                     77                     78
                      A                      A                      A
 Frequencies --   3067.5973              3070.9810              3075.3368
 Red. masses --      1.0611                 1.0809                 1.0632
 Frc consts  --      5.8831                 6.0063                 5.9247
 IR Inten    --     32.4009                11.9838                89.3411

                     79                     80                     81
                      A                      A                      A
 Frequencies --   3081.6881              3087.6720              3117.6621
 Red. masses --      1.0655                 1.0675                 1.1064
 Frc consts  --      5.9619                 5.9960                 6.3360
 IR Inten    --     30.3288                28.1574                16.3821

                     82                     83                     84
                      A                      A                      A
 Frequencies --   3124.8764              3126.1007              3135.8586
 Red. masses --      1.0952                 1.1024                 1.1030
 Frc consts  --      6.3011                 6.3471                 6.3906
 IR Inten    --     49.6520                27.4287                21.6962

                     85                     86                     87
                      A                      A                      A
 Frequencies --   3143.8723              3147.0591              3158.6753
 Red. masses --      1.1034                 1.1035                 1.1007
 Frc consts  --      6.4256                 6.4392                 6.4706
 IR Inten    --     21.3431                13.4391                30.9575

 - Thermochemistry -
 -------------------
 Temperature   298.150 Kelvin.  Pressure   1.00000 Atm.
 Atom     1 has atomic number  6 and mass  12.00000

 Molecular mass:   182.13068 amu.
 Principal axes and moments of inertia in atomic units:
                           1         2         3
     Eigenvalues --  1102.119154316.829494684.87089
           X            0.99997  -0.00092  -0.00718
           Y            0.00102   0.99990   0.01409
           Z            0.00717  -0.01409   0.99988
 This molecule is an asymmetric top.
 Rotational symmetry number  1.
 Warning -- assumption of classical behavior for rotation
           may cause significant error
 Rotational temperatures (Kelvin)      0.07859     0.02006     0.01849
 Rotational constants (GHZ):           1.63752     0.41807     0.38523
 Zero-point vibrational energy     726113.5 (Joules/Mol)
                                  173.54528 (Kcal/Mol)
 Warning -- explicit consideration of  17 degrees of freedom as
           vibrations may cause significant error
 Vibrational temperatures:     29.36    45.28    71.86   127.72   195.33
          (Kelvin)            232.99   247.19   328.95   353.96   407.60
                              428.48   439.16   499.08   634.34   677.37
                              802.05   859.39   897.37   959.53  1053.81
                             1095.19  1130.49  1197.18  1210.62  1280.76
                             1289.19  1293.70  1328.58  1359.37  1361.84
                             1407.69  1415.86  1473.14  1516.84  1524.41
                             1535.12  1598.42  1605.79  1628.53  1646.14
                             1656.44  1678.61  1738.41  1777.31  1801.68
                             1811.42  1817.78  1836.38  1848.20  1854.59
                             1868.00  1913.20  1923.67  1957.16  1975.76
                             1993.57  2019.10  2034.96  2053.08  2070.60
                             2111.82  2165.83  2166.25  2176.92  2177.55
                             2197.56  2216.37  2224.79  2589.45  4274.31
                             4327.16  4345.81  4372.04  4380.53  4396.61
                             4413.59  4418.46  4424.72  4433.86  4442.47
                             4485.62  4496.00  4497.76  4511.80  4523.33
                             4527.92  4544.63

 Zero-point correction=                           0.276562 (Hartree/Particle)
 Thermal correction to Energy=                    0.289720
 Thermal correction to Enthalpy=                  0.290665
 Thermal correction to Gibbs Free Energy=         0.234910
 Sum of electronic and zero-point Energies=           -580.197958
 Sum of electronic and thermal Energies=              -580.184800
 Sum of electronic and thermal Enthalpies=            -580.183856
 Sum of electronic and thermal Free Energies=         -580.239610

                     E (Thermal)             CV                S
                      KCal/Mol        Cal/Mol-Kelvin    Cal/Mol-Kelvin
 Total                  181.802             49.404            117.345
 Electronic               0.000              0.000              0.000
 Translational            0.889              2.981             41.505
 Rotational               0.889              2.981             31.478
 Vibrational            180.025             43.443             44.362
 Vibration     1          0.593              1.986              6.594
 Vibration     2          0.594              1.983              5.735
 Vibration     3          0.595              1.978              4.820
 Vibration     4          0.602              1.957              3.687
 Vibration     5          0.614              1.918              2.863
 Vibration     6          0.622              1.889              2.527
 Vibration     7          0.626              1.877              2.416
 Vibration     8          0.651              1.797              1.890
 Vibration     9          0.660              1.769              1.759
 Vibration    10          0.682              1.705              1.514
 Vibration    11          0.691              1.678              1.429
 Vibration    12          0.696              1.664              1.388
 Vibration    13          0.725              1.582              1.180
 Vibration    14          0.801              1.381              0.824
 Vibration    15          0.828              1.315              0.735
 Vibration    16          0.913              1.123              0.529
 Vibration    17          0.955              1.038              0.454

 Optimization completed.
    -- Stationary point found.
 Normal termination of Gaussian 16 at Sun Dec 13 12:43:27 2020.

 ----------------------------------------------------------------------
 # B3LYP/6-311++G(d,p) empiricaldispersion=gd3bj scf=xqc pop=npa geom=c
 heck
 ----------------------------------------------------------------------

 ---------------------------------------
 CID_114974036_JID_3581_Energie_neutraal
 ---------------------------------------
 Structure from the checkpoint file:  "JID_3581.chk"
 Charge =  0 Multiplicity = 1

 SCF Done:  E(RB3LYP) =  -580.636821018     A.U. after   13 cycles
 Normal termination of Gaussian 16 at Sun Dec 13 12:46:24 2020.

 ----------------------------------------------------------------------
 # B3LYP/6-311++G(d,p) empiricaldispersion=gd3bj scf=xqc pop=npa geom=c
 heck
 ----------------------------------------------------------------------

 -------------------------------------
 CID_114974036_JID_3581_Energie_kation
 -------------------------------------
 Structure from the checkpoint file:  "JID_3581.chk"
 Charge =  1 Multiplicity = 2

 SCF Done:  E(UB3LYP) =  -580.313613564     A.U. after   23 cycles
 Normal termination of Gaussian 16 at Sun Dec 13 12:53:10 2020.
 Gaussian 16:  ES64L-G16RevA.03 25-Dec-2016

 ----------------------------------------------------------------------
 # B3LYP/6-311++G(d,p) empiricaldispersion=gd3bj scf=xqc pop=npa geom=c
 heck
 ----------------------------------------------------------------------

 ------------------------------------
 CID_114974036_JID_3581_Energie_anion
 ------------------------------------
 Structure from the checkpoint file:  "JID_3581.chk"
 Charge = -1 Multiplicity = 2

                         Standard orientation:
 ---------------------------------------------------------------------
 Center     Atomic      Atomic             Coordinates (Angstroms)
 Number     Number       Type             X           Y           Z
 ---------------------------------------------------------------------
      1          6           0       -2.473521    2.154718    0.051604
      2          6           0       -1.994269    0.779829   -0.380974
      3          6           0       -1.378364   -0.093437    0.778868
      4          6           0       -2.221766   -1.381253    0.747282
      5          6           0       -2.838571   -1.336901   -0.652594
      6          8           0       -3.107725    0.043861   -0.876038
      7          6           0        0.098000   -0.337539    0.487892
      8          8           0        0.471990   -1.356440   -0.066972
      9          6           0        1.038129    0.786570    0.895750
     10          6           0        2.468228    0.730122    0.370593
     11          6           0        3.377166   -0.500199    0.650746
     12          6           0        3.975779   -0.322742   -0.770542
     13          6           0        2.743620    0.542204   -1.148006
     14          1           0       -1.634720    2.772539    0.391043
     15          1           0       -3.195376    2.061945    0.869929
     16          1           0       -2.961990    2.665934   -0.783637
     17          1           0       -1.249289    0.884564   -1.188147
     18          1           0       -1.475797    0.442561    1.729232
     19          1           0       -3.008147   -1.334231    1.506487
     20          1           0       -1.614109   -2.273479    0.912663
     21          1           0       -3.783233   -1.878349   -0.747937
     22          1           0       -2.125719   -1.721696   -1.397407
     23          1           0        0.564131    1.736054    0.603892
     24          1           0        1.037838    0.804782    1.997896
     25          1           0        2.981814    1.636523    0.715596
     26          1           0        4.060096   -0.430396    1.504052
     27          1           0        2.793741   -1.418849    0.725873
     28          1           0        4.148647   -1.229403   -1.357174
     29          1           0        4.899093    0.266242   -0.755640
     30          1           0        1.967023   -0.059107   -1.625515
     31          1           0        2.915293    1.446768   -1.740834
 ---------------------------------------------------------------------

 SCF Done:  E(UB3LYP) =  -580.623221703     A.U. after   33 cycles
 SCF Done:  E(UB3LYP) =  -580.623221703     a.u. after    1 cycles

 The electronic state is 2-A.
 Alpha  occ. eigenvalues --  -19.02719 -19.00635 -10.15099 -10.12952 -10.11819
 Alpha  occ. eigenvalues --  -10.07932 -10.07017 -10.06882 -10.06853 -10.06426
 Alpha  occ. eigenvalues --  -10.06186 -10.05847 -10.05526  -0.94902  -0.93931
 Alpha  occ. eigenvalues --   -0.74154  -0.70123  -0.67312  -0.64667  -0.58594
 Alpha  occ. eigenvalues --   -0.55197  -0.54041  -0.50350  -0.48762  -0.44786
 Alpha  occ. eigenvalues --   -0.42724  -0.39427  -0.39134  -0.37777  -0.37381
 Alpha  occ. eigenvalues --   -0.35733  -0.34625  -0.33497  -0.31734  -0.31160
 Alpha  occ. eigenvalues --   -0.29307  -0.29125  -0.28358  -0.27924  -0.26465
 Alpha  occ. eigenvalues --   -0.25293  -0.24707  -0.23900  -0.23430  -0.22045
 Alpha  occ. eigenvalues --   -0.21657  -0.19827  -0.19786  -0.16638  -0.14314
 Alpha  occ. eigenvalues --    0.04699
 Alpha virt. eigenvalues --    0.06918   0.07189   0.07781   0.08520   0.08959
 Alpha virt. eigenvalues --    0.09258   0.09359   0.10365   0.10779   0.11482
 Alpha virt. eigenvalues --    0.11751   0.11926   0.12396   0.13051   0.14037

  Beta  occ. eigenvalues --  -19.02714 -19.00586 -10.15026 -10.12936 -10.11815
  Beta  occ. eigenvalues --  -10.07924 -10.07002 -10.06864 -10.06828 -10.06419
  Beta  occ. eigenvalues --  -10.06152 -10.05840 -10.05513  -0.94879  -0.93833
  Beta  occ. eigenvalues --   -0.74125  -0.70064  -0.67283  -0.64591  -0.58533
  Beta  occ. eigenvalues --   -0.55166  -0.53981  -0.50305  -0.48697  -0.44725
  Beta  occ. eigenvalues --   -0.42659  -0.39364  -0.39060  -0.37726  -0.37337
  Beta  occ. eigenvalues --   -0.35688  -0.34537  -0.33414  -0.31703  -0.31096
  Beta  occ. eigenvalues --   -0.29245  -0.29064  -0.28323  -0.27877  -0.26321
  Beta  occ. eigenvalues --   -0.25248  -0.24668  -0.23866  -0.23394  -0.21973
  Beta  occ. eigenvalues --   -0.21620  -0.19791  -0.19753  -0.16612  -0.14264
  Beta virt. eigenvalues --    0.07060   0.07505   0.07927   0.08172   0.09002
  Beta virt. eigenvalues --    0.09325   0.09465   0.09657   0.10919   0.11153
  Beta virt. eigenvalues --    0.11605   0.12171   0.12350   0.12850   0.13181

 Mulliken charges and spin densities:
               1          2
     1  C    1.030580  -1.612907
     2  C   -0.578854   0.322373
     3  C    0.154411   0.362652
     4  C    0.233762  -0.547866
     5  C   -0.375994   0.057621
     6  O   -0.124206   0.013680
     7  C   -0.919044   0.678105
     8  O   -0.236124   0.001231
     9  C    1.054141  -1.660802
    10  C    0.221755   0.213920
    11  C    0.269721  -0.751910
    12  C   -0.061454  -0.295733
    13  C    0.302257  -0.704047
    14  H   -0.429643   0.583086
    15  H   -0.168973   0.330925
    16  H   -0.012933   0.157067
    17  H    0.106635   0.109100
    18  H   -0.440840   0.695147
    19  H   -0.175041   0.336349
    20  H    0.058959   0.117157
    21  H   -0.009513   0.180682
    22  H    0.185033  -0.033476
    23  H    0.245817  -0.119969
    24  H   -0.659668   0.854559
    25  H   -0.817921   1.045636
    26  H   -0.072776   0.208873
    27  H    0.084796   0.077553
    28  H    0.139071  -0.003473
    29  H   -0.000072   0.110470
    30  H    0.043350   0.089601
    31  H   -0.047234   0.184396
 Sum of Mulliken charges =  -1.00000   1.00000

 Dipole moment (field-independent basis, Debye):
    X=             -0.9671    Y=             -4.5807    Z=             -5.2449  Tot=              7.0304
 Quadrupole moment (field-independent basis, Debye-Ang):
   XX=           -144.5896   YY=           -120.7290   ZZ=           -121.3251
   XY=             -3.4025   XZ=             -1.2890   YZ=             -7.1326

 Summary of Natural Population Analysis:

                                       Natural Population
                Natural  -----------------------------------------------
    Atom  No    Charge         Core      Valence    Rydberg      Total
 -----------------------------------------------------------------------
      C    1   -0.28899      0.99963     2.28281    0.00655     3.28899
      C    2    0.07497      0.99956     1.91172    0.01374     2.92503
      C    3   -0.16737      0.99954     2.15454    0.01329     3.16737
      C    4   -0.20336      0.99963     2.19369    0.01004     3.20336
      C    5   -0.01069      0.99960     1.99923    0.01186     3.01069
      O    6   -0.30306      0.99988     3.29456    0.00862     4.30306
      C    7    0.31641      0.99964     1.66126    0.02270     2.68359
      O    8   -0.29699      0.99987     3.29136    0.00576     4.29699
      C    9   -0.24106      0.99955     2.23139    0.01012     3.24106
      C   10   -0.10860      0.99961     2.09467    0.01432     3.10860
      C   11   -0.18785      0.99962     2.17980    0.00843     3.18785
      C   12   -0.18991      0.99965     2.18232    0.00794     3.18991
      C   13   -0.18832      0.99963     2.18046    0.00823     3.18832
      H   14    0.10372      0.00000     0.39488    0.00140     0.39628
      H   15    0.10244      0.00000     0.39598    0.00158     0.39756
      H   16    0.10071      0.00000     0.39832    0.00098     0.39929
      H   17    0.07919      0.00000     0.41923    0.00158     0.42081
      H   18    0.11527      0.00000     0.38058    0.00415     0.38473
      H   19    0.10141      0.00000     0.39730    0.00130     0.39859
      H   20    0.11043      0.00000     0.38852    0.00105     0.38957
      H   21    0.08784      0.00000     0.41112    0.00104     0.41216
      H   22    0.08073      0.00000     0.41799    0.00128     0.41927
      H   23    0.11009      0.00000     0.38823    0.00168     0.38991
      H   24    0.12245      0.00000     0.37269    0.00486     0.37755
      H   25    0.10190      0.00000     0.39493    0.00317     0.39810
      H   26    0.09387      0.00000     0.40509    0.00105     0.40613
      H   27    0.10539      0.00000     0.39330    0.00132     0.39461
      H   28    0.09180      0.00000     0.40743    0.00078     0.40820
      H   29    0.09270      0.00000     0.40616    0.00115     0.40730
      H   30    0.10172      0.00000     0.39688    0.00140     0.39828
      H   31    0.09317      0.00000     0.40585    0.00098     0.40683
 =======================================================================
   * Total *    0.00000     12.99541    36.83226    0.17234    50.00000

 Normal termination of Gaussian 16 at Sun Dec 13 13:02:51 2020.
