 Gaussian 16, Revision A.03,

 -----------------------------------------------------------
 # opt freq B3LYP/6-31G(d) empiricaldispersion=gd3bj scf=xqc
 -----------------------------------------------------------

 ------------------------------
 CID_57537936_JID_7534_neutraal
 ------------------------------
 Symbolic Z-matrix:
 Charge =  0 Multiplicity = 1

 SCF Done:  E(RB3LYP) =  -833.035621928     A.U. after   15 cycles
 SCF Done:  E(RB3LYP) =  -833.038556085     A.U. after   13 cycles
 SCF Done:  E(RB3LYP) =  -833.032767527     A.U. after   14 cycles
 SCF Done:  E(RB3LYP) =  -833.039165387     A.U. after   12 cycles
 SCF Done:  E(RB3LYP) =  -833.039514469     A.U. after   13 cycles
 SCF Done:  E(RB3LYP) =  -833.041275510     A.U. after   12 cycles
 SCF Done:  E(RB3LYP) =  -833.041302084     A.U. after   12 cycles
 SCF Done:  E(RB3LYP) =  -833.041358973     A.U. after   11 cycles
 SCF Done:  E(RB3LYP) =  -833.041431327     A.U. after   10 cycles
 SCF Done:  E(RB3LYP) =  -833.041448436     A.U. after   10 cycles
 SCF Done:  E(RB3LYP) =  -833.041477141     A.U. after   10 cycles
 SCF Done:  E(RB3LYP) =  -833.041479700     A.U. after   10 cycles
 SCF Done:  E(RB3LYP) =  -833.041481569     A.U. after   10 cycles
 SCF Done:  E(RB3LYP) =  -833.041481849     A.U. after    8 cycles
 SCF Done:  E(RB3LYP) =  -833.041481885     A.U. after    6 cycles
 Optimization completed.
    -- Stationary point found.
 Normal termination of Gaussian 16 at Sun Dec 13 12:32:42 2020.

 --------------------------------------------------------------------
 #N Geom=AllCheck Guess=TCheck SCRF=Check GenChk RB3LYP/6-31G(d) Freq
 --------------------------------------------------------------------

 Structure from the checkpoint file:  "JID_7534.chk"
 ------------------------------
 CID_57537936_JID_7534_neutraal
 ------------------------------
 Charge =  0 Multiplicity = 1

 SCF Done:  E(RB3LYP) =  -833.041481885     A.U. after    1 cycles

  Exact polarizability: 188.861   1.963 149.582  -9.124   6.051  77.908
 Approx polarizability: 296.114   7.680 236.410 -22.039  18.195 122.576

                      1                      2                      3
                      A                      A                      A
 Frequencies --     24.6314                32.0683                68.0629
 Red. masses --     11.5470                 5.2376                 5.7317
 Frc consts  --      0.0041                 0.0032                 0.0156
 IR Inten    --      1.5077                 1.0683                 0.1932

                      4                      5                      6
                      A                      A                      A
 Frequencies --     84.1602               101.8289               115.7731
 Red. masses --      3.9550                 3.9241                 1.0505
 Frc consts  --      0.0165                 0.0240                 0.0083
 IR Inten    --      1.8048                 2.6591                 0.0612

                      7                      8                      9
                      A                      A                      A
 Frequencies --    164.0153               178.6113               186.6797
 Red. masses --      5.4220                 4.7738                 4.8113
 Frc consts  --      0.0859                 0.0897                 0.0988
 IR Inten    --      2.1202                 0.4908                 0.5753

                     10                     11                     12
                      A                      A                      A
 Frequencies --    212.3730               267.9797               269.7738
 Red. masses --      3.2193                 2.6479                 3.3062
 Frc consts  --      0.0855                 0.1120                 0.1418
 IR Inten    --      1.5389                 1.1826                 1.1471

                     13                     14                     15
                      A                      A                      A
 Frequencies --    290.9269               327.6171               364.8912
 Red. masses --      6.9887                 2.6641                10.9500
 Frc consts  --      0.3485                 0.1685                 0.8590
 IR Inten    --      0.4481                 5.2900                 1.9642

                     16                     17                     18
                      A                      A                      A
 Frequencies --    391.2318               405.0347               491.1756
 Red. masses --      4.8283                 6.0477                 3.9918
 Frc consts  --      0.4354                 0.5846                 0.5674
 IR Inten    --      1.0504                 1.3711                15.9450

                     19                     20                     21
                      A                      A                      A
 Frequencies --    520.9102               569.1928               592.9152
 Red. masses --      3.5834                 3.6193                 4.4296
 Frc consts  --      0.5729                 0.6909                 0.9175
 IR Inten    --      3.6226                 7.1619                 5.9570

                     22                     23                     24
                      A                      A                      A
 Frequencies --    615.9287               622.3628               656.5376
 Red. masses --      2.5442                 4.4511                 1.7371
 Frc consts  --      0.5687                 1.0158                 0.4411
 IR Inten    --      4.9812                44.8569                30.9749

                     25                     26                     27
                      A                      A                      A
 Frequencies --    671.5265               689.0233               742.4162
 Red. masses --      1.8067                 1.9184                 4.0486
 Frc consts  --      0.4800                 0.5366                 1.3148
 IR Inten    --     80.8581               102.1568                 5.2999

                     28                     29                     30
                      A                      A                      A
 Frequencies --    754.0553               774.6770               777.8050
 Red. masses --      6.2072                 3.5920                 2.7964
 Frc consts  --      2.0795                 1.2701                 0.9968
 IR Inten    --     12.0382                22.6031                18.2683

                     31                     32                     33
                      A                      A                      A
 Frequencies --    833.2579               836.1989               874.5841
 Red. masses --     10.4447                 3.7293                 2.7429
 Frc consts  --      4.2727                 1.5364                 1.2361
 IR Inten    --      0.4301                 7.0973                 6.6178

                     34                     35                     36
                      A                      A                      A
 Frequencies --    905.2476               960.0005               966.1573
 Red. masses --      7.4384                 1.4347                 2.0430
 Frc consts  --      3.5914                 0.7791                 1.1236
 IR Inten    --      2.3739                 2.2744                 2.5460

                     37                     38                     39
                      A                      A                      A
 Frequencies --    998.5520              1050.6910              1083.8790
 Red. masses --      3.6781                 2.0168                 2.2353
 Frc consts  --      2.1608                 1.3118                 1.5472
 IR Inten    --     19.4890                10.3052                13.3182

                     40                     41                     42
                      A                      A                      A
 Frequencies --   1107.7608              1159.1059              1163.9791
 Red. masses --      3.2416                 2.8994                 1.2966
 Frc consts  --      2.3437                 2.2951                 1.0350
 IR Inten    --     67.0025               148.3266                 1.0521

                     43                     44                     45
                      A                      A                      A
 Frequencies --   1172.8975              1205.4816              1216.4056
 Red. masses --      2.2815                 3.3431                 4.2188
 Frc consts  --      1.8492                 2.8623                 3.6779
 IR Inten    --     45.9337                 0.7358                59.1626

                     46                     47                     48
                      A                      A                      A
 Frequencies --   1225.9668              1233.5672              1290.4183
 Red. masses --      1.1586                 2.1381                 1.9754
 Frc consts  --      1.0260                 1.9169                 1.9381
 IR Inten    --     35.0777                 3.1063                13.0512

                     49                     50                     51
                      A                      A                      A
 Frequencies --   1304.2683              1330.0067              1360.6345
 Red. masses --      1.5334                 3.6363                 1.3339
 Frc consts  --      1.5369                 3.7898                 1.4549
 IR Inten    --     49.5808                17.1988                 4.6523

                     52                     53                     54
                      A                      A                      A
 Frequencies --   1365.7216              1383.4851              1403.5287
 Red. masses --      2.9227                 1.7611                 2.7428
 Frc consts  --      3.2119                 1.9860                 3.1833
 IR Inten    --    136.8665                 2.3805                57.5611

                     55                     56                     57
                      A                      A                      A
 Frequencies --   1417.7781              1435.1801              1453.7605
 Red. masses --      2.2913                 1.4459                 1.7790
 Frc consts  --      2.7136                 1.7547                 2.2151
 IR Inten    --     84.4165                19.3108                41.4681

                     58                     59                     60
                      A                      A                      A
 Frequencies --   1476.6830              1494.5883              1505.5094
 Red. masses --      1.1876                 2.5178                 1.2033
 Frc consts  --      1.5258                 3.3137                 1.6069
 IR Inten    --     64.4161                16.5944                12.1134

                     61                     62                     63
                      A                      A                      A
 Frequencies --   1508.2352              1512.7471              1523.9054
 Red. masses --      1.3715                 1.7832                 1.0494
 Frc consts  --      1.8382                 2.4043                 1.4359
 IR Inten    --     37.8488                43.6998                10.6466

                     64                     65                     66
                      A                      A                      A
 Frequencies --   1532.2263              1534.2950              1554.9428
 Red. masses --      1.2227                 1.0843                 2.9382
 Frc consts  --      1.6912                 1.5040                 4.1856
 IR Inten    --      9.7458                 0.8347                28.8918

                     67                     68                     69
                      A                      A                      A
 Frequencies --   1625.9286              1648.2549              1847.2728
 Red. masses --      9.2893                 9.4341                10.5098
 Frc consts  --     14.4689                15.1008                21.1304
 IR Inten    --     83.3000                48.3951               318.7031

                     70                     71                     72
                      A                      A                      A
 Frequencies --   3017.0697              3041.3258              3072.1712
 Red. masses --      1.0676                 1.0634                 1.0342
 Frc consts  --      5.7258                 5.7955                 5.7508
 IR Inten    --     40.1217                36.8490                27.1496

                     73                     74                     75
                      A                      A                      A
 Frequencies --   3081.4178              3085.1016              3098.3024
 Red. masses --      1.0858                 1.0727                 1.0994
 Frc consts  --      6.0745                 6.0154                 6.2181
 IR Inten    --     21.1659                39.9573                72.1285

                     76                     77                     78
                      A                      A                      A
 Frequencies --   3134.5908              3139.8604              3177.6823
 Red. masses --      1.1031                 1.1068                 1.1035
 Frc consts  --      6.3862                 6.4290                 6.5653
 IR Inten    --      8.5144                13.0369                 0.4032

                     79                     80                     81
                      A                      A                      A
 Frequencies --   3209.5351              3581.0372              3691.8304
 Red. masses --      1.0913                 1.0664                 1.0641
 Frc consts  --      6.6231                 8.0569                 8.5449
 IR Inten    --     22.4557               282.6839                71.1470

 - Thermochemistry -
 -------------------
 Temperature   298.150 Kelvin.  Pressure   1.00000 Atm.
 Atom     1 has atomic number  6 and mass  12.00000

 Molecular mass:   236.09094 amu.
 Principal axes and moments of inertia in atomic units:
                           1         2         3
     Eigenvalues --  2758.981314541.299766936.30214
           X            0.99999   0.00209   0.00247
           Y           -0.00208   0.99999  -0.00481
           Z           -0.00248   0.00480   0.99999
 This molecule is an asymmetric top.
 Rotational symmetry number  1.
 Warning -- assumption of classical behavior for rotation
           may cause significant error
 Rotational temperatures (Kelvin)      0.03139     0.01907     0.01249
 Rotational constants (GHZ):           0.65413     0.39741     0.26019
 Zero-point vibrational energy     602901.2 (Joules/Mol)
                                  144.09685 (Kcal/Mol)
 Warning -- explicit consideration of  22 degrees of freedom as
           vibrations may cause significant error
 Vibrational temperatures:     35.44    46.14    97.93   121.09   146.51
          (Kelvin)            166.57   235.98   256.98   268.59   305.56
                              385.56   388.14   418.58   471.37   525.00
                              562.90   582.75   706.69   749.47   818.94
                              853.07   886.18   895.44   944.61   966.18
                              991.35  1068.17  1084.92  1114.59  1119.09
                             1198.87  1203.10  1258.33  1302.45  1381.23
                             1390.08  1436.69  1511.71  1559.46  1593.82
                             1667.69  1674.71  1687.54  1734.42  1750.14
                             1763.89  1774.83  1856.62  1876.55  1913.58
                             1957.65  1964.97  1990.53  2019.36  2039.87
                             2064.90  2091.64  2124.62  2150.38  2166.09
                             2170.01  2176.51  2192.56  2204.53  2207.51
                             2237.22  2339.35  2371.47  2657.81  4340.89
                             4375.79  4420.17  4433.47  4438.77  4457.77
                             4509.98  4517.56  4571.98  4617.81  5152.31
                             5311.72

 Zero-point correction=                           0.229633 (Hartree/Particle)
 Thermal correction to Energy=                    0.244792
 Thermal correction to Enthalpy=                  0.245736
 Thermal correction to Gibbs Free Energy=         0.185587
 Sum of electronic and zero-point Energies=           -832.811849
 Sum of electronic and thermal Energies=              -832.796690
 Sum of electronic and thermal Enthalpies=            -832.795746
 Sum of electronic and thermal Free Energies=         -832.855895

                     E (Thermal)             CV                S
                      KCal/Mol        Cal/Mol-Kelvin    Cal/Mol-Kelvin
 Total                  153.609             56.263            126.593
 Electronic               0.000              0.000              0.000
 Translational            0.889              2.981             42.279
 Rotational               0.889              2.981             32.830
 Vibrational            151.832             50.301             51.485
 Vibration     1          0.593              1.985              6.221
 Vibration     2          0.594              1.983              5.697
 Vibration     3          0.598              1.969              4.209
 Vibration     4          0.601              1.960              3.791
 Vibration     5          0.604              1.948              3.419
 Vibration     6          0.608              1.936              3.170
 Vibration     7          0.623              1.887              2.503
 Vibration     8          0.629              1.869              2.343
 Vibration     9          0.632              1.858              2.261
 Vibration    10          0.643              1.822              2.023
 Vibration    11          0.673              1.732              1.609
 Vibration    12          0.674              1.729              1.598
 Vibration    13          0.687              1.691              1.469
 Vibration    14          0.711              1.620              1.272
 Vibration    15          0.738              1.545              1.101
 Vibration    16          0.759              1.489              0.995
 Vibration    17          0.770              1.459              0.944
 Vibration    18          0.847              1.270              0.681
 Vibration    19          0.876              1.204              0.608
 Vibration    20          0.925              1.098              0.506
 Vibration    21          0.950              1.047              0.462
 Vibration    22          0.976              0.998              0.423

                           ! Non-Optimized Parameters !
 Normal termination of Gaussian 16 at Sun Dec 13 12:42:58 2020.

 ----------------------------------------------------------------------
 # B3LYP/6-311++G(d,p) empiricaldispersion=gd3bj scf=xqc pop=npa geom=c
 heck
 ----------------------------------------------------------------------

 --------------------------------------
 CID_57537936_JID_7534_Energie_neutraal
 --------------------------------------
 Structure from the checkpoint file:  "JID_7534.chk"
 Charge =  0 Multiplicity = 1

 SCF Done:  E(RB3LYP) =  -833.282974616     A.U. after   15 cycles
 Normal termination of Gaussian 16 at Sun Dec 13 12:47:38 2020.

 ----------------------------------------------------------------------
 # B3LYP/6-311++G(d,p) empiricaldispersion=gd3bj scf=xqc pop=npa geom=c
 heck
 ----------------------------------------------------------------------

 ------------------------------------
 CID_57537936_JID_7534_Energie_kation
 ------------------------------------
 Structure from the checkpoint file:  "JID_7534.chk"
 Charge =  1 Multiplicity = 2

 SCF Done:  E(UB3LYP) =  -832.953240306     A.U. after   33 cycles
 SCF Done:  E(UB3LYP) =  -832.953240306     a.u. after    1 cycles
 Normal termination of Gaussian 16 at Sun Dec 13 13:01:43 2020.
 Gaussian 16:  ES64L-G16RevA.03 25-Dec-2016

 ----------------------------------------------------------------------
 # B3LYP/6-311++G(d,p) empiricaldispersion=gd3bj scf=xqc pop=npa geom=c
 heck
 ----------------------------------------------------------------------

 -----------------------------------
 CID_57537936_JID_7534_Energie_anion
 -----------------------------------
 Structure from the checkpoint file:  "JID_7534.chk"
 Charge = -1 Multiplicity = 2

                         Standard orientation:
 ---------------------------------------------------------------------
 Center     Atomic      Atomic             Coordinates (Angstroms)
 Number     Number       Type             X           Y           Z
 ---------------------------------------------------------------------
      1          6           0        1.644783    2.966173   -0.121418
      2          7           0        0.909710    1.714449   -0.211636
      3          6           0        1.389277    0.456588   -0.528614
      4          7           0        0.445963   -0.470079   -0.520628
      5          6           0       -0.718687    0.188480   -0.181330
      6          6           0       -2.054480   -0.183648    0.009733
      7          7           0       -2.962865    0.750226    0.331920
      8          6           0       -2.564489    2.018022    0.473668
      9          7           0       -1.319842    2.507367    0.330822
     10          6           0       -0.444797    1.568655    0.007582
     11          6           0       -2.574124   -1.587693   -0.122131
     12          8           0       -3.743435   -1.890112   -0.141765
     13          8           0       -1.568331   -2.488314   -0.212329
     14          6           0        2.826683    0.150072   -0.788923
     15          6           0        3.544813   -0.471501    0.432902
     16          6           0        2.781775   -1.670863    1.025770
     17          8           0        2.319637   -2.569573    0.036096
     18          1           0        2.073113    3.235121   -1.091220
     19          1           0        0.936299    3.736794    0.185823
     20          1           0        2.443945    2.889707    0.620892
     21          1           0       -3.334338    2.737667    0.737580
     22          1           0       -1.997523   -3.360234   -0.297471
     23          1           0        2.854269   -0.581230   -1.600883
     24          1           0        3.359304    1.045187   -1.124762
     25          1           0        4.536656   -0.791156    0.093465
     26          1           0        3.696622    0.283611    1.216306
     27          1           0        3.453498   -2.227523    1.688939
     28          1           0        1.948016   -1.304925    1.642836
     29          1           0        1.471894   -2.198478   -0.284316
 ---------------------------------------------------------------------

 SCF Done:  E(UB3LYP) =  -833.316993183     A.U. after   25 cycles

 The electronic state is 2-A.
 Alpha  occ. eigenvalues --  -19.01990 -18.99453 -18.94820 -14.24881 -14.17146
 Alpha  occ. eigenvalues --  -14.15833 -14.15113 -10.13490 -10.11527 -10.10664
 Alpha  occ. eigenvalues --  -10.10474 -10.09750 -10.08162 -10.07669 -10.07273
 Alpha  occ. eigenvalues --  -10.05713 -10.05053  -0.95747  -0.90500  -0.89869
 Alpha  occ. eigenvalues --   -0.86477  -0.82436  -0.77713  -0.73251  -0.69297
 Alpha  occ. eigenvalues --   -0.63378  -0.61744  -0.59014  -0.53872  -0.50577
 Alpha  occ. eigenvalues --   -0.50064  -0.47077  -0.43902  -0.41403  -0.40570
 Alpha  occ. eigenvalues --   -0.38661  -0.37349  -0.35910  -0.34804  -0.34031
 Alpha  occ. eigenvalues --   -0.33462  -0.32246  -0.31326  -0.31215  -0.30306
 Alpha  occ. eigenvalues --   -0.29512  -0.28442  -0.27238  -0.26559  -0.26317
 Alpha  occ. eigenvalues --   -0.24763  -0.23614  -0.21476  -0.19478  -0.18230
 Alpha  occ. eigenvalues --   -0.17822  -0.16019  -0.14512  -0.13497  -0.12887
 Alpha  occ. eigenvalues --   -0.11153  -0.10471   0.02607
 Alpha virt. eigenvalues --    0.06491   0.08153   0.08951   0.09850   0.10566
 Alpha virt. eigenvalues --    0.10683   0.11376   0.11661   0.12730   0.13013
 Alpha virt. eigenvalues --    0.13449   0.14254   0.14558   0.15155   0.15482

  Beta  occ. eigenvalues --  -19.01927 -18.99451 -18.94526 -14.24924 -14.17184
  Beta  occ. eigenvalues --  -14.15386 -14.14990 -10.13348 -10.11525 -10.10664
  Beta  occ. eigenvalues --  -10.10144 -10.09731 -10.08152 -10.07696 -10.07228
  Beta  occ. eigenvalues --  -10.05652 -10.04630  -0.95491  -0.90356  -0.89818
  Beta  occ. eigenvalues --   -0.86049  -0.81950  -0.77592  -0.72679  -0.69119
  Beta  occ. eigenvalues --   -0.63071  -0.61610  -0.58739  -0.53331  -0.50444
  Beta  occ. eigenvalues --   -0.49870  -0.46891  -0.43771  -0.41234  -0.40423
  Beta  occ. eigenvalues --   -0.38560  -0.37161  -0.35681  -0.34735  -0.33938
  Beta  occ. eigenvalues --   -0.33150  -0.32114  -0.31074  -0.30450  -0.30156
  Beta  occ. eigenvalues --   -0.28787  -0.28253  -0.27071  -0.26269  -0.26148
  Beta  occ. eigenvalues --   -0.24495  -0.22802  -0.21447  -0.18419  -0.17918
  Beta  occ. eigenvalues --   -0.16753  -0.15955  -0.14307  -0.12661  -0.12257
  Beta  occ. eigenvalues --   -0.10177  -0.09619
  Beta virt. eigenvalues --    0.06370   0.07997   0.08857   0.09108   0.09886
  Beta virt. eigenvalues --    0.10590   0.10711   0.11351   0.11692   0.12845
  Beta virt. eigenvalues --    0.13255   0.13572   0.14305   0.14818   0.15376

 Mulliken charges and spin densities:
               1          2
     1  C   -0.395406  -0.017243
     2  N    0.035932  -0.026202
     3  C   -0.383001   0.128601
     4  N   -0.119146  -0.017210
     5  C    0.361829   0.040668
     6  C   -0.242471   0.320105
     7  N   -0.117579   0.058799
     8  C    0.181127   0.016724
     9  N   -0.228298   0.220255
    10  C   -0.302160  -0.032196
    11  C    0.207631   0.081224
    12  O   -0.366877   0.102898
    13  O   -0.234059   0.013631
    14  C   -0.712792   0.096840
    15  C    0.082648  -0.086080
    16  C   -0.492727  -0.018130
    17  O   -0.302380   0.000813
    18  H    0.163683  -0.000418
    19  H    0.186246  -0.002386
    20  H    0.140415   0.012667
    21  H    0.174273  -0.002179
    22  H    0.284612  -0.000464
    23  H    0.224771   0.015256
    24  H    0.086640   0.017895
    25  H    0.077500   0.064425
    26  H    0.070095   0.008143
    27  H    0.142367   0.002367
    28  H    0.165786  -0.001705
    29  H    0.311343   0.002902
 Sum of Mulliken charges =  -1.00000   1.00000

 Dipole moment (field-independent basis, Debye):
    X=              8.7965    Y=              2.9376    Z=              0.0519  Tot=              9.2742
 Quadrupole moment (field-independent basis, Debye-Ang):
   XX=           -151.0378   YY=           -121.6540   ZZ=           -104.3888
   XY=              7.2272   XZ=              2.3297   YZ=             -2.7746

 Summary of Natural Population Analysis:

                                       Natural Population
                Natural  -----------------------------------------------
    Atom  No    Charge         Core      Valence    Rydberg      Total
 -----------------------------------------------------------------------
      C    1   -0.17720      0.99966     2.17130    0.00624     3.17720
      N    2   -0.22906      0.99957     2.72033    0.00915     3.72906
      C    3    0.27181      0.99960     1.71154    0.01705     2.72819
      N    4   -0.28545      0.99965     2.77582    0.00999     3.78545
      C    5    0.04756      0.99943     1.94053    0.01248     2.95244
      C    6    0.12769      0.99944     1.85718    0.01568     2.87231
      N    7   -0.22019      0.99969     2.71166    0.00884     3.72019
      C    8    0.12226      0.99969     1.85835    0.01970     2.87774
      N    9   -0.21123      0.99966     2.70157    0.01000     3.71123
      C   10    0.18623      0.99948     1.79806    0.01623     2.81377
      C   11    0.40497      0.99971     1.56929    0.02603     2.59503
      O   12   -0.28305      0.99987     3.27665    0.00653     4.28305
      O   13   -0.34470      0.99988     3.33649    0.00833     4.34470
      C   14   -0.22059      0.99960     2.21237    0.00862     3.22059
      C   15   -0.18991      0.99963     2.18217    0.00810     3.18991
      C   16   -0.01306      0.99961     2.00136    0.01209     3.01306
      O   17   -0.39050      0.99990     3.38259    0.00801     4.39050
      H   18    0.09126      0.00000     0.40768    0.00106     0.40874
      H   19    0.11426      0.00000     0.38448    0.00125     0.38574
      H   20    0.09189      0.00000     0.40706    0.00105     0.40811
      H   21    0.07191      0.00000     0.42678    0.00132     0.42809
      H   22    0.22630      0.00000     0.26860    0.00510     0.27370
      H   23    0.11437      0.00000     0.38323    0.00240     0.38563
      H   24    0.10003      0.00000     0.39871    0.00127     0.39997
      H   25    0.09038      0.00000     0.40768    0.00194     0.40962
      H   26    0.09101      0.00000     0.40749    0.00149     0.40899
      H   27    0.07791      0.00000     0.42083    0.00126     0.42209
      H   28    0.08221      0.00000     0.41659    0.00119     0.41779
      H   29    0.25288      0.00000     0.24429    0.00284     0.24712
 =======================================================================
   * Total *    0.00000     16.99406    44.78070    0.22524    62.00000

 Normal termination of Gaussian 16 at Sun Dec 13 13:12:29 2020.
