 Gaussian 16, Revision A.03,

 -----------------------------------------------------------
 # opt freq B3LYP/6-31G(d) empiricaldispersion=gd3bj scf=xqc
 -----------------------------------------------------------

 -------------------------------
 CID_112580641_JID_9435_neutraal
 -------------------------------
 Symbolic Z-matrix:
 Charge =  0 Multiplicity = 1

 SCF Done:  E(RB3LYP) =  -912.730964947     A.U. after   18 cycles
 SCF Done:  E(RB3LYP) =  -912.738361382     A.U. after   15 cycles
 SCF Done:  E(RB3LYP) =  -912.737529074     A.U. after   14 cycles
 SCF Done:  E(RB3LYP) =  -912.737735584     A.U. after   15 cycles
 SCF Done:  E(RB3LYP) =  -912.739389251     A.U. after   11 cycles
 SCF Done:  E(RB3LYP) =  -912.740106099     A.U. after   14 cycles
 SCF Done:  E(RB3LYP) =  -912.740550594     A.U. after   15 cycles
 SCF Done:  E(RB3LYP) =  -912.741721477     A.U. after   15 cycles
 SCF Done:  E(RB3LYP) =  -912.743668780     A.U. after   15 cycles
 SCF Done:  E(RB3LYP) =  -912.745294651     A.U. after   15 cycles
 SCF Done:  E(RB3LYP) =  -912.746377085     A.U. after   14 cycles
 SCF Done:  E(RB3LYP) =  -912.746513650     A.U. after   14 cycles
 SCF Done:  E(RB3LYP) =  -912.746515341     A.U. after   10 cycles
 SCF Done:  E(RB3LYP) =  -912.746515876     A.U. after    9 cycles
 SCF Done:  E(RB3LYP) =  -912.746515945     A.U. after    8 cycles
 SCF Done:  E(RB3LYP) =  -912.746515973     A.U. after    8 cycles
 Optimization completed.
    -- Stationary point found.
 Normal termination of Gaussian 16 at Sun Dec 13 16:23:41 2020.

 --------------------------------------------------------------------
 #N Geom=AllCheck Guess=TCheck SCRF=Check GenChk RB3LYP/6-31G(d) Freq
 --------------------------------------------------------------------

 Structure from the checkpoint file:  "JID_9435.chk"
 -------------------------------
 CID_112580641_JID_9435_neutraal
 -------------------------------
 Charge =  0 Multiplicity = 1

 SCF Done:  E(RB3LYP) =  -912.746515973     A.U. after    1 cycles

  Exact polarizability: 217.390   0.718 182.182  -4.349  -1.456 105.334
 Approx polarizability: 316.682 -10.168 306.421  -8.087  -7.584 175.380

                      1                      2                      3
                      A                      A                      A
 Frequencies --     25.3321                26.7483                46.3330
 Red. masses --      4.3749                 3.9351                 6.0747
 Frc consts  --      0.0017                 0.0017                 0.0077
 IR Inten    --      0.0872                 0.3016                 0.8341

                      4                      5                      6
                      A                      A                      A
 Frequencies --     61.0259                89.3613               110.8860
 Red. masses --      3.5486                 7.0660                 4.9813
 Frc consts  --      0.0078                 0.0332                 0.0361
 IR Inten    --      1.4170                 1.9620                 1.4866

                      7                      8                      9
                      A                      A                      A
 Frequencies --    121.4915               138.6789               154.5729
 Red. masses --      3.7005                 1.7992                 4.2313
 Frc consts  --      0.0322                 0.0204                 0.0596
 IR Inten    --      1.2553                 0.4231                 3.3459

                     10                     11                     12
                      A                      A                      A
 Frequencies --    161.2920               190.5495               204.8103
 Red. masses --      1.3251                 5.1084                 3.6949
 Frc consts  --      0.0203                 0.1093                 0.0913
 IR Inten    --      0.2447                 4.1578                 0.2226

                     13                     14                     15
                      A                      A                      A
 Frequencies --    230.7899               242.6279               268.7835
 Red. masses --      1.5695                 3.1070                 3.6722
 Frc consts  --      0.0493                 0.1078                 0.1563
 IR Inten    --      0.9322                 8.0245                 2.4418

                     16                     17                     18
                      A                      A                      A
 Frequencies --    280.2955               305.6247               319.3155
 Red. masses --      4.6565                 2.6136                 3.3442
 Frc consts  --      0.2155                 0.1438                 0.2009
 IR Inten    --      3.4072                 2.7630                 5.0309

                     19                     20                     21
                      A                      A                      A
 Frequencies --    338.8115               365.8002               381.8442
 Red. masses --      3.6021                 2.2541                 2.1487
 Frc consts  --      0.2436                 0.1777                 0.1846
 IR Inten    --      2.6200                 9.9164                21.5198

                     22                     23                     24
                      A                      A                      A
 Frequencies --    402.1564               420.7400               430.8726
 Red. masses --      2.0928                 6.1080                 2.5276
 Frc consts  --      0.1994                 0.6371                 0.2765
 IR Inten    --      1.9952                15.3761                 2.2470

                     25                     26                     27
                      A                      A                      A
 Frequencies --    453.5810               528.7638               541.3390
 Red. masses --      2.9474                 3.6093                 4.6592
 Frc consts  --      0.3573                 0.5946                 0.8045
 IR Inten    --      7.9496                 6.1808                10.5045

                     28                     29                     30
                      A                      A                      A
 Frequencies --    562.5990               607.8314               623.0525
 Red. masses --      3.6705                 4.8956                 4.0987
 Frc consts  --      0.6845                 1.0657                 0.9374
 IR Inten    --      6.6723                14.6966                44.4844

                     31                     32                     33
                      A                      A                      A
 Frequencies --    671.5633               715.3399               726.5945
 Red. masses --      6.3767                 2.2509                 3.3297
 Frc consts  --      1.6944                 0.6786                 1.0357
 IR Inten    --     28.8405                89.0201                17.4153

                     34                     35                     36
                      A                      A                      A
 Frequencies --    745.4739               751.8339               769.2974
 Red. masses --      2.7007                 2.1594                 2.5567
 Frc consts  --      0.8843                 0.7192                 0.8915
 IR Inten    --     14.2383                36.2466                49.8687

                     37                     38                     39
                      A                      A                      A
 Frequencies --    779.8212               813.5001               819.1938
 Red. masses --      2.4169                 2.4035                 3.1355
 Frc consts  --      0.8660                 0.9371                 1.2397
 IR Inten    --     17.9875                 4.2965                 5.1809

                     40                     41                     42
                      A                      A                      A
 Frequencies --    836.3175               865.1542               917.4023
 Red. masses --      3.7367                 2.1512                 2.4379
 Frc consts  --      1.5399                 0.9487                 1.2089
 IR Inten    --     10.2508                 8.6882                12.6627

                     43                     44                     45
                      A                      A                      A
 Frequencies --    955.6750               960.7127               964.9790
 Red. masses --      1.4400                 1.9775                 1.9093
 Frc consts  --      0.7749                 1.0754                 1.0475
 IR Inten    --      1.5458                 3.6240                 3.8477

                     46                     47                     48
                      A                      A                      A
 Frequencies --    973.6170               998.8352              1018.2671
 Red. masses --      1.3398                 1.9337                 1.8010
 Frc consts  --      0.7483                 1.1367                 1.1002
 IR Inten    --      2.4919               107.8877                 0.3550

                     49                     50                     51
                      A                      A                      A
 Frequencies --   1077.8679              1104.7247              1121.3402
 Red. masses --      2.1372                 1.9327                 1.8428
 Frc consts  --      1.4630                 1.3897                 1.3652
 IR Inten    --      9.7180               146.0039                 3.8600

                     52                     53                     54
                      A                      A                      A
 Frequencies --   1134.8582              1141.8664              1164.5550
 Red. masses --      1.8860                 1.8619                 1.3830
 Frc consts  --      1.4311                 1.4304                 1.1051
 IR Inten    --     30.6998                18.2060                 7.2843

                     55                     56                     57
                      A                      A                      A
 Frequencies --   1181.3460              1199.1028              1212.9879
 Red. masses --      2.5580                 1.2767                 2.0158
 Frc consts  --      2.1033                 1.0816                 1.7475
 IR Inten    --     30.5894                 7.8475                 3.7876

                     58                     59                     60
                      A                      A                      A
 Frequencies --   1234.0292              1274.2121              1281.5441
 Red. masses --      2.7426                 1.9655                 1.3577
 Frc consts  --      2.4607                 1.8802                 1.3137
 IR Inten    --     19.6376                10.0954                 1.6028

                     61                     62                     63
                      A                      A                      A
 Frequencies --   1313.6358              1331.7183              1345.5920
 Red. masses --      2.0772                 3.3835                 1.2498
 Frc consts  --      2.1119                 3.5354                 1.3333
 IR Inten    --    163.9718               109.1131                28.7054

                     64                     65                     66
                      A                      A                      A
 Frequencies --   1354.1470              1372.7631              1387.9343
 Red. masses --      1.3684                 3.0987                 1.3872
 Frc consts  --      1.4784                 3.4405                 1.5744
 IR Inten    --     43.2830               170.2117                 5.9272

                     67                     68                     69
                      A                      A                      A
 Frequencies --   1389.4163              1407.2392              1421.4665
 Red. masses --      5.2389                 1.5834                 1.3010
 Frc consts  --      5.9587                 1.8474                 1.5488
 IR Inten    --    127.9390                26.3241                 0.4936

                     70                     71                     72
                      A                      A                      A
 Frequencies --   1443.9247              1458.3279              1483.2299
 Red. masses --      1.2655                 1.8207                 2.5706
 Frc consts  --      1.5546                 2.2814                 3.3320
 IR Inten    --     14.4857                79.2239                51.9992

                     73                     74                     75
                      A                      A                      A
 Frequencies --   1493.0219              1497.8331              1509.3160
 Red. masses --      2.5588                 1.3322                 1.2305
 Frc consts  --      3.3606                 1.7609                 1.6515
 IR Inten    --     52.1138                28.9027                24.1097

                     76                     77                     78
                      A                      A                      A
 Frequencies --   1514.5143              1521.1308              1527.2513
 Red. masses --      1.0941                 1.0579                 1.0607
 Frc consts  --      1.4786                 1.4422                 1.4577
 IR Inten    --      9.1858                 2.5826                10.0834

                     79                     80                     81
                      A                      A                      A
 Frequencies --   1532.5923              1552.2293              1553.1719
 Red. masses --      1.0707                 1.0520                 1.2149
 Frc consts  --      1.4817                 1.4934                 1.7267
 IR Inten    --      9.4938                 2.9973                59.7468

                     82                     83                     84
                      A                      A                      A
 Frequencies --   1574.4209              1609.1367              1637.7327
 Red. masses --      2.5571                 5.4431                 2.9507
 Frc consts  --      3.7346                 8.3038                 4.6630
 IR Inten    --     74.6649               131.7115               139.2266

                     85                     86                     87
                      A                      A                      A
 Frequencies --   1661.6645              1706.8242              1736.0508
 Red. masses --      4.9286                 3.9997                 1.1589
 Frc consts  --      8.0179                 6.8653                 2.0579
 IR Inten    --     81.5855               260.4412                 9.2132

                     88                     89                     90
                      A                      A                      A
 Frequencies --   3031.7917              3040.3080              3041.8488
 Red. masses --      1.0614                 1.0631                 1.0499
 Frc consts  --      5.7481                 5.7896                 5.7237
 IR Inten    --      9.8778                25.1859                28.1027

                     91                     92                     93
                      A                      A                      A
 Frequencies --   3046.0638              3053.2367              3066.0276
 Red. masses --      1.0428                 1.0706                 1.0996
 Frc consts  --      5.7009                 5.8803                 6.0902
 IR Inten    --     32.6534                69.1793                32.8153

                     94                     95                     96
                      A                      A                      A
 Frequencies --   3075.4535              3108.4037              3112.8348
 Red. masses --      1.0994                 1.1002                 1.0930
 Frc consts  --      6.1265                 6.2630                 6.2398
 IR Inten    --     69.4989                42.0292                23.8691

                     97                     98                     99
                      A                      A                      A
 Frequencies --   3148.7696              3166.8970              3191.1208
 Red. masses --      1.0993                 1.0927                 1.0975
 Frc consts  --      6.4216                 6.4567                 6.5848
 IR Inten    --     15.3367                 4.7647                 8.5539

                    100                    101                    102
                      A                      A                      A
 Frequencies --   3199.7142              3223.8518              3248.6924
 Red. masses --      1.0885                 1.0923                 1.0933
 Frc consts  --      6.5662                 6.6885                 6.7986
 IR Inten    --      5.8888                 8.2895                 1.9136

                    103                    104                    105
                      A                      A                      A
 Frequencies --   3412.1426              3516.8731              3535.3870
 Red. masses --      1.0517                 1.0884                 1.0785
 Frc consts  --      7.2145                 7.9312                 7.9423
 IR Inten    --      7.9953                20.7776               189.2274

 - Thermochemistry -
 -------------------
 Temperature   298.150 Kelvin.  Pressure   1.00000 Atm.
 Atom     1 has atomic number  6 and mass  12.00000

 Molecular mass:   266.13789 amu.
 Principal axes and moments of inertia in atomic units:
                           1         2         3
     Eigenvalues --  2694.709787883.453389517.53897
           X            0.99986  -0.01383   0.00992
           Y            0.01365   0.99975   0.01774
           Z           -0.01017  -0.01760   0.99979
 This molecule is an asymmetric top.
 Rotational symmetry number  1.
 Warning -- assumption of classical behavior for rotation
           may cause significant error
 Rotational temperatures (Kelvin)      0.03214     0.01099     0.00910
 Rotational constants (GHZ):           0.66973     0.22893     0.18962
 Zero-point vibrational energy     811089.8 (Joules/Mol)
                                  193.85511 (Kcal/Mol)
 Warning -- explicit consideration of  29 degrees of freedom as
           vibrations may cause significant error
 Vibrational temperatures:     36.45    38.48    66.66    87.80   128.57
          (Kelvin)            159.54   174.80   199.53   222.40   232.06
                              274.16   294.68   332.06   349.09   386.72
                              403.28   439.73   459.42   487.47   526.30
                              549.39   578.61   605.35   619.93   652.60
                              760.77   778.87   809.45   874.53   896.43
                              966.23  1029.21  1045.41  1072.57  1081.72
                             1106.85  1121.99  1170.45  1178.64  1203.27
                             1244.76  1319.94  1375.00  1382.25  1388.39
                             1400.82  1437.10  1465.06  1550.81  1589.45
                             1613.36  1632.81  1642.89  1675.53  1699.69
                             1725.24  1745.22  1775.49  1833.31  1843.86
                             1890.03  1916.05  1936.01  1948.32  1975.10
                             1996.93  1999.06  2024.70  2045.17  2077.49
                             2098.21  2134.04  2148.13  2155.05  2171.57
                             2179.05  2188.57  2197.37  2205.06  2233.31
                             2234.67  2265.24  2315.19  2356.33  2390.76
                             2455.74  2497.79  4362.07  4374.33  4376.54
                             4382.61  4392.93  4411.33  4424.89  4472.30
                             4478.67  4530.38  4556.46  4591.31  4603.68
                             4638.40  4674.14  4909.31  5060.00  5086.63

 Zero-point correction=                           0.308928 (Hartree/Particle)
 Thermal correction to Energy=                    0.327838
 Thermal correction to Enthalpy=                  0.328782
 Thermal correction to Gibbs Free Energy=         0.260687
 Sum of electronic and zero-point Energies=           -912.437588
 Sum of electronic and thermal Energies=              -912.418678
 Sum of electronic and thermal Enthalpies=            -912.417734
 Sum of electronic and thermal Free Energies=         -912.485829

                     E (Thermal)             CV                S
                      KCal/Mol        Cal/Mol-Kelvin    Cal/Mol-Kelvin
 Total                  205.721             70.665            143.317
 Electronic               0.000              0.000              0.000
 Translational            0.889              2.981             42.636
 Rotational               0.889              2.981             33.669
 Vibrational            203.944             64.703             67.012
 Vibration     1          0.593              1.985              6.165
 Vibration     2          0.593              1.984              6.057
 Vibration     3          0.595              1.979              4.968
 Vibration     4          0.597              1.973              4.424
 Vibration     5          0.602              1.957              3.674
 Vibration     6          0.607              1.940              3.253
 Vibration     7          0.609              1.931              3.077
 Vibration     8          0.614              1.915              2.822
 Vibration     9          0.620              1.898              2.615
 Vibration    10          0.622              1.890              2.535
 Vibration    11          0.634              1.853              2.222
 Vibration    12          0.640              1.833              2.089
 Vibration    13          0.652              1.794              1.873
 Vibration    14          0.659              1.775              1.784
 Vibration    15          0.673              1.731              1.604
 Vibration    16          0.680              1.710              1.532
 Vibration    17          0.696              1.663              1.386
 Vibration    18          0.705              1.637              1.314
 Vibration    19          0.719              1.598              1.218
 Vibration    20          0.739              1.543              1.097
 Vibration    21          0.751              1.509              1.032
 Vibration    22          0.768              1.465              0.955
 Vibration    23          0.783              1.425              0.889
 Vibration    24          0.792              1.403              0.856
 Vibration    25          0.812              1.353              0.785
 Vibration    26          0.884              1.186              0.590
 Vibration    27          0.896              1.159              0.562
 Vibration    28          0.918              1.112              0.519
 Vibration    29          0.967              1.015              0.436

                           ! Non-Optimized Parameters !
 Normal termination of Gaussian 16 at Sun Dec 13 16:42:29 2020.

 ----------------------------------------------------------------------
 # B3LYP/6-311++G(d,p) empiricaldispersion=gd3bj scf=xqc pop=npa geom=c
 heck
 ----------------------------------------------------------------------

 ---------------------------------------
 CID_112580641_JID_9435_Energie_neutraal
 ---------------------------------------
 Structure from the checkpoint file:  "JID_9435.chk"
 Charge =  0 Multiplicity = 1

 SCF Done:  E(RB3LYP) =  -913.011617466     A.U. after   20 cycles
 Normal termination of Gaussian 16 at Sun Dec 13 16:53:29 2020.

 ----------------------------------------------------------------------
 # B3LYP/6-311++G(d,p) empiricaldispersion=gd3bj scf=xqc pop=npa geom=c
 heck
 ----------------------------------------------------------------------

 -------------------------------------
 CID_112580641_JID_9435_Energie_kation
 -------------------------------------
 Structure from the checkpoint file:  "JID_9435.chk"
 Charge =  1 Multiplicity = 2

 SCF Done:  E(UB3LYP) =  -912.710877963     A.U. after   31 cycles
 Normal termination of Gaussian 16 at Sun Dec 13 17:17:45 2020.
 Gaussian 16:  ES64L-G16RevA.03 25-Dec-2016

 ----------------------------------------------------------------------
 # B3LYP/6-311++G(d,p) empiricaldispersion=gd3bj scf=xqc pop=npa geom=c
 heck
 ----------------------------------------------------------------------

 ------------------------------------
 CID_112580641_JID_9435_Energie_anion
 ------------------------------------
 Structure from the checkpoint file:  "JID_9435.chk"
 Charge = -1 Multiplicity = 2

                         Standard orientation:
 ---------------------------------------------------------------------
 Center     Atomic      Atomic             Coordinates (Angstroms)
 Number     Number       Type             X           Y           Z
 ---------------------------------------------------------------------
      1          6           0        3.880012   -2.241548   -0.324937
      2          6           0        3.641743   -1.361734    0.905140
      3          6           0        4.213780    0.056967    0.778787
      4          6           0        3.509354    0.956653   -0.247975
      5          7           0        2.091830    1.199621    0.050743
      6          6           0        1.815720    2.087135    1.173119
      7          6           0        1.149856    0.517890   -0.661664
      8          8           0        1.457853   -0.359489   -1.481080
      9          6           0       -0.297286    0.862590   -0.445091
     10          6           0       -1.247357   -0.193333   -0.249768
     11          6           0       -2.582755    0.218272    0.015001
     12          6           0       -2.987423    1.552343   -0.130274
     13          6           0       -2.068850    2.537594   -0.438486
     14          6           0       -0.720482    2.180486   -0.554367
     15          7           0       -3.588282   -0.678450    0.563956
     16          8           0       -4.774445   -0.439909    0.324229
     17          8           0       -3.208758   -1.597006    1.304151
     18          7           0       -0.816923   -1.486995   -0.351147
     19          7           0       -1.634602   -2.584541   -0.687398
     20          1           0        3.358026   -1.844325   -1.199125
     21          1           0        3.511046   -3.258540   -0.151511
     22          1           0        4.950570   -2.310925   -0.556221
     23          1           0        2.565328   -1.302933    1.113338
     24          1           0        4.095678   -1.834275    1.785767
     25          1           0        4.197871    0.545272    1.762170
     26          1           0        5.272374    0.002459    0.489691
     27          1           0        4.008290    1.933519   -0.284716
     28          1           0        3.553574    0.515153   -1.243093
     29          1           0        1.968696    3.139328    0.899426
     30          1           0        0.794031    1.957303    1.524438
     31          1           0        2.493387    1.847717    1.997662
     32          1           0       -4.032206    1.780868    0.039703
     33          1           0       -2.380311    3.570378   -0.546941
     34          1           0        0.022154    2.947783   -0.752111
     35          1           0        0.103699   -1.568746   -0.771439
     36          1           0       -2.156851   -2.848839    0.146962
     37          1           0       -2.324584   -2.287315   -1.382399
 ---------------------------------------------------------------------

 SCF Done:  E(UB3LYP) =  -913.049208778     A.U. after   23 cycles

 The electronic state is 2-A.
 Alpha  occ. eigenvalues --  -18.98321 -18.94743 -18.94719 -14.32268 -14.25129
 Alpha  occ. eigenvalues --  -14.21576 -14.19547 -10.16925 -10.11947 -10.11616
 Alpha  occ. eigenvalues --  -10.10067 -10.09305 -10.08348 -10.06903 -10.06891
 Alpha  occ. eigenvalues --  -10.05511 -10.04467 -10.04128 -10.03602  -1.02638
 Alpha  occ. eigenvalues --   -0.93810  -0.86232  -0.85039  -0.84381  -0.73985
 Alpha  occ. eigenvalues --   -0.71480  -0.67655  -0.65876  -0.64216  -0.62258
 Alpha  occ. eigenvalues --   -0.60134  -0.56861  -0.53531  -0.51391  -0.48850
 Alpha  occ. eigenvalues --   -0.45718  -0.45056  -0.41562  -0.39964  -0.39075
 Alpha  occ. eigenvalues --   -0.38774  -0.37838  -0.37374  -0.36439  -0.35406
 Alpha  occ. eigenvalues --   -0.35250  -0.34989  -0.33496  -0.32356  -0.31935
 Alpha  occ. eigenvalues --   -0.31816  -0.30623  -0.30314  -0.29847  -0.29029
 Alpha  occ. eigenvalues --   -0.28284  -0.25570  -0.25186  -0.25099  -0.24944
 Alpha  occ. eigenvalues --   -0.24451  -0.23820  -0.18870  -0.16407  -0.15382
 Alpha  occ. eigenvalues --   -0.15123  -0.13675  -0.12939  -0.12395  -0.10265
 Alpha  occ. eigenvalues --   -0.08266   0.02568
 Alpha virt. eigenvalues --    0.05581   0.07194   0.07682   0.08407   0.08765
 Alpha virt. eigenvalues --    0.09643   0.09858   0.10878   0.10965   0.11755
 Alpha virt. eigenvalues --    0.11809   0.12601   0.12924   0.13276   0.13918

  Beta  occ. eigenvalues --  -18.98292 -18.94280 -18.94261 -14.31569 -14.25120
  Beta  occ. eigenvalues --  -14.21533 -14.19533 -10.16894 -10.11948 -10.11616
  Beta  occ. eigenvalues --  -10.10021 -10.09303 -10.08348 -10.06910 -10.06890
  Beta  occ. eigenvalues --  -10.05495 -10.04244 -10.04162 -10.03342  -1.01552
  Beta  occ. eigenvalues --   -0.93755  -0.86027  -0.84428  -0.84221  -0.73756
  Beta  occ. eigenvalues --   -0.71467  -0.67489  -0.65605  -0.63997  -0.62181
  Beta  occ. eigenvalues --   -0.59974  -0.56796  -0.52656  -0.51211  -0.48767
  Beta  occ. eigenvalues --   -0.45601  -0.44875  -0.41329  -0.39830  -0.38996
  Beta  occ. eigenvalues --   -0.38655  -0.37544  -0.37276  -0.36314  -0.35318
  Beta  occ. eigenvalues --   -0.34731  -0.33396  -0.32820  -0.31871  -0.31798
  Beta  occ. eigenvalues --   -0.31620  -0.30520  -0.30214  -0.29484  -0.28920
  Beta  occ. eigenvalues --   -0.28102  -0.25508  -0.25137  -0.24963  -0.24673
  Beta  occ. eigenvalues --   -0.24192  -0.23618  -0.18274  -0.16259  -0.15255
  Beta  occ. eigenvalues --   -0.14473  -0.12683  -0.11961  -0.10378  -0.09722
  Beta  occ. eigenvalues --   -0.07757
  Beta virt. eigenvalues --    0.05548   0.07158   0.07699   0.08366   0.08732
  Beta virt. eigenvalues --    0.09577   0.09808   0.10144   0.10904   0.11072
  Beta virt. eigenvalues --    0.11758   0.11892   0.12605   0.13165   0.13877

 Mulliken charges and spin densities:
               1          2
     1  C   -0.581182  -0.004725
     2  C   -0.060161   0.008022
     3  C   -0.359748  -0.022470
     4  C   -0.158860   0.011132
     5  N    0.182829  -0.006080
     6  C   -0.396118  -0.004126
     7  C   -1.219758   0.033035
     8  O   -0.277600   0.012711
     9  C    1.462183   0.024746
    10  C   -0.186198   0.005258
    11  C   -0.135782  -0.073136
    12  C   -0.116038   0.252436
    13  C   -0.525457  -0.069322
    14  C   -0.628814   0.215539
    15  N   -0.307210   0.226470
    16  O   -0.151133   0.182343
    17  O   -0.199638   0.174797
    18  N   -0.068419   0.017285
    19  N   -0.332800  -0.005490
    20  H    0.196863   0.001945
    21  H    0.124264   0.000273
    22  H    0.105296   0.002773
    23  H    0.183924  -0.000225
    24  H    0.153381   0.001067
    25  H    0.118196   0.000413
    26  H    0.115956   0.006181
    27  H    0.157168   0.003307
    28  H    0.185488  -0.001724
    29  H    0.161817   0.003649
    30  H    0.200917  -0.000691
    31  H    0.108328   0.000373
    32  H    0.207385  -0.005821
    33  H    0.119389   0.005471
    34  H    0.116334  -0.016746
    35  H    0.326587  -0.003552
    36  H    0.278943   0.009911
    37  H    0.199668   0.014971
 Sum of Mulliken charges =  -1.00000   1.00000

 Dipole moment (field-independent basis, Debye):
    X=             12.7761    Y=              4.4414    Z=              0.2049  Tot=             13.5276
 Quadrupole moment (field-independent basis, Debye-Ang):
   XX=           -179.5375   YY=           -131.9392   ZZ=           -129.0212
   XY=             -5.2298   XZ=             13.5287   YZ=              3.8881

 Summary of Natural Population Analysis:

                                       Natural Population
                Natural  -----------------------------------------------
    Atom  No    Charge         Core      Valence    Rydberg      Total
 -----------------------------------------------------------------------
      C    1   -0.29260      0.99967     2.28805    0.00488     3.29260
      C    2   -0.19319      0.99964     2.18666    0.00688     3.19319
      C    3   -0.19226      0.99963     2.18614    0.00649     3.19226
      C    4   -0.08659      0.99961     2.07781    0.00918     3.08659
      N    5   -0.25439      0.99963     2.74341    0.01135     3.75439
      C    6   -0.17713      0.99964     2.17113    0.00636     3.17713
      C    7    0.35406      0.99958     1.62552    0.02084     2.64594
      O    8   -0.34481      0.99988     3.33917    0.00577     4.34481
      C    9   -0.10030      0.99944     2.08849    0.01236     3.10030
      C   10    0.11562      0.99945     1.87393    0.01100     2.88438
      C   11    0.00638      0.99940     1.97809    0.01614     2.99362
      C   12   -0.03144      0.99954     2.02272    0.00918     3.03144
      C   13   -0.15674      0.99957     2.14720    0.00998     3.15674
      C   14   -0.03286      0.99954     2.02497    0.00835     3.03286
      N   15    0.31275      0.99971     2.16109    0.02646     3.18725
      O   16   -0.19543      0.99990     3.18796    0.00757     4.19543
      O   17   -0.20848      0.99989     3.20066    0.00793     4.20848
      N   18   -0.21998      0.99962     2.70492    0.01543     3.71998
      N   19   -0.32684      0.99978     2.81594    0.01113     3.82684
      H   20    0.11378      0.00000     0.38525    0.00097     0.38622
      H   21    0.09851      0.00000     0.40068    0.00082     0.40149
      H   22    0.08669      0.00000     0.41233    0.00098     0.41331
      H   23    0.10356      0.00000     0.39512    0.00132     0.39644
      H   24    0.09032      0.00000     0.40851    0.00117     0.40968
      H   25    0.09273      0.00000     0.40617    0.00110     0.40727
      H   26    0.09315      0.00000     0.40575    0.00110     0.40685
      H   27    0.08927      0.00000     0.40966    0.00107     0.41073
      H   28    0.11323      0.00000     0.38559    0.00118     0.38677
      H   29    0.08826      0.00000     0.41062    0.00112     0.41174
      H   30    0.11751      0.00000     0.38172    0.00077     0.38249
      H   31    0.08926      0.00000     0.40951    0.00123     0.41074
      H   32    0.11064      0.00000     0.38820    0.00117     0.38936
      H   33    0.09411      0.00000     0.40482    0.00107     0.40589
      H   34    0.08910      0.00000     0.40957    0.00134     0.41090
      H   35    0.19859      0.00000     0.29927    0.00214     0.30141
      H   36    0.19128      0.00000     0.30668    0.00205     0.30872
      H   37    0.16426      0.00000     0.33359    0.00215     0.33574
 =======================================================================
   * Total *   -0.00000     18.99310    51.77688    0.23002    71.00000

 Normal termination of Gaussian 16 at Sun Dec 13 17:34:43 2020.
