 Gaussian 16, Revision A.03,

 -----------------------------------------------------------
 # opt freq B3LYP/6-31G(d) empiricaldispersion=gd3bj scf=xqc
 -----------------------------------------------------------

 ------------------------------
 CID_79153737_JID_4355_neutraal
 ------------------------------
 Symbolic Z-matrix:
 Charge =  0 Multiplicity = 1

 SCF Done:  E(RB3LYP) =  -633.250205510     A.U. after   14 cycles
 SCF Done:  E(RB3LYP) =  -633.254803315     A.U. after   12 cycles
 SCF Done:  E(RB3LYP) =  -633.255133519     A.U. after   12 cycles
 SCF Done:  E(RB3LYP) =  -633.256308848     A.U. after   12 cycles
 SCF Done:  E(RB3LYP) =  -633.255788280     A.U. after   12 cycles
 SCF Done:  E(RB3LYP) =  -633.256829931     A.U. after   11 cycles
 SCF Done:  E(RB3LYP) =  -633.256861767     A.U. after   11 cycles
 SCF Done:  E(RB3LYP) =  -633.256945468     A.U. after   11 cycles
 SCF Done:  E(RB3LYP) =  -633.256966002     A.U. after   10 cycles
 SCF Done:  E(RB3LYP) =  -633.256977050     A.U. after    9 cycles
 SCF Done:  E(RB3LYP) =  -633.256989269     A.U. after    8 cycles
 SCF Done:  E(RB3LYP) =  -633.256989855     A.U. after    8 cycles
 SCF Done:  E(RB3LYP) =  -633.256989988     A.U. after    7 cycles
 SCF Done:  E(RB3LYP) =  -633.256990025     A.U. after    6 cycles
 SCF Done:  E(RB3LYP) =  -633.256990055     A.U. after    6 cycles
 SCF Done:  E(RB3LYP) =  -633.256990083     A.U. after    6 cycles
 Optimization completed.
    -- Stationary point found.
 Normal termination of Gaussian 16 at Thu Dec 10 09:34:33 2020.

 --------------------------------------------------------------------
 #N Geom=AllCheck Guess=TCheck SCRF=Check GenChk RB3LYP/6-31G(d) Freq
 --------------------------------------------------------------------

 Structure from the checkpoint file:  "JID_4355.chk"
 ------------------------------
 CID_79153737_JID_4355_neutraal
 ------------------------------
 Charge =  0 Multiplicity = 1

 SCF Done:  E(RB3LYP) =  -633.256990083     A.U. after    1 cycles

  Exact polarizability: 132.678  -2.950 124.585   6.137   2.357 114.640
 Approx polarizability: 165.179  -2.243 180.256  11.270   8.377 178.247

                      1                      2                      3
                      A                      A                      A
 Frequencies --     19.9284                35.8395                77.9268
 Red. masses --      3.6847                 3.6911                 2.4280
 Frc consts  --      0.0009                 0.0028                 0.0087
 IR Inten    --      0.1705                 1.0915                 1.1495

                      4                      5                      6
                      A                      A                      A
 Frequencies --     94.6689               114.2631               145.4802
 Red. masses --      3.3665                 2.3811                 2.1175
 Frc consts  --      0.0178                 0.0183                 0.0264
 IR Inten    --      1.0795                 3.1453                 1.8165

                      7                      8                      9
                      A                      A                      A
 Frequencies --    145.5864               176.2867               208.6535
 Red. masses --      2.9645                 1.8121                 2.4642
 Frc consts  --      0.0370                 0.0332                 0.0632
 IR Inten    --      2.2428                 1.1516                 2.6393

                     10                     11                     12
                      A                      A                      A
 Frequencies --    233.0791               264.3951               317.3181
 Red. masses --      1.8500                 2.1054                 2.2729
 Frc consts  --      0.0592                 0.0867                 0.1348
 IR Inten    --      0.3491                 4.8907                 2.8884

                     13                     14                     15
                      A                      A                      A
 Frequencies --    323.6991               331.5821               365.1630
 Red. masses --      2.5781                 2.1773                 2.5327
 Frc consts  --      0.1592                 0.1410                 0.1990
 IR Inten    --      2.1153                 3.1805                 2.9319

                     16                     17                     18
                      A                      A                      A
 Frequencies --    397.9480               413.2015               459.2472
 Red. masses --      2.3276                 1.9757                 3.0216
 Frc consts  --      0.2172                 0.1987                 0.3755
 IR Inten    --      6.0303                 1.0039                 0.4854

                     19                     20                     21
                      A                      A                      A
 Frequencies --    485.7826               528.1654               541.2800
 Red. masses --      2.0511                 2.1538                 3.6641
 Frc consts  --      0.2852                 0.3540                 0.6325
 IR Inten    --      4.4965                23.9407                20.9167

                     22                     23                     24
                      A                      A                      A
 Frequencies --    596.2037               635.6768               735.4904
 Red. masses --      3.7900                 2.0975                 3.6297
 Frc consts  --      0.7937                 0.4994                 1.1568
 IR Inten    --     24.7834                23.2154                16.1544

                     25                     26                     27
                      A                      A                      A
 Frequencies --    746.8581               792.4001               807.2035
 Red. masses --      1.9059                 1.9114                 3.7650
 Frc consts  --      0.6264                 0.7071                 1.4454
 IR Inten    --     53.8803                41.9705                92.0785

                     28                     29                     30
                      A                      A                      A
 Frequencies --    815.1707               833.0377               862.1226
 Red. masses --      2.5959                 1.6219                 2.0631
 Frc consts  --      1.0163                 0.6631                 0.9034
 IR Inten    --     17.9139                 2.9816                 1.0809

                     31                     32                     33
                      A                      A                      A
 Frequencies --    886.1520               909.1725               929.5990
 Red. masses --      1.9351                 2.2244                 2.3572
 Frc consts  --      0.8953                 1.0833                 1.2002
 IR Inten    --     16.0920                 1.0551                 4.8114

                     34                     35                     36
                      A                      A                      A
 Frequencies --    997.8927              1025.8143              1035.3678
 Red. masses --      1.9438                 2.0785                 1.4705
 Frc consts  --      1.1404                 1.2887                 0.9288
 IR Inten    --      5.9275                 9.4149                 0.3069

                     37                     38                     39
                      A                      A                      A
 Frequencies --   1040.9548              1075.0638              1083.2537
 Red. masses --      1.8673                 1.6772                 2.2289
 Frc consts  --      1.1922                 1.1421                 1.5410
 IR Inten    --     25.7303                 0.4254                37.2327

                     40                     41                     42
                      A                      A                      A
 Frequencies --   1095.9836              1108.2046              1136.2069
 Red. masses --      1.3911                 1.9023                 2.1057
 Frc consts  --      0.9845                 1.3765                 1.6016
 IR Inten    --      6.9107                 2.6528                20.0247

                     43                     44                     45
                      A                      A                      A
 Frequencies --   1145.5755              1149.3989              1171.8914
 Red. masses --      1.2235                 2.9121                 2.6489
 Frc consts  --      0.9460                 2.2667                 2.1433
 IR Inten    --      1.6948                 8.2560                 2.7671

                     46                     47                     48
                      A                      A                      A
 Frequencies --   1179.2703              1199.8963              1210.7449
 Red. masses --      1.4008                 1.2683                 1.1956
 Frc consts  --      1.1478                 1.0759                 1.0326
 IR Inten    --      7.2075                 4.1546                22.8572

                     49                     50                     51
                      A                      A                      A
 Frequencies --   1222.7717              1268.7818              1291.8740
 Red. masses --      1.6091                 1.7207                 1.4311
 Frc consts  --      1.4175                 1.6320                 1.4072
 IR Inten    --     83.6226                30.1751                 6.7001

                     52                     53                     54
                      A                      A                      A
 Frequencies --   1302.5711              1316.0137              1329.0617
 Red. masses --      2.6233                 1.3504                 1.2175
 Frc consts  --      2.6224                 1.3780                 1.2671
 IR Inten    --     56.5758                 3.6914                 0.2003

                     55                     56                     57
                      A                      A                      A
 Frequencies --   1357.3933              1367.8018              1379.0512
 Red. masses --      1.3264                 1.3348                 1.4017
 Frc consts  --      1.4399                 1.4713                 1.5706
 IR Inten    --      6.8748                24.3305                 5.2170

                     58                     59                     60
                      A                      A                      A
 Frequencies --   1390.8790              1398.4537              1409.5951
 Red. masses --      1.3850                 1.4899                 1.4343
 Frc consts  --      1.5786                 1.7168                 1.6791
 IR Inten    --      9.1484                11.2419                42.0351

                     61                     62                     63
                      A                      A                      A
 Frequencies --   1423.9581              1441.1510              1453.8585
 Red. masses --      1.5172                 1.7735                 1.5024
 Frc consts  --      1.8126                 2.1702                 1.8710
 IR Inten    --     37.6218               129.6238                 9.6399

                     64                     65                     66
                      A                      A                      A
 Frequencies --   1462.5878              1485.3625              1498.4658
 Red. masses --      1.1494                 1.2769                 1.2520
 Frc consts  --      1.4487                 1.6598                 1.6564
 IR Inten    --      5.0118                 2.0803                29.1592

                     67                     68                     69
                      A                      A                      A
 Frequencies --   1500.2801              1506.7871              1513.8068
 Red. masses --      1.2248                 1.1295                 1.0934
 Frc consts  --      1.6243                 1.5109                 1.4763
 IR Inten    --     11.5318                 0.8584                 5.7396

                     70                     71                     72
                      A                      A                      A
 Frequencies --   1515.8522              1523.7577              1527.4469
 Red. masses --      1.0672                 1.0973                 1.1179
 Frc consts  --      1.4449                 1.5010                 1.5367
 IR Inten    --      8.0471                30.5163                18.9351

                     73                     74                     75
                      A                      A                      A
 Frequencies --   1532.4388              1534.0901              1541.1378
 Red. masses --      1.0505                 1.1144                 1.0635
 Frc consts  --      1.4535                 1.5452                 1.4883
 IR Inten    --     11.9807                 2.7538                 3.7346

                     76                     77                     78
                      A                      A                      A
 Frequencies --   1542.7311              1561.0153              1765.7086
 Red. masses --      1.0986                 1.2608                 6.8985
 Frc consts  --      1.5405                 1.8101                12.6719
 IR Inten    --      3.3600                57.9824               320.1847

                     79                     80                     81
                      A                      A                      A
 Frequencies --   2921.5374              2942.8908              3000.4671
 Red. masses --      1.0737                 1.0731                 1.0831
 Frc consts  --      5.3994                 5.4758                 5.7452
 IR Inten    --     62.4641               110.5371                32.8077

                     82                     83                     84
                      A                      A                      A
 Frequencies --   3023.1426              3028.7615              3030.4126
 Red. masses --      1.0438                 1.0692                 1.0431
 Frc consts  --      5.6207                 5.7787                 5.6439
 IR Inten    --     44.0113                16.3836                86.9278

                     85                     86                     87
                      A                      A                      A
 Frequencies --   3043.3183              3057.5203              3065.1538
 Red. masses --      1.0617                 1.0712                 1.0647
 Frc consts  --      5.7934                 5.9003                 5.8939
 IR Inten    --     35.4555                38.6942                37.9222

                     88                     89                     90
                      A                      A                      A
 Frequencies --   3072.0461              3073.5970              3085.6152
 Red. masses --      1.1044                 1.0870                 1.1033
 Frc consts  --      6.1409                 6.0501                 6.1892
 IR Inten    --     50.5134                61.2640                37.2304

                     91                     92                     93
                      A                      A                      A
 Frequencies --   3089.3727              3090.6732              3093.4497
 Red. masses --      1.0885                 1.0945                 1.0913
 Frc consts  --      6.1209                 6.1600                 6.1529
 IR Inten    --     55.8195                32.7296                27.4734

                     94                     95                     96
                      A                      A                      A
 Frequencies --   3110.4328              3145.9407              3170.5309
 Red. masses --      1.1020                 1.0923                 1.0965
 Frc consts  --      6.2814                 6.3694                 6.4944
 IR Inten    --     37.6752                10.9702                 6.5374

                     97                     98                     99
                      A                      A                      A
 Frequencies --   3185.4782              3496.0082              3586.9334
 Red. masses --      1.0971                 1.0745                 1.0750
 Frc consts  --      6.5590                 7.7375                 8.1489
 IR Inten    --      4.7770                 3.1196                13.7215

 - Thermochemistry -
 -------------------
 Temperature   298.150 Kelvin.  Pressure   1.00000 Atm.
 Atom     1 has atomic number  6 and mass  12.00000

 Molecular mass:   199.16846 amu.
 Principal axes and moments of inertia in atomic units:
                           1         2         3
     Eigenvalues --  1639.902724252.554854683.19227
           X            0.99991  -0.00230   0.01333
           Y            0.00263   0.99970  -0.02429
           Z           -0.01327   0.02432   0.99962
 This molecule is an asymmetric top.
 Rotational symmetry number  1.
 Warning -- assumption of classical behavior for rotation
           may cause significant error
 Rotational temperatures (Kelvin)      0.05282     0.02037     0.01849
 Rotational constants (GHZ):           1.10052     0.42439     0.38537
 Zero-point vibrational energy     840747.9 (Joules/Mol)
                                  200.94356 (Kcal/Mol)
 Warning -- explicit consideration of  22 degrees of freedom as
           vibrations may cause significant error
 Vibrational temperatures:     28.67    51.57   112.12   136.21   164.40
          (Kelvin)            209.31   209.47   253.64   300.21   335.35
                              380.41   456.55   465.73   477.07   525.39
                              572.56   594.50   660.75   698.93   759.91
                              778.78   857.80   914.60  1058.21  1074.56
                             1140.09  1161.39  1172.85  1198.56  1240.40
                             1274.98  1308.10  1337.49  1435.75  1475.92
                             1489.66  1497.70  1546.78  1558.56  1576.88
                             1594.46  1634.75  1648.23  1653.73  1686.09
                             1696.71  1726.38  1741.99  1759.30  1825.49
                             1858.72  1874.11  1893.45  1912.22  1952.99
                             1967.96  1984.15  2001.16  2012.06  2028.09
                             2048.76  2073.49  2091.78  2104.34  2137.11
                             2155.96  2158.57  2167.93  2178.03  2180.97
                             2192.35  2197.66  2204.84  2207.21  2217.35
                             2219.65  2245.95  2540.46  4203.44  4234.16
                             4317.00  4349.63  4357.71  4360.09  4378.66
                             4399.09  4410.07  4419.99  4422.22  4439.51
                             4444.92  4446.79  4450.78  4475.22  4526.31
                             4561.69  4583.19  5029.98  5160.80

 Zero-point correction=                           0.320224 (Hartree/Particle)
 Thermal correction to Energy=                    0.335085
 Thermal correction to Enthalpy=                  0.336029
 Thermal correction to Gibbs Free Energy=         0.277380
 Sum of electronic and zero-point Energies=           -632.936766
 Sum of electronic and thermal Energies=              -632.921906
 Sum of electronic and thermal Enthalpies=            -632.920961
 Sum of electronic and thermal Free Energies=         -632.979610

                     E (Thermal)             CV                S
                      KCal/Mol        Cal/Mol-Kelvin    Cal/Mol-Kelvin
 Total                  210.269             56.222            123.437
 Electronic               0.000              0.000              0.000
 Translational            0.889              2.981             41.772
 Rotational               0.889              2.981             31.857
 Vibrational            208.491             50.260             49.808
 Vibration     1          0.593              1.986              6.641
 Vibration     2          0.594              1.982              5.477
 Vibration     3          0.599              1.964              3.942
 Vibration     4          0.603              1.953              3.561
 Vibration     5          0.607              1.938              3.195
 Vibration     6          0.617              1.908              2.731
 Vibration     7          0.617              1.907              2.729
 Vibration     8          0.628              1.872              2.367
 Vibration     9          0.642              1.827              2.055
 Vibration    10          0.654              1.790              1.855
 Vibration    11          0.671              1.738              1.633
 Vibration    12          0.704              1.641              1.324
 Vibration    13          0.708              1.628              1.291
 Vibration    14          0.714              1.612              1.252
 Vibration    15          0.738              1.544              1.100
 Vibration    16          0.764              1.475              0.970
 Vibration    17          0.777              1.442              0.915
 Vibration    18          0.817              1.340              0.768
 Vibration    19          0.842              1.282              0.695
 Vibration    20          0.883              1.188              0.591
 Vibration    21          0.896              1.159              0.563
 Vibration    22          0.954              1.040              0.456

                           ! Non-Optimized Parameters !
 Normal termination of Gaussian 16 at Thu Dec 10 09:46:58 2020.

 ----------------------------------------------------------------------
 # B3LYP/6-311++G(d,p) empiricaldispersion=gd3bj scf=xqc pop=npa geom=c
 heck
 ----------------------------------------------------------------------

 --------------------------------------
 CID_79153737_JID_4355_Energie_neutraal
 --------------------------------------
 Structure from the checkpoint file:  "JID_4355.chk"
 Charge =  0 Multiplicity = 1

 SCF Done:  E(RB3LYP) =  -633.442591893     A.U. after   14 cycles
 Normal termination of Gaussian 16 at Thu Dec 10 09:52:56 2020.

 ----------------------------------------------------------------------
 # B3LYP/6-311++G(d,p) empiricaldispersion=gd3bj scf=xqc pop=npa geom=c
 heck
 ----------------------------------------------------------------------

 ------------------------------------
 CID_79153737_JID_4355_Energie_kation
 ------------------------------------
 Structure from the checkpoint file:  "JID_4355.chk"
 Charge =  1 Multiplicity = 2

 SCF Done:  E(UB3LYP) =  -633.150617074     A.U. after   24 cycles
 Normal termination of Gaussian 16 at Thu Dec 10 10:07:16 2020.
 Gaussian 16:  ES64L-G16RevA.03 25-Dec-2016

 ----------------------------------------------------------------------
 # B3LYP/6-311++G(d,p) empiricaldispersion=gd3bj scf=xqc pop=npa geom=c
 heck
 ----------------------------------------------------------------------

 -----------------------------------
 CID_79153737_JID_4355_Energie_anion
 -----------------------------------
 Structure from the checkpoint file:  "JID_4355.chk"
 Charge = -1 Multiplicity = 2

                         Standard orientation:
 ---------------------------------------------------------------------
 Center     Atomic      Atomic             Coordinates (Angstroms)
 Number     Number       Type             X           Y           Z
 ---------------------------------------------------------------------
      1          6           0       -2.729852    1.757611   -0.904348
      2          7           0       -2.490521    0.389971   -0.473114
      3          6           0       -3.351609   -0.621112   -1.068407
      4          6           0       -1.856554    0.210179    0.739000
      5          8           0       -1.604764    1.143212    1.500077
      6          7           0       -1.502287   -1.105801    1.053461
      7          6           0       -0.758446   -1.951657    0.105051
      8          6           0        0.479948   -1.322353   -0.551045
      9          6           0        1.692491   -1.082415    0.373536
     10          6           0        1.584083    0.174547    1.265933
     11          6           0        1.722053    1.464748    0.454904
     12          7           0        2.996734    1.461755   -0.267074
     13          6           0        3.086287    0.346825   -1.209582
     14          6           0        2.999767   -0.975307   -0.440826
     15          1           0       -2.693863    1.802359   -1.998505
     16          1           0       -1.960476    2.403800   -0.483735
     17          1           0       -3.711488    2.124334   -0.570728
     18          1           0       -2.984090   -0.946517   -2.050749
     19          1           0       -3.424524   -1.483923   -0.406275
     20          1           0       -4.361132   -0.210490   -1.202546
     21          1           0       -1.087571   -1.097372    1.977589
     22          1           0       -0.470160   -2.850651    0.661937
     23          1           0       -1.438045   -2.287274   -0.683463
     24          1           0        0.788477   -2.009941   -1.351537
     25          1           0        0.176194   -0.397099   -1.052904
     26          1           0        1.778084   -1.963812    1.027434
     27          1           0        0.643777    0.213177    1.818898
     28          1           0        2.401007    0.146750    1.997865
     29          1           0        0.849897    1.572814   -0.217673
     30          1           0        1.703955    2.325442    1.131669
     31          1           0        3.109504    2.341160   -0.766564
     32          1           0        4.046976    0.410156   -1.733777
     33          1           0        2.293713    0.375211   -1.983866
     34          1           0        3.853638   -1.023146    0.246006
     35          1           0        3.087748   -1.818551   -1.137888
 ---------------------------------------------------------------------

 SCF Done:  E(UB3LYP) =  -633.430431941     A.U. after   31 cycles

 The electronic state is 2-A.
 Alpha  occ. eigenvalues --  -18.98435 -14.23907 -14.22695 -14.19731 -10.19106
 Alpha  occ. eigenvalues --  -10.10651 -10.09913 -10.09532 -10.09092 -10.08764
 Alpha  occ. eigenvalues --  -10.07639 -10.06594 -10.06560 -10.06065  -0.94913
 Alpha  occ. eigenvalues --   -0.83904  -0.81315  -0.81007  -0.70812  -0.65183
 Alpha  occ. eigenvalues --   -0.64096  -0.62193  -0.59470  -0.55110  -0.52116
 Alpha  occ. eigenvalues --   -0.51440  -0.46662  -0.43540  -0.41554  -0.40898
 Alpha  occ. eigenvalues --   -0.39906  -0.37840  -0.36301  -0.36024  -0.35367
 Alpha  occ. eigenvalues --   -0.34175  -0.32798  -0.32390  -0.31339  -0.30480
 Alpha  occ. eigenvalues --   -0.30427  -0.29637  -0.28675  -0.27976  -0.27629
 Alpha  occ. eigenvalues --   -0.27134  -0.26073  -0.24756  -0.21883  -0.21460
 Alpha  occ. eigenvalues --   -0.21137  -0.18009  -0.15086  -0.14304  -0.12899
 Alpha  occ. eigenvalues --    0.04254
 Alpha virt. eigenvalues --    0.06382   0.06619   0.07699   0.08364   0.08683
 Alpha virt. eigenvalues --    0.09398   0.09710   0.10162   0.10633   0.11389
 Alpha virt. eigenvalues --    0.11703   0.12213   0.12364   0.12940   0.13163

  Beta  occ. eigenvalues --  -18.98432 -14.23906 -14.22692 -14.19717 -10.19104
  Beta  occ. eigenvalues --  -10.10628 -10.09860 -10.09502 -10.09075 -10.08757
  Beta  occ. eigenvalues --  -10.07634 -10.06583 -10.06541 -10.06062  -0.94908
  Beta  occ. eigenvalues --   -0.83892  -0.81297  -0.80989  -0.70789  -0.65160
  Beta  occ. eigenvalues --   -0.64061  -0.62129  -0.59419  -0.55069  -0.52092
  Beta  occ. eigenvalues --   -0.51394  -0.46621  -0.43506  -0.41511  -0.40856
  Beta  occ. eigenvalues --   -0.39875  -0.37803  -0.36264  -0.35996  -0.35340
  Beta  occ. eigenvalues --   -0.34144  -0.32775  -0.32365  -0.31312  -0.30437
  Beta  occ. eigenvalues --   -0.30389  -0.29609  -0.28648  -0.27952  -0.27595
  Beta  occ. eigenvalues --   -0.27105  -0.26040  -0.24737  -0.21861  -0.21440
  Beta  occ. eigenvalues --   -0.21116  -0.18000  -0.15076  -0.14283  -0.12869
  Beta virt. eigenvalues --    0.06444   0.07131   0.07347   0.08245   0.08747
  Beta virt. eigenvalues --    0.09290   0.09748   0.10178   0.10442   0.11019
  Beta virt. eigenvalues --    0.11692   0.12043   0.12542   0.12648   0.13148

 Mulliken charges and spin densities:
               1          2
     1  C    0.541542  -0.836574
     2  N   -0.094625   0.268835
     3  C    1.094975  -1.500065
     4  C   -0.743831   0.219733
     5  O   -0.312407   0.011783
     6  N   -0.127554   0.077835
     7  C    0.839065  -1.388734
     8  C   -0.600347   0.466915
     9  C    0.419057  -0.152525
    10  C    0.047462  -0.343612
    11  C   -0.252277  -0.219241
    12  N   -0.256386   0.129725
    13  C    0.520749  -0.870998
    14  C   -0.617753   0.131281
    15  H   -0.318640   0.478971
    16  H    0.113393   0.057279
    17  H   -0.083251   0.229711
    18  H   -0.481561   0.675438
    19  H   -0.188532   0.362248
    20  H   -0.416910   0.565526
    21  H    0.198138   0.095825
    22  H   -0.221021   0.393052
    23  H   -0.114589   0.265159
    24  H   -0.478814   0.674258
    25  H    0.572822  -0.441460
    26  H    0.063239   0.111126
    27  H    0.164241  -0.030267
    28  H    0.133436   0.023416
    29  H   -0.124285   0.288877
    30  H    0.169394  -0.009152
    31  H    0.014521   0.224107
    32  H   -0.161202   0.337082
    33  H   -0.290023   0.426281
    34  H    0.095849   0.037609
    35  H   -0.103875   0.240559
 Sum of Mulliken charges =  -1.00000   1.00000

 Dipole moment (field-independent basis, Debye):
    X=              3.2282    Y=              0.6503    Z=              4.7727  Tot=              5.7985
 Quadrupole moment (field-independent basis, Debye-Ang):
   XX=           -159.9778   YY=           -130.6383   ZZ=           -133.0551
   XY=             -3.1764   XZ=             -4.0152   YZ=             -6.7373

 Summary of Natural Population Analysis:

                                       Natural Population
                Natural  -----------------------------------------------
    Atom  No    Charge         Core      Valence    Rydberg      Total
 -----------------------------------------------------------------------
      C    1   -0.17396      0.99964     2.16578    0.00854     3.17396
      N    2   -0.26793      0.99966     2.75739    0.01088     3.76793
      C    3   -0.17675      0.99963     2.16874    0.00838     3.17675
      C    4    0.41101      0.99966     1.56486    0.02448     2.58899
      O    5   -0.34070      0.99988     3.33617    0.00466     4.34070
      N    6   -0.33965      0.99969     2.83042    0.00955     3.83965
      C    7   -0.08583      0.99960     2.07427    0.01195     3.08583
      C    8   -0.20348      0.99960     2.19351    0.01036     3.20348
      C    9   -0.11074      0.99959     2.10072    0.01043     3.11074
      C   10   -0.19773      0.99960     2.19027    0.00785     3.19773
      C   11   -0.08796      0.99962     2.07747    0.01087     3.08796
      N   12   -0.34353      0.99974     2.83241    0.01137     3.84353
      C   13   -0.08903      0.99962     2.07825    0.01116     3.08903
      C   14   -0.19006      0.99961     2.18095    0.00950     3.19006
      H   15    0.09597      0.00000     0.40281    0.00123     0.40403
      H   16    0.10993      0.00000     0.38895    0.00112     0.39007
      H   17    0.08960      0.00000     0.40938    0.00103     0.41040
      H   18    0.09783      0.00000     0.39962    0.00255     0.40217
      H   19    0.10568      0.00000     0.39265    0.00167     0.39432
      H   20    0.09565      0.00000     0.40259    0.00175     0.40435
      H   21    0.18868      0.00000     0.30925    0.00207     0.31132
      H   22    0.09426      0.00000     0.40444    0.00130     0.40574
      H   23    0.09859      0.00000     0.39967    0.00174     0.40141
      H   24    0.10328      0.00000     0.39500    0.00173     0.39672
      H   25    0.10142      0.00000     0.39575    0.00282     0.39858
      H   26    0.09329      0.00000     0.40499    0.00172     0.40671
      H   27    0.10806      0.00000     0.39045    0.00149     0.39194
      H   28    0.09514      0.00000     0.40366    0.00120     0.40486
      H   29    0.08112      0.00000     0.41707    0.00181     0.41888
      H   30    0.09508      0.00000     0.40406    0.00086     0.40492
      H   31    0.17351      0.00000     0.32393    0.00256     0.32649
      H   32    0.09349      0.00000     0.40534    0.00118     0.40651
      H   33    0.08011      0.00000     0.41804    0.00185     0.41989
      H   34    0.09639      0.00000     0.40234    0.00127     0.40361
      H   35    0.09926      0.00000     0.39972    0.00102     0.40074
 =======================================================================
   * Total *    0.00000     13.99514    40.82090    0.18396    55.00000

 Normal termination of Gaussian 16 at Thu Dec 10 10:26:08 2020.
