 Gaussian 16, Revision A.03,

 -----------------------------------------------------------
 # opt freq B3LYP/6-31G(d) empiricaldispersion=gd3bj scf=xqc
 -----------------------------------------------------------

 ------------------------------
 CID_49830977_JID_4376_neutraal
 ------------------------------
 Symbolic Z-matrix:
 Charge =  0 Multiplicity = 1

 SCF Done:  E(RB3LYP) =  -574.024929832     A.U. after   14 cycles
 SCF Done:  E(RB3LYP) =  -574.028223552     A.U. after   12 cycles
 SCF Done:  E(RB3LYP) =  -574.028430051     A.U. after   11 cycles
 SCF Done:  E(RB3LYP) =  -574.028506052     A.U. after   11 cycles
 SCF Done:  E(RB3LYP) =  -574.028545217     A.U. after   11 cycles
 SCF Done:  E(RB3LYP) =  -574.028582809     A.U. after   11 cycles
 SCF Done:  E(RB3LYP) =  -574.028598763     A.U. after   11 cycles
 SCF Done:  E(RB3LYP) =  -574.028602485     A.U. after    9 cycles
 SCF Done:  E(RB3LYP) =  -574.028603654     A.U. after    8 cycles
 SCF Done:  E(RB3LYP) =  -574.028604044     A.U. after    8 cycles
 SCF Done:  E(RB3LYP) =  -574.028604188     A.U. after    8 cycles
 Optimization completed.
    -- Stationary point found.
 Normal termination of Gaussian 16 at Thu Dec 10 09:22:47 2020.

 --------------------------------------------------------------------
 #N Geom=AllCheck Guess=TCheck SCRF=Check GenChk RB3LYP/6-31G(d) Freq
 --------------------------------------------------------------------

 Structure from the checkpoint file:  "JID_4376.chk"
 ------------------------------
 CID_49830977_JID_4376_neutraal
 ------------------------------
 Charge =  0 Multiplicity = 1

 SCF Done:  E(RB3LYP) =  -574.028604188     A.U. after    1 cycles

  Exact polarizability: 163.105   9.160 119.627  -4.405  -2.296  91.746
 Approx polarizability: 230.690  22.658 204.268  -6.207  -4.227 153.771

                      1                      2                      3
                      A                      A                      A
 Frequencies --     22.6147                43.4690               106.6527
 Red. masses --      4.0262                 5.1558                 3.9709
 Frc consts  --      0.0012                 0.0057                 0.0266
 IR Inten    --      0.1946                 0.5257                 0.7468

                      4                      5                      6
                      A                      A                      A
 Frequencies --    206.8153               217.9823               238.6838
 Red. masses --      5.1907                 3.1407                 2.9510
 Frc consts  --      0.1308                 0.0879                 0.0991
 IR Inten    --      0.8247                 0.4770                 1.5008

                      7                      8                      9
                      A                      A                      A
 Frequencies --    301.4396               324.7913               416.2640
 Red. masses --      3.7656                 2.9248                 3.0037
 Frc consts  --      0.2016                 0.1818                 0.3067
 IR Inten    --      0.0977                 0.2068                 0.0027

                     10                     11                     12
                      A                      A                      A
 Frequencies --    426.6963               471.9180               553.7621
 Red. masses --      3.8319                 1.5724                 3.7647
 Frc consts  --      0.4111                 0.2063                 0.6802
 IR Inten    --      0.5572                56.2288                 1.0914

                     13                     14                     15
                      A                      A                      A
 Frequencies --    565.0239               633.0954               660.7460
 Red. masses --      2.9348                 5.9519                 3.3618
 Frc consts  --      0.5520                 1.4055                 0.8648
 IR Inten    --      9.6764                 0.1987                 0.7203

                     16                     17                     18
                      A                      A                      A
 Frequencies --    662.3360               682.6831               717.6259
 Red. masses --      3.9785                 3.0290                 1.7368
 Frc consts  --      1.0283                 0.8317                 0.5270
 IR Inten    --      4.7713                36.7262                25.6928

                     19                     20                     21
                      A                      A                      A
 Frequencies --    723.1524               752.8455               782.4675
 Red. masses --      5.5929                 4.0464                 2.0008
 Frc consts  --      1.7232                 1.3512                 0.7217
 IR Inten    --      1.0867                 0.6514                18.5067

                     22                     23                     24
                      A                      A                      A
 Frequencies --    814.8398               862.1553               867.4993
 Red. masses --      4.5094                 1.2463                 1.2673
 Frc consts  --      1.7641                 0.5458                 0.5619
 IR Inten    --      1.1517                 0.0045                13.4246

                     25                     26                     27
                      A                      A                      A
 Frequencies --    919.3353               929.6717               933.2976
 Red. masses --      1.9016                 1.5153                 2.9340
 Frc consts  --      0.9469                 0.7716                 1.5058
 IR Inten    --      0.9779                 0.2645                 0.3646

                     28                     29                     30
                      A                      A                      A
 Frequencies --    969.4478               985.4637               995.2500
 Red. masses --      1.3447                 3.7087                 1.2519
 Frc consts  --      0.7446                 2.1221                 0.7306
 IR Inten    --      0.0446                50.1570                 0.0723

                     31                     32                     33
                      A                      A                      A
 Frequencies --   1010.0264              1022.2703              1033.9130
 Red. masses --      2.0070                 5.7723                 2.7773
 Frc consts  --      1.2063                 3.5541                 1.7492
 IR Inten    --      3.3564                 0.6248                 0.6719

                     34                     35                     36
                      A                      A                      A
 Frequencies --   1063.7807              1101.2310              1116.3192
 Red. masses --      2.1484                 4.0706                 1.5930
 Frc consts  --      1.4324                 2.9085                 1.1696
 IR Inten    --      3.4949                12.3511                 3.3183

                     37                     38                     39
                      A                      A                      A
 Frequencies --   1143.5005              1176.0491              1193.6472
 Red. masses --      4.0195                 1.2782                 1.1103
 Frc consts  --      3.0967                 1.0416                 0.9320
 IR Inten    --      4.6808                 6.3772                 0.2853

                     40                     41                     42
                      A                      A                      A
 Frequencies --   1194.7953              1219.0736              1233.5399
 Red. masses --      1.1266                 1.1379                 1.6503
 Frc consts  --      0.9476                 0.9963                 1.4795
 IR Inten    --      0.1045                 0.8459                 0.7956

                     43                     44                     45
                      A                      A                      A
 Frequencies --   1239.6734              1240.2516              1301.6465
 Red. masses --      1.4929                 1.4487                 1.5161
 Frc consts  --      1.3517                 1.3129                 1.5134
 IR Inten    --      0.8758                 1.6532                 5.3944

                     46                     47                     48
                      A                      A                      A
 Frequencies --   1317.5213              1329.7050              1353.1858
 Red. masses --      1.6729                 2.2132                 1.7972
 Frc consts  --      1.7109                 2.3056                 1.9389
 IR Inten    --      1.5727                 7.4381                19.1122

                     49                     50                     51
                      A                      A                      A
 Frequencies --   1368.8718              1396.0424              1417.2057
 Red. masses --      2.3119                 1.4907                 4.1609
 Frc consts  --      2.5524                 1.7117                 4.9239
 IR Inten    --      2.3219                 3.0406                 1.4107

                     52                     53                     54
                      A                      A                      A
 Frequencies --   1457.2645              1504.3015              1517.8306
 Red. masses --      3.4308                 2.0490                 1.1191
 Frc consts  --      4.2926                 2.7318                 1.5191
 IR Inten    --     11.8079                 4.3343                 3.6422

                     55                     56                     57
                      A                      A                      A
 Frequencies --   1529.5749              1548.4606              1556.6438
 Red. masses --      1.1809                 2.2259                 4.6499
 Frc consts  --      1.6279                 3.1446                 6.6385
 IR Inten    --      6.6173                16.9123                 9.4936

                     58                     59                     60
                      A                      A                      A
 Frequencies --   1624.5705              1645.8764              1667.7260
 Red. masses --      4.4303                 5.4285                 5.5665
 Frc consts  --      6.8890                 8.6642                 9.1219
 IR Inten    --      7.4195                 0.6396                 7.1436

                     61                     62                     63
                      A                      A                      A
 Frequencies --   3037.9640              3040.1317              3084.6707
 Red. masses --      1.0676                 1.0679                 1.0852
 Frc consts  --      5.8051                 5.8154                 6.0836
 IR Inten    --     34.3115                44.6505                29.0025

                     64                     65                     66
                      A                      A                      A
 Frequencies --   3091.1086              3094.0353              3173.9090
 Red. masses --      1.0964                 1.0968                 1.0863
 Frc consts  --      6.1722                 6.1863                 6.4477
 IR Inten    --     12.0404                42.6184                 9.2030

                     67                     68                     69
                      A                      A                      A
 Frequencies --   3182.8814              3192.4920              3201.0625
 Red. masses --      1.0864                 1.0906                 1.0935
 Frc consts  --      6.4848                 6.5490                 6.6016
 IR Inten    --      0.1996                20.2408                30.0372

                     70                     71                     72
                      A                      A                      A
 Frequencies --   3210.0224              3256.7670              3670.4081
 Red. masses --      1.0979                 1.0958                 1.0812
 Frc consts  --      6.6656                 6.8479                 8.5819
 IR Inten    --     21.6525                11.6752                62.9858

 - Thermochemistry -
 -------------------
 Temperature   298.150 Kelvin.  Pressure   1.00000 Atm.
 Atom     1 has atomic number  6 and mass  12.00000

 Molecular mass:   184.10005 amu.
 Principal axes and moments of inertia in atomic units:
                           1         2         3
     Eigenvalues --  1014.645374422.372904698.39058
           X            0.99999  -0.00396  -0.00225
           Y            0.00393   0.99992  -0.01161
           Z            0.00230   0.01160   0.99993
 This molecule is an asymmetric top.
 Rotational symmetry number  1.
 Warning -- assumption of classical behavior for rotation
           may cause significant error
 Rotational temperatures (Kelvin)      0.08536     0.01959     0.01843
 Rotational constants (GHZ):           1.77869     0.40809     0.38412
 Zero-point vibrational energy     571503.8 (Joules/Mol)
                                  136.59269 (Kcal/Mol)
 Warning -- explicit consideration of  13 degrees of freedom as
           vibrations may cause significant error
 Vibrational temperatures:     32.54    62.54   153.45   297.56   313.63
          (Kelvin)            343.41   433.70   467.30   598.91   613.92
                              678.98   796.74   812.94   910.88   950.67
                              952.95   982.23  1032.50  1040.45  1083.18
                             1125.80  1172.37  1240.45  1248.14  1322.72
                             1337.59  1342.81  1394.82  1417.86  1431.94
                             1453.20  1470.82  1487.57  1530.54  1584.43
                             1606.13  1645.24  1692.07  1717.39  1719.04
                             1753.97  1774.79  1783.61  1784.45  1872.78
                             1895.62  1913.15  1946.93  1969.50  2008.59
                             2039.04  2096.68  2164.35  2183.82  2200.72
                             2227.89  2239.66  2337.39  2368.05  2399.49
                             4370.95  4374.07  4438.15  4447.42  4451.63
                             4566.55  4579.46  4593.28  4605.62  4618.51
                             4685.76  5280.90

 Zero-point correction=                           0.217674 (Hartree/Particle)
 Thermal correction to Energy=                    0.228335
 Thermal correction to Enthalpy=                  0.229279
 Thermal correction to Gibbs Free Energy=         0.179598
 Sum of electronic and zero-point Energies=           -573.810930
 Sum of electronic and thermal Energies=              -573.800269
 Sum of electronic and thermal Enthalpies=            -573.799325
 Sum of electronic and thermal Free Energies=         -573.849006

                     E (Thermal)             CV                S
                      KCal/Mol        Cal/Mol-Kelvin    Cal/Mol-Kelvin
 Total                  143.282             42.890            104.563
 Electronic               0.000              0.000              0.000
 Translational            0.889              2.981             41.537
 Rotational               0.889              2.981             31.423
 Vibrational            141.505             36.929             31.603
 Vibration     1          0.593              1.985              6.390
 Vibration     2          0.595              1.980              5.094
 Vibration     3          0.606              1.944              3.329
 Vibration     4          0.641              1.830              2.072
 Vibration     5          0.646              1.814              1.976
 Vibration     6          0.657              1.781              1.813
 Vibration     7          0.693              1.671              1.409
 Vibration     8          0.709              1.626              1.286
 Vibration     9          0.779              1.435              0.905
 Vibration    10          0.788              1.412              0.870
 Vibration    11          0.829              1.312              0.732
 Vibration    12          0.909              1.131              0.536
 Vibration    13          0.921              1.107              0.514

                           ! Non-Optimized Parameters !
 Normal termination of Gaussian 16 at Thu Dec 10 09:30:35 2020.

 ----------------------------------------------------------------------
 # B3LYP/6-311++G(d,p) empiricaldispersion=gd3bj scf=xqc pop=npa geom=c
 heck
 ----------------------------------------------------------------------

 --------------------------------------
 CID_49830977_JID_4376_Energie_neutraal
 --------------------------------------
 Structure from the checkpoint file:  "JID_4376.chk"
 Charge =  0 Multiplicity = 1

 SCF Done:  E(RB3LYP) =  -574.177310938     A.U. after   14 cycles
 Normal termination of Gaussian 16 at Thu Dec 10 09:33:54 2020.

 ----------------------------------------------------------------------
 # B3LYP/6-311++G(d,p) empiricaldispersion=gd3bj scf=xqc pop=npa geom=c
 heck
 ----------------------------------------------------------------------

 ------------------------------------
 CID_49830977_JID_4376_Energie_kation
 ------------------------------------
 Structure from the checkpoint file:  "JID_4376.chk"
 Charge =  1 Multiplicity = 2

 SCF Done:  E(UB3LYP) =  -573.875803021     A.U. after   27 cycles
 Normal termination of Gaussian 16 at Thu Dec 10 09:42:43 2020.
 Gaussian 16:  ES64L-G16RevA.03 25-Dec-2016

 ----------------------------------------------------------------------
 # B3LYP/6-311++G(d,p) empiricaldispersion=gd3bj scf=xqc pop=npa geom=c
 heck
 ----------------------------------------------------------------------

 -----------------------------------
 CID_49830977_JID_4376_Energie_anion
 -----------------------------------
 Structure from the checkpoint file:  "JID_4376.chk"
 Charge = -1 Multiplicity = 2

                         Standard orientation:
 ---------------------------------------------------------------------
 Center     Atomic      Atomic             Coordinates (Angstroms)
 Number     Number       Type             X           Y           Z
 ---------------------------------------------------------------------
      1          6           0        0.817841   -0.907711   -1.389863
      2          6           0       -0.099367   -1.312469   -0.170488
      3          6           0        0.780672   -1.151107    1.133538
      4          6           0        1.888874   -0.283123    0.632988
      5          6           0        1.928917   -0.138065   -0.734957
      6          6           0        3.055988    0.678226   -0.981870
      7          7           0        3.667722    1.017103    0.159160
      8          7           0        2.938873    0.408627    1.136219
      9          6           0       -1.352701   -0.464472   -0.087708
     10          6           0       -1.282778    0.936850   -0.105209
     11          6           0       -2.438916    1.708259   -0.005273
     12          6           0       -3.687999    1.094584    0.113225
     13          6           0       -3.769776   -0.297022    0.130127
     14          6           0       -2.609319   -1.066800    0.030759
     15          1           0        1.190601   -1.802457   -1.905674
     16          1           0        0.247541   -0.330499   -2.125167
     17          1           0       -0.407087   -2.357499   -0.268741
     18          1           0        0.198023   -0.711221    1.949983
     19          1           0        1.151464   -2.123896    1.483584
     20          1           0        3.454987    1.044141   -1.918889
     21          1           0        3.214817    0.544577    2.096393
     22          1           0       -0.315761    1.422838   -0.199620
     23          1           0       -2.364847    2.792310   -0.021940
     24          1           0       -4.588777    1.697114    0.189134
     25          1           0       -4.736031   -0.786322    0.218361
     26          1           0       -2.679710   -2.152093    0.043301
 ---------------------------------------------------------------------

 SCF Done:  E(UB3LYP) =  -574.163944210     A.U. after   33 cycles
 SCF Done:  E(UB3LYP) =  -574.163944210     a.u. after    1 cycles

 The electronic state is 2-A.
 Alpha  occ. eigenvalues --  -14.28509 -14.23188 -10.10549 -10.09423 -10.09131
 Alpha  occ. eigenvalues --  -10.08647 -10.08591 -10.08376 -10.08094 -10.07943
 Alpha  occ. eigenvalues --  -10.07855 -10.07646 -10.07624 -10.06549  -0.94349
 Alpha  occ. eigenvalues --   -0.77159  -0.74560  -0.71993  -0.67266  -0.65152
 Alpha  occ. eigenvalues --   -0.62171  -0.61479  -0.53276  -0.51201  -0.50944
 Alpha  occ. eigenvalues --   -0.47828  -0.46751  -0.42829  -0.41949  -0.38154
 Alpha  occ. eigenvalues --   -0.35750  -0.35497  -0.34376  -0.32966  -0.32652
 Alpha  occ. eigenvalues --   -0.32477  -0.31050  -0.29136  -0.27679  -0.27061
 Alpha  occ. eigenvalues --   -0.26717  -0.25433  -0.24472  -0.23893  -0.19249
 Alpha  occ. eigenvalues --   -0.16464  -0.16105  -0.15110  -0.13595   0.04295
 Alpha virt. eigenvalues --    0.06139   0.06734   0.07544   0.07673   0.08142
 Alpha virt. eigenvalues --    0.08316   0.08894   0.09838   0.10051   0.10698
 Alpha virt. eigenvalues --    0.11076   0.11329   0.12322   0.13704   0.14152

  Beta  occ. eigenvalues --  -14.28470 -14.23179 -10.10550 -10.09421 -10.09115
  Beta  occ. eigenvalues --  -10.08610 -10.08591 -10.08366 -10.08086 -10.07929
  Beta  occ. eigenvalues --  -10.07840 -10.07630 -10.07613 -10.06546  -0.94318
  Beta  occ. eigenvalues --   -0.77134  -0.74534  -0.71944  -0.67239  -0.65122
  Beta  occ. eigenvalues --   -0.62136  -0.61434  -0.53243  -0.51159  -0.50892
  Beta  occ. eigenvalues --   -0.47795  -0.46717  -0.42770  -0.41903  -0.38112
  Beta  occ. eigenvalues --   -0.35714  -0.35469  -0.34346  -0.32941  -0.32619
  Beta  occ. eigenvalues --   -0.32447  -0.31017  -0.29103  -0.27650  -0.27022
  Beta  occ. eigenvalues --   -0.26689  -0.25405  -0.24444  -0.23862  -0.19223
  Beta  occ. eigenvalues --   -0.16440  -0.16085  -0.15090  -0.13576
  Beta virt. eigenvalues --    0.06545   0.07332   0.07613   0.07738   0.08056
  Beta virt. eigenvalues --    0.08192   0.08866   0.09331   0.10046   0.10626
  Beta virt. eigenvalues --    0.11024   0.11456   0.11697   0.12667   0.13961

 Mulliken charges and spin densities:
               1          2
     1  C    0.168825  -1.085744
     2  C    0.563746  -0.011163
     3  C    2.937029  -3.697961
     4  C   -1.433338   1.289893
     5  C    0.979660  -0.507639
     6  C   -1.024601   0.651313
     7  N   -0.187929   0.015838
     8  N   -0.093940   0.040186
     9  C   -0.924135   1.168980
    10  C   -1.271643   1.073319
    11  C   -0.206113  -0.088306
    12  C    1.318609  -1.566734
    13  C    0.802373  -1.165829
    14  C   -0.159103   0.137438
    15  H   -0.133696   0.313660
    16  H    0.162445  -0.009710
    17  H   -0.186141   0.433856
    18  H   -0.036945   0.207337
    19  H   -0.693364   0.892130
    20  H    0.022821   0.118649
    21  H   -0.259363   0.578400
    22  H    0.255257  -0.038159
    23  H   -0.282390   0.447144
    24  H   -0.292796   0.444738
    25  H   -0.518062   0.693571
    26  H   -0.507205   0.664792
 Sum of Mulliken charges =  -1.00000   1.00000

 Dipole moment (field-independent basis, Debye):
    X=              0.8567    Y=              2.6206    Z=             -3.6210  Tot=              4.5512
 Quadrupole moment (field-independent basis, Debye-Ang):
   XX=           -164.6871   YY=           -126.7955   ZZ=           -115.0998
   XY=             -2.0111   XZ=             -6.8656   YZ=              2.4586

 Summary of Natural Population Analysis:

                                       Natural Population
                Natural  -----------------------------------------------
    Atom  No    Charge         Core      Valence    Rydberg      Total
 -----------------------------------------------------------------------
      C    1   -0.18837      0.99960     2.18047    0.00830     3.18837
      C    2   -0.10568      0.99958     2.09326    0.01284     3.10568
      C    3   -0.19615      0.99959     2.18731    0.00925     3.19615
      C    4    0.08087      0.99941     1.90721    0.01251     2.91913
      C    5   -0.07655      0.99941     2.06706    0.01008     3.07655
      C    6   -0.01268      0.99957     1.99981    0.01330     3.01268
      N    7   -0.15939      0.99975     2.64635    0.01329     3.65939
      N    8   -0.16683      0.99964     2.65388    0.01331     3.66683
      C    9   -0.01227      0.99949     2.00088    0.01190     3.01227
      C   10   -0.10426      0.99950     2.09657    0.00819     3.10426
      C   11   -0.09822      0.99956     2.08913    0.00953     3.09822
      C   12   -0.10712      0.99956     2.09700    0.01056     3.10712
      C   13   -0.09774      0.99956     2.08783    0.01035     3.09774
      C   14   -0.09885      0.99950     2.08890    0.01045     3.09885
      H   15    0.10366      0.00000     0.39525    0.00109     0.39634
      H   16    0.10391      0.00000     0.39491    0.00118     0.39609
      H   17    0.10440      0.00000     0.39305    0.00254     0.39560
      H   18    0.10999      0.00000     0.38841    0.00160     0.39001
      H   19    0.11201      0.00000     0.38448    0.00352     0.38799
      H   20    0.09578      0.00000     0.40328    0.00094     0.40422
      H   21    0.20257      0.00000     0.29122    0.00621     0.29743
      H   22    0.10593      0.00000     0.39232    0.00175     0.39407
      H   23    0.09947      0.00000     0.39965    0.00088     0.40053
      H   24    0.10082      0.00000     0.39797    0.00121     0.39918
      H   25    0.10205      0.00000     0.39643    0.00153     0.39795
      H   26    0.10266      0.00000     0.39561    0.00174     0.39734
 =======================================================================
   * Total *   -0.00000     13.99373    34.82825    0.17803    49.00000

 Normal termination of Gaussian 16 at Thu Dec 10 09:53:33 2020.
