 Gaussian 16, Revision A.03,

 -----------------------------------------------------------
 # opt freq B3LYP/6-31G(d) empiricaldispersion=gd3bj scf=xqc
 -----------------------------------------------------------

 -----------------------------
 CID_87549264_JID_295_neutraal
 -----------------------------
 Symbolic Z-matrix:
 Charge =  0 Multiplicity = 1

 SCF Done:  E(RB3LYP) =  -440.264336892     A.U. after   15 cycles
 SCF Done:  E(RB3LYP) =  -440.264534613     A.U. after   14 cycles
 SCF Done:  E(RB3LYP) =  -440.265152861     A.U. after   14 cycles
 SCF Done:  E(RB3LYP) =  -440.266438913     A.U. after   12 cycles
 SCF Done:  E(RB3LYP) =  -440.266472381     A.U. after   11 cycles
 SCF Done:  E(RB3LYP) =  -440.266499960     A.U. after   12 cycles
 SCF Done:  E(RB3LYP) =  -440.266523279     A.U. after   12 cycles
 SCF Done:  E(RB3LYP) =  -440.266542689     A.U. after   12 cycles
 SCF Done:  E(RB3LYP) =  -440.266564171     A.U. after   13 cycles
 SCF Done:  E(RB3LYP) =  -440.266574518     A.U. after   11 cycles
 SCF Done:  E(RB3LYP) =  -440.266832685     A.U. after   12 cycles
 SCF Done:  E(RB3LYP) =  -440.266833637     A.U. after   11 cycles
 SCF Done:  E(RB3LYP) =  -440.266841054     A.U. after   10 cycles
 SCF Done:  E(RB3LYP) =  -440.266841113     A.U. after    7 cycles
 SCF Done:  E(RB3LYP) =  -440.266841117     A.U. after    6 cycles
 Optimization completed.
    -- Stationary point found.
 Normal termination of Gaussian 16 at Tue Dec  8 10:28:28 2020.

 --------------------------------------------------------------------
 #N Geom=AllCheck Guess=TCheck SCRF=Check GenChk RB3LYP/6-31G(d) Freq
 --------------------------------------------------------------------

 Structure from the checkpoint file:  "JID_295.chk"
 -----------------------------
 CID_87549264_JID_295_neutraal
 -----------------------------
 Charge =  0 Multiplicity = 1

 SCF Done:  E(RB3LYP) =  -440.266841117     A.U. after    1 cycles

  Exact polarizability: 121.026   6.387  89.508   7.872  -1.820  53.736
 Approx polarizability: 177.398  11.221 153.662  14.431  -7.717  80.301

                      1                      2                      3
                      A                      A                      A
 Frequencies --     21.3135                45.1162                51.9377
 Red. masses --      4.4535                 1.0458                 5.4050
 Frc consts  --      0.0012                 0.0013                 0.0086
 IR Inten    --      1.4429                 0.1548                 4.8763

                      4                      5                      6
                      A                      A                      A
 Frequencies --    136.3199               214.7654               251.2418
 Red. masses --      2.8842                 2.8248                 2.7936
 Frc consts  --      0.0316                 0.0768                 0.1039
 IR Inten    --      2.1439                 0.6406                 0.3373

                      7                      8                      9
                      A                      A                      A
 Frequencies --    295.1012               390.6490               443.3965
 Red. masses --      3.1116                 2.6004                 3.8433
 Frc consts  --      0.1597                 0.2338                 0.4452
 IR Inten    --      4.4952                 0.5689                 9.5944

                     10                     11                     12
                      A                      A                      A
 Frequencies --    461.9064               545.4872               547.9841
 Red. masses --      3.6969                 4.3299                 3.8687
 Frc consts  --      0.4647                 0.7591                 0.6845
 IR Inten    --      0.9698                 4.9371                 3.2631

                     13                     14                     15
                      A                      A                      A
 Frequencies --    604.8914               727.5270               738.8788
 Red. masses --      3.7680                 4.5909                 2.4638
 Frc consts  --      0.8123                 1.4317                 0.7925
 IR Inten    --      1.2997                 8.9044                10.0488

                     16                     17                     18
                      A                      A                      A
 Frequencies --    817.1510               891.4426               947.6514
 Red. masses --      1.9963                 1.4948                 1.3275
 Frc consts  --      0.7854                 0.6999                 0.7024
 IR Inten    --      2.0242                 4.2506                 0.1193

                     19                     20                     21
                      A                      A                      A
 Frequencies --    964.6949               966.4421              1015.6117
 Red. masses --      1.4474                 2.9986                 1.6892
 Frc consts  --      0.7936                 1.6501                 1.0266
 IR Inten    --      0.0781                 3.6675                 2.6307

                     22                     23                     24
                      A                      A                      A
 Frequencies --   1036.1731              1054.7175              1064.2854
 Red. masses --      1.8372                 3.7627                 2.9492
 Frc consts  --      1.1622                 2.4662                 1.9682
 IR Inten    --      2.4954                18.7843                28.3169

                     25                     26                     27
                      A                      A                      A
 Frequencies --   1078.8735              1189.2968              1201.0200
 Red. masses --      1.5308                 1.8372                 1.6545
 Frc consts  --      1.0498                 1.5311                 1.4061
 IR Inten    --      5.1335                20.8986                 4.4218

                     28                     29                     30
                      A                      A                      A
 Frequencies --   1218.7726              1289.3755              1311.4916
 Red. masses --      1.5403                 1.6772                 3.4269
 Frc consts  --      1.3481                 1.6429                 3.4729
 IR Inten    --      9.5904                 0.8943                 1.6147

                     31                     32                     33
                      A                      A                      A
 Frequencies --   1321.2070              1372.7232              1433.9547
 Red. masses --      2.7803                 1.2453                 1.1774
 Frc consts  --      2.8595                 1.3825                 1.4264
 IR Inten    --      2.1041                 3.7136                 5.3721

                     34                     35                     36
                      A                      A                      A
 Frequencies --   1444.9496              1477.8040              1490.6724
 Red. masses --      1.2520                 2.2531                 1.1051
 Frc consts  --      1.5401                 2.8991                 1.4468
 IR Inten    --      0.5087                20.1052                 6.1439

                     37                     38                     39
                      A                      A                      A
 Frequencies --   1495.2403              1515.3186              1530.0480
 Red. masses --      2.5658                 1.0439                 1.2031
 Frc consts  --      3.3799                 1.4122                 1.6595
 IR Inten    --     12.1127                 6.5458                14.5160

                     40                     41                     42
                      A                      A                      A
 Frequencies --   1631.5963              1657.4461              1838.3474
 Red. masses --      4.9565                 5.6570                 9.8415
 Frc consts  --      7.7741                 9.1563                19.5959
 IR Inten    --      8.2310                 4.0997               220.1199

                     43                     44                     45
                      A                      A                      A
 Frequencies --   2906.7832              3043.3404              3048.1225
 Red. masses --      1.0845                 1.0657                 1.0373
 Frc consts  --      5.3989                 5.8153                 5.6782
 IR Inten    --     95.7297                12.2722                25.3764

                     46                     47                     48
                      A                      A                      A
 Frequencies --   3101.9199              3125.5763              3130.4699
 Red. masses --      1.1012                 1.0976                 1.1011
 Frc consts  --      6.2428                 6.3174                 6.3574
 IR Inten    --     16.9696                 6.4128                12.4147

                     49                     50                     51
                      A                      A                      A
 Frequencies --   3162.8185              3166.0552              3168.8537
 Red. masses --      1.0883                 1.0915                 1.0918
 Frc consts  --      6.4141                 6.4463                 6.4594
 IR Inten    --     44.0713                19.6985                 1.5785

 - Thermochemistry -
 -------------------
 Temperature   298.150 Kelvin.  Pressure   1.00000 Atm.
 Atom     1 has atomic number  6 and mass  12.00000

 Molecular mass:   135.06841 amu.
 Principal axes and moments of inertia in atomic units:
                           1         2         3
     Eigenvalues --   636.885412355.522502763.68465
           X            0.99970   0.02082   0.01313
           Y           -0.02088   0.99977   0.00448
           Z           -0.01303  -0.00475   0.99990
 This molecule is an asymmetric top.
 Rotational symmetry number  1.
 Warning -- assumption of classical behavior for rotation
           may cause significant error
 Rotational temperatures (Kelvin)      0.13600     0.03677     0.03134
 Rotational constants (GHZ):           2.83370     0.76617     0.65302
 Zero-point vibrational energy     404258.6 (Joules/Mol)
                                   96.62013 (Kcal/Mol)
 Warning -- explicit consideration of  13 degrees of freedom as
           vibrations may cause significant error
 Vibrational temperatures:     30.67    64.91    74.73   196.13   309.00
          (Kelvin)            361.48   424.58   562.06   637.95   664.58
                              784.83   788.43   870.30  1046.75  1063.08
                             1175.70  1282.59  1363.46  1387.98  1390.49
                             1461.24  1490.82  1517.50  1531.27  1552.26
                             1711.13  1728.00  1753.54  1855.12  1886.94
                             1900.92  1975.04  2063.14  2078.96  2126.23
                             2144.75  2151.32  2180.21  2201.40  2347.50
                             2384.70  2644.97  4182.21  4378.69  4385.57
                             4462.97  4497.01  4504.05  4550.59  4555.25
                             4559.27

 Zero-point correction=                           0.153974 (Hartree/Particle)
 Thermal correction to Energy=                    0.163623
 Thermal correction to Enthalpy=                  0.164567
 Thermal correction to Gibbs Free Energy=         0.116698
 Sum of electronic and zero-point Energies=           -440.112867
 Sum of electronic and thermal Energies=              -440.103218
 Sum of electronic and thermal Enthalpies=            -440.102274
 Sum of electronic and thermal Free Energies=         -440.150144

                     E (Thermal)             CV                S
                      KCal/Mol        Cal/Mol-Kelvin    Cal/Mol-Kelvin
 Total                  102.675             33.999            100.751
 Electronic               0.000              0.000              0.000
 Translational            0.889              2.981             40.614
 Rotational               0.889              2.981             29.807
 Vibrational            100.898             28.037             30.330
 Vibration     1          0.593              1.985              6.508
 Vibration     2          0.595              1.979              5.021
 Vibration     3          0.596              1.977              4.742
 Vibration     4          0.614              1.917              2.855
 Vibration     5          0.645              1.818              2.003
 Vibration     6          0.663              1.761              1.722
 Vibration     7          0.689              1.683              1.445
 Vibration     8          0.758              1.490              0.998
 Vibration     9          0.803              1.375              0.816
 Vibration    10          0.820              1.335              0.761
 Vibration    11          0.901              1.150              0.554
 Vibration    12          0.903              1.144              0.548
 Vibration    13          0.963              1.021              0.441

 Optimization completed.
    -- Stationary point found.
 Normal termination of Gaussian 16 at Tue Dec  8 10:31:27 2020.

 ----------------------------------------------------------------------
 # B3LYP/6-311++G(d,p) empiricaldispersion=gd3bj scf=xqc pop=npa geom=c
 heck
 ----------------------------------------------------------------------

 -------------------------------------
 CID_87549264_JID_295_Energie_neutraal
 -------------------------------------
 Structure from the checkpoint file:  "JID_295.chk"
 Charge =  0 Multiplicity = 1

 SCF Done:  E(RB3LYP) =  -440.388307413     A.U. after   15 cycles
 Normal termination of Gaussian 16 at Tue Dec  8 10:34:00 2020.

 ----------------------------------------------------------------------
 # B3LYP/6-311++G(d,p) empiricaldispersion=gd3bj scf=xqc pop=npa geom=c
 heck
 ----------------------------------------------------------------------

 -----------------------------------
 CID_87549264_JID_295_Energie_kation
 -----------------------------------
 Structure from the checkpoint file:  "JID_295.chk"
 Charge =  1 Multiplicity = 2

 SCF Done:  E(UB3LYP) =  -440.059131327     A.U. after   24 cycles
 Normal termination of Gaussian 16 at Tue Dec  8 10:38:06 2020.
 Gaussian 16:  ES64L-G16RevA.03 25-Dec-2016

 ----------------------------------------------------------------------
 # B3LYP/6-311++G(d,p) empiricaldispersion=gd3bj scf=xqc pop=npa geom=c
 heck
 ----------------------------------------------------------------------

 ----------------------------------
 CID_87549264_JID_295_Energie_anion
 ----------------------------------
 Structure from the checkpoint file:  "JID_295.chk"
 Charge = -1 Multiplicity = 2

                         Standard orientation:
 ---------------------------------------------------------------------
 Center     Atomic      Atomic             Coordinates (Angstroms)
 Number     Number       Type             X           Y           Z
 ---------------------------------------------------------------------
      1          6           0       -3.048977   -1.355121   -0.231447
      2          6           0       -1.896635   -0.399319   -0.061749
      3          6           0       -0.626371   -0.839057    0.323481
      4          6           0        0.415910    0.075237    0.478346
      5          6           0        0.132345    1.424285    0.225672
      6          7           0       -1.069127    1.874416   -0.140125
      7          6           0       -2.049460    0.974254   -0.278089
      8          6           0        1.817784   -0.359534    0.836072
      9          6           0        2.628699   -0.633968   -0.423359
     10          8           0        3.696888   -0.126986   -0.672913
     11          1           0       -3.278210   -1.873837    0.707161
     12          1           0       -3.953538   -0.830301   -0.553000
     13          1           0       -2.822801   -2.123767   -0.980002
     14          1           0       -0.453016   -1.897465    0.511420
     15          1           0        0.917673    2.172048    0.330571
     16          1           0       -3.019831    1.367828   -0.578685
     17          1           0        2.345748    0.397317    1.422917
     18          1           0        1.784397   -1.289739    1.420322
     19          1           0        2.148588   -1.347768   -1.130084
 ---------------------------------------------------------------------

 SCF Done:  E(UB3LYP) =  -440.387881339     A.U. after   33 cycles
 SCF Done:  E(UB3LYP) =  -440.387881339     a.u. after    1 cycles

 The electronic state is 2-A.
 Alpha  occ. eigenvalues --  -18.96653 -14.15928 -10.10014 -10.06283 -10.05769
 Alpha  occ. eigenvalues --  -10.05384 -10.05110 -10.04643 -10.04605 -10.03200
 Alpha  occ. eigenvalues --   -0.90163  -0.80029  -0.68353  -0.66305  -0.58499
 Alpha  occ. eigenvalues --   -0.56981  -0.48855  -0.46498  -0.43310  -0.37854
 Alpha  occ. eigenvalues --   -0.36440  -0.32866  -0.31168  -0.30589  -0.29709
 Alpha  occ. eigenvalues --   -0.28512  -0.27622  -0.26284  -0.25728  -0.24862
 Alpha  occ. eigenvalues --   -0.23141  -0.21945  -0.14859  -0.12721  -0.11862
 Alpha  occ. eigenvalues --   -0.10536   0.05245
 Alpha virt. eigenvalues --    0.07800   0.09433   0.10010   0.10542   0.11044
 Alpha virt. eigenvalues --    0.11644   0.11866   0.12460   0.13303   0.13997
 Alpha virt. eigenvalues --    0.14995   0.15571   0.16666   0.17589   0.18423

  Beta  occ. eigenvalues --  -18.96337 -14.15665 -10.09754 -10.06317 -10.05676
  Beta  occ. eigenvalues --  -10.05368 -10.05134 -10.04670 -10.04540 -10.02933
  Beta  occ. eigenvalues --   -0.89571  -0.79666  -0.68012  -0.66137  -0.58178
  Beta  occ. eigenvalues --   -0.56851  -0.48380  -0.46288  -0.42836  -0.37697
  Beta  occ. eigenvalues --   -0.36275  -0.32605  -0.30839  -0.30418  -0.29391
  Beta  occ. eigenvalues --   -0.28263  -0.27506  -0.26052  -0.25525  -0.24144
  Beta  occ. eigenvalues --   -0.22298  -0.21315  -0.13590  -0.12254  -0.11560
  Beta  occ. eigenvalues --   -0.10132
  Beta virt. eigenvalues --    0.07936   0.09652   0.10176   0.10421   0.11127
  Beta virt. eigenvalues --    0.11419   0.11982   0.12222   0.13339   0.13382
  Beta virt. eigenvalues --    0.14099   0.15117   0.15674   0.16700   0.17479

 Mulliken charges and spin densities:
               1          2
     1  C    0.717868  -1.321282
     2  C    0.265747   0.010695
     3  C   -0.031944   0.346181
     4  C   -0.227018   0.851537
     5  C   -0.858103   0.407761
     6  N   -0.090235   0.125604
     7  C   -0.451275  -0.289138
     8  C    0.391900  -0.754273
     9  C   -0.239820   0.203928
    10  O   -0.323535   0.094288
    11  H   -0.307979   0.460322
    12  H    0.021019   0.099385
    13  H    0.126529   0.007563
    14  H   -0.138312   0.301316
    15  H    0.142937   0.006007
    16  H    0.072828   0.040168
    17  H    0.162310   0.006554
    18  H   -0.300052   0.435228
    19  H    0.067134  -0.031844
 Sum of Mulliken charges =  -1.00000   1.00000

 Dipole moment (field-independent basis, Debye):
    X=             -2.0707    Y=             -0.2094    Z=             -0.7778  Tot=              2.2219
 Quadrupole moment (field-independent basis, Debye-Ang):
   XX=           -106.5543   YY=            -82.2923   ZZ=            -76.6761
   XY=             -1.0643   XZ=              6.5962   YZ=              7.5445

 Summary of Natural Population Analysis:

                                       Natural Population
                Natural  -----------------------------------------------
    Atom  No    Charge         Core      Valence    Rydberg      Total
 -----------------------------------------------------------------------
      C    1   -0.29128      0.99964     2.28566    0.00598     3.29128
      C    2   -0.04255      0.99951     2.03323    0.00981     3.04255
      C    3   -0.04068      0.99946     2.03089    0.01033     3.04068
      C    4   -0.02396      0.99950     2.01382    0.01064     3.02396
      C    5    0.01655      0.99953     1.97034    0.01358     2.98345
      N    6   -0.20860      0.99971     2.69523    0.01365     3.70860
      C    7    0.03073      0.99953     1.95587    0.01387     2.96927
      C    8   -0.24741      0.99959     2.23669    0.01113     3.24741
      C    9    0.26178      0.99974     1.71829    0.02018     2.73822
      O   10   -0.26260      0.99988     3.25543    0.00729     4.26260
      H   11    0.10412      0.00000     0.39411    0.00177     0.39588
      H   12    0.09732      0.00000     0.40180    0.00088     0.40268
      H   13    0.09848      0.00000     0.40061    0.00091     0.40152
      H   14    0.09338      0.00000     0.40517    0.00144     0.40662
      H   15    0.08457      0.00000     0.41388    0.00154     0.41543
      H   16    0.07883      0.00000     0.41950    0.00167     0.42117
      H   17    0.10479      0.00000     0.39393    0.00129     0.39521
      H   18    0.11195      0.00000     0.38545    0.00260     0.38805
      H   19    0.03456      0.00000     0.46322    0.00222     0.46544
 =======================================================================
   * Total *    0.00000      9.99609    25.87312    0.13079    36.00000

 Normal termination of Gaussian 16 at Tue Dec  8 10:44:26 2020.
