 Gaussian 16, Revision A.03,

 -----------------------------------------------------------
 # opt freq B3LYP/6-31G(d) empiricaldispersion=gd3bj scf=xqc
 -----------------------------------------------------------

 -------------------------------
 CID_66029710_JID_10842_neutraal
 -------------------------------
 Symbolic Z-matrix:
 Charge =  0 Multiplicity = 1

 SCF Done:  E(RB3LYP) =  -953.268876376     A.U. after   15 cycles
 SCF Done:  E(RB3LYP) =  -953.276840912     A.U. after   14 cycles
 SCF Done:  E(RB3LYP) =  -953.277036866     A.U. after   16 cycles
 SCF Done:  E(RB3LYP) =  -953.277631384     A.U. after   15 cycles
 SCF Done:  E(RB3LYP) =  -953.278620803     A.U. after   14 cycles
 SCF Done:  E(RB3LYP) =  -953.278941880     A.U. after   14 cycles
 SCF Done:  E(RB3LYP) =  -953.280665609     A.U. after   13 cycles
 SCF Done:  E(RB3LYP) =  -953.280751791     A.U. after   12 cycles
 SCF Done:  E(RB3LYP) =  -953.281123943     A.U. after   12 cycles
 SCF Done:  E(RB3LYP) =  -953.281201581     A.U. after   12 cycles
 SCF Done:  E(RB3LYP) =  -953.281227893     A.U. after   10 cycles
 SCF Done:  E(RB3LYP) =  -953.281230073     A.U. after    9 cycles
 SCF Done:  E(RB3LYP) =  -953.281230977     A.U. after    8 cycles
 SCF Done:  E(RB3LYP) =  -953.281231312     A.U. after    8 cycles
 SCF Done:  E(RB3LYP) =  -953.281231363     A.U. after    7 cycles
 Optimization completed.
    -- Stationary point found.
 Normal termination of Gaussian 16 at Sat Dec 12 16:49:41 2020.

 --------------------------------------------------------------------
 #N Geom=AllCheck Guess=TCheck SCRF=Check GenChk RB3LYP/6-31G(d) Freq
 --------------------------------------------------------------------

 Structure from the checkpoint file:  "JID_10842.chk"
 -------------------------------
 CID_66029710_JID_10842_neutraal
 -------------------------------
 Charge =  0 Multiplicity = 1

 SCF Done:  E(RB3LYP) =  -953.281231363     A.U. after    1 cycles

  Exact polarizability: 195.593  11.633 177.288 -18.204   7.980 145.294
 Approx polarizability: 270.496  21.978 276.352 -43.790  24.032 229.542

                      1                      2                      3
                      A                      A                      A
 Frequencies --     19.6955                46.6644                59.7257
 Red. masses --      4.3608                 3.4644                 4.2376
 Frc consts  --      0.0010                 0.0044                 0.0089
 IR Inten    --      0.2754                 0.6761                 0.6101

                      4                      5                      6
                      A                      A                      A
 Frequencies --     64.6683                67.7387                83.2502
 Red. masses --      4.0588                 3.8075                 4.6617
 Frc consts  --      0.0100                 0.0103                 0.0190
 IR Inten    --      0.2075                 0.5248                 0.1907

                      7                      8                      9
                      A                      A                      A
 Frequencies --    117.6402               132.3349               161.4019
 Red. masses --      3.5010                 3.6455                 3.7116
 Frc consts  --      0.0285                 0.0376                 0.0570
 IR Inten    --      0.8488                 0.4755                 3.5822

                     10                     11                     12
                      A                      A                      A
 Frequencies --    167.7306               182.5727               214.9269
 Red. masses --      4.1536                 1.1142                 3.0468
 Frc consts  --      0.0688                 0.0219                 0.0829
 IR Inten    --      0.7007                 0.1368                 1.8351

                     13                     14                     15
                      A                      A                      A
 Frequencies --    224.4067               232.9696               249.8958
 Red. masses --      1.1398                 4.4705                 1.9608
 Frc consts  --      0.0338                 0.1430                 0.0721
 IR Inten    --      0.1645                 2.9469                 1.0071

                     16                     17                     18
                      A                      A                      A
 Frequencies --    257.9537               275.7036               289.0161
 Red. masses --      1.2144                 2.9846                 3.0656
 Frc consts  --      0.0476                 0.1337                 0.1509
 IR Inten    --      1.1713                 1.5606                 0.9067

                     19                     20                     21
                      A                      A                      A
 Frequencies --    305.6871               333.5887               345.4845
 Red. masses --      3.9940                 2.5029                 2.2198
 Frc consts  --      0.2199                 0.1641                 0.1561
 IR Inten    --      1.6663                 2.5954                 1.2497

                     22                     23                     24
                      A                      A                      A
 Frequencies --    376.6653               410.6929               429.8469
 Red. masses --      3.5175                 5.3265                 3.0783
 Frc consts  --      0.2940                 0.5293                 0.3351
 IR Inten    --      5.2770                 1.3396                 2.9736

                     25                     26                     27
                      A                      A                      A
 Frequencies --    437.5684               458.0602               465.4258
 Red. masses --      2.9035                 3.3020                 4.2005
 Frc consts  --      0.3275                 0.4082                 0.5361
 IR Inten    --      3.9234                 1.5665                 1.2419

                     28                     29                     30
                      A                      A                      A
 Frequencies --    515.7256               546.1845               597.4576
 Red. masses --      4.3337                 1.6149                 4.0302
 Frc consts  --      0.6791                 0.2838                 0.8476
 IR Inten    --      0.6683                15.6950                 6.6943

                     31                     32                     33
                      A                      A                      A
 Frequencies --    633.3841               664.1713               676.0697
 Red. masses --      4.2292                 3.7238                 6.4639
 Frc consts  --      0.9996                 0.9678                 1.7407
 IR Inten    --      6.5326                 7.6850                 0.4549

                     34                     35                     36
                      A                      A                      A
 Frequencies --    678.4980               719.6919               776.1424
 Red. masses --      4.8325                 7.7500                 9.4539
 Frc consts  --      1.3108                 2.3651                 3.3554
 IR Inten    --      9.1052                10.6178                 5.4966

                     37                     38                     39
                      A                      A                      A
 Frequencies --    788.0307               802.9432               827.3503
 Red. masses --      1.6003                 2.8098                 4.4166
 Frc consts  --      0.5855                 1.0673                 1.7812
 IR Inten    --     62.0497                11.2197                28.6986

                     40                     41                     42
                      A                      A                      A
 Frequencies --    860.0075               869.1619               871.5370
 Red. masses --      2.4589                 1.8425                 3.1982
 Frc consts  --      1.0715                 0.8201                 1.4313
 IR Inten    --      6.4444                 6.8948                 5.8460

                     43                     44                     45
                      A                      A                      A
 Frequencies --    904.8049               930.5601               950.3549
 Red. masses --      2.1655                 2.1473                 1.9631
 Frc consts  --      1.0445                 1.0955                 1.0446
 IR Inten    --      3.5131                 3.6783                 2.2460

                     46                     47                     48
                      A                      A                      A
 Frequencies --    955.5377               969.2876               981.1720
 Red. masses --      1.2849                 1.4157                 2.4626
 Frc consts  --      0.6912                 0.7836                 1.3968
 IR Inten    --      2.4002                 1.3904                 7.2730

                     49                     50                     51
                      A                      A                      A
 Frequencies --   1000.9010              1015.9086              1040.6892
 Red. masses --      1.7793                 2.9520                 1.6476
 Frc consts  --      1.0502                 1.7951                 1.0513
 IR Inten    --     16.7936                31.6570                 8.5326

                     52                     53                     54
                      A                      A                      A
 Frequencies --   1075.1515              1078.0974              1095.9458
 Red. masses --      1.8055                 1.4906                 2.3860
 Frc consts  --      1.2297                 1.0208                 1.6885
 IR Inten    --      4.2936                 2.0582                10.9805

                     55                     56                     57
                      A                      A                      A
 Frequencies --   1108.0052              1115.0853              1129.8049
 Red. masses --      2.0311                 1.6481                 4.3397
 Frc consts  --      1.4691                 1.2074                 3.2637
 IR Inten    --     34.1946                 1.4368                99.3749

                     58                     59                     60
                      A                      A                      A
 Frequencies --   1152.8164              1166.2249              1167.7473
 Red. masses --      2.8970                 2.2243                 2.1399
 Frc consts  --      2.2684                 1.7824                 1.7193
 IR Inten    --     24.8056                12.4577                12.4795

                     61                     62                     63
                      A                      A                      A
 Frequencies --   1189.1016              1212.4633              1229.0273
 Red. masses --      1.2373                 2.3328                 3.1953
 Frc consts  --      1.0307                 2.0205                 2.8437
 IR Inten    --      3.9390                 5.5255                28.2925

                     64                     65                     66
                      A                      A                      A
 Frequencies --   1249.4557              1288.5119              1293.7291
 Red. masses --      1.5987                 7.1501                 1.2168
 Frc consts  --      1.4704                 6.9942                 1.2000
 IR Inten    --      3.3928                88.0642                 0.9921

                     67                     68                     69
                      A                      A                      A
 Frequencies --   1307.3213              1320.5920              1356.0566
 Red. masses --      1.2305                 1.1816                 1.2797
 Frc consts  --      1.2390                 1.2141                 1.3865
 IR Inten    --      1.8562                 8.4306                11.7553

                     70                     71                     72
                      A                      A                      A
 Frequencies --   1375.2860              1384.2472              1387.9905
 Red. masses --      1.3753                 1.4037                 1.3176
 Frc consts  --      1.5326                 1.5847                 1.4955
 IR Inten    --     17.7879                23.2320                 2.4318

                     73                     74                     75
                      A                      A                      A
 Frequencies --   1401.4899              1402.8028              1410.9090
 Red. masses --      1.3878                 1.5185                 1.3997
 Frc consts  --      1.6061                 1.7606                 1.6417
 IR Inten    --      6.5146                 3.8019                20.6629

                     76                     77                     78
                      A                      A                      A
 Frequencies --   1424.3585              1425.0560              1427.8229
 Red. masses --      1.8515                 3.3414                 1.2924
 Frc consts  --      2.2132                 3.9980                 1.5523
 IR Inten    --     14.3235               179.5730                 6.4221

                     79                     80                     81
                      A                      A                      A
 Frequencies --   1440.5332              1441.5568              1446.3834
 Red. masses --      1.5100                 1.5539                 1.3601
 Frc consts  --      1.8461                 1.9026                 1.6765
 IR Inten    --     28.5042                44.8143                11.4142

                     82                     83                     84
                      A                      A                      A
 Frequencies --   1472.6725              1495.9437              1501.2641
 Red. masses --      1.8889                 3.5166                 1.1842
 Frc consts  --      2.4136                 4.6367                 1.5725
 IR Inten    --     41.7656               274.0989                15.5918

                     85                     86                     87
                      A                      A                      A
 Frequencies --   1502.9455              1504.3951              1510.2320
 Red. masses --      1.0480                 1.9039                 1.1996
 Frc consts  --      1.3947                 2.5387                 1.6120
 IR Inten    --      6.7855                 5.3284                 3.6219

                     88                     89                     90
                      A                      A                      A
 Frequencies --   1512.1943              1513.3409              1519.6606
 Red. masses --      1.0733                 1.0912                 1.0649
 Frc consts  --      1.4461                 1.4725                 1.4490
 IR Inten    --      5.6214                 0.5630                 3.7662

                     91                     92                     93
                      A                      A                      A
 Frequencies --   1524.1299              1525.6487              1529.9020
 Red. masses --      1.0970                 1.0823                 1.1863
 Frc consts  --      1.5015                 1.4843                 1.6360
 IR Inten    --      6.2753                 4.7763                 4.2511

                     94                     95                     96
                      A                      A                      A
 Frequencies --   1536.0271              1541.1171              1565.2288
 Red. masses --      1.1081                 1.0771                 3.6950
 Frc consts  --      1.5404                 1.5073                 5.3336
 IR Inten    --      0.9854                 2.7488                34.6777

                     97                     98                     99
                      A                      A                      A
 Frequencies --   1575.5850              1622.0123              2885.7036
 Red. masses --      4.7563                10.3334                 1.0799
 Frc consts  --      6.9566                16.0178                 5.2984
 IR Inten    --     16.4594               455.0180                68.5735

                    100                    101                    102
                      A                      A                      A
 Frequencies --   2933.5211              3029.7391              3053.0657
 Red. masses --      1.0733                 1.0672                 1.0609
 Frc consts  --      5.4421                 5.7720                 5.8264
 IR Inten    --    104.5893                33.0831                14.4092

                    103                    104                    105
                      A                      A                      A
 Frequencies --   3056.7628              3063.5011              3067.4339
 Red. masses --      1.0346                 1.0642                 1.0362
 Frc consts  --      5.6956                 5.8847                 5.7445
 IR Inten    --     21.9227                22.4534                17.1696

                    106                    107                    108
                      A                      A                      A
 Frequencies --   3069.5776              3084.2497              3086.4682
 Red. masses --      1.0349                 1.0928                 1.0898
 Frc consts  --      5.7454                 6.1245                 6.1167
 IR Inten    --     12.1166                51.7018                37.4750

                    109                    110                    111
                      A                      A                      A
 Frequencies --   3096.2922              3097.3561              3101.2417
 Red. masses --      1.0634                 1.1050                 1.0880
 Frc consts  --      6.0064                 6.2461                 6.1654
 IR Inten    --     39.8303                41.1748                20.3022

                    112                    113                    114
                      A                      A                      A
 Frequencies --   3117.2107              3129.7121              3130.4351
 Red. masses --      1.1001                 1.1027                 1.1006
 Frc consts  --      6.2980                 6.3636                 6.3546
 IR Inten    --     41.0292                12.8455                 8.2006

                    115                    116                    117
                      A                      A                      A
 Frequencies --   3135.0956              3136.6730              3154.9639
 Red. masses --      1.1028                 1.1026                 1.1017
 Frc consts  --      6.3864                 6.3918                 6.4610
 IR Inten    --     26.3225                21.5525                11.2283

                    118                    119                    120
                      A                      A                      A
 Frequencies --   3155.6353              3163.6383              3486.0861
 Red. masses --      1.1045                 1.1044                 1.0744
 Frc consts  --      6.4802                 6.5125                 7.6928
 IR Inten    --     11.6861                 6.9512                 0.8856

 - Thermochemistry -
 -------------------
 Temperature   298.150 Kelvin.  Pressure   1.00000 Atm.
 Atom     1 has atomic number  6 and mass  12.00000

 Molecular mass:   282.16919 amu.
 Principal axes and moments of inertia in atomic units:
                           1         2         3
     Eigenvalues --  3897.338716664.511988154.50879
           X            0.99962  -0.02733  -0.00180
           Y            0.02729   0.99945  -0.01871
           Z            0.00231   0.01865   0.99982
 This molecule is an asymmetric top.
 Rotational symmetry number  1.
 Warning -- assumption of classical behavior for rotation
           may cause significant error
 Rotational temperatures (Kelvin)      0.02222     0.01300     0.01062
 Rotational constants (GHZ):           0.46307     0.27080     0.22132
 Zero-point vibrational energy     949100.0 (Joules/Mol)
                                  226.84034 (Kcal/Mol)
 Warning -- explicit consideration of  30 degrees of freedom as
           vibrations may cause significant error
 Vibrational temperatures:     28.34    67.14    85.93    93.04    97.46
          (Kelvin)            119.78   169.26   190.40   232.22   241.33
                              262.68   309.23   322.87   335.19   359.54
                              371.14   396.68   415.83   439.82   479.96
                              497.08   541.94   590.90   618.45   629.56
                              659.05   669.64   742.01   785.84   859.61
                              911.30   955.59   972.71   976.21  1035.48
                             1116.70  1133.80  1155.26  1190.37  1237.36
                             1250.53  1253.95  1301.81  1338.87  1367.35
                             1374.81  1394.59  1411.69  1440.07  1461.67
                             1497.32  1546.90  1551.14  1576.82  1594.17
                             1604.36  1625.54  1658.65  1677.94  1680.13
                             1710.85  1744.46  1768.30  1797.69  1853.88
                             1861.39  1880.94  1900.04  1951.06  1978.73
                             1991.62  1997.01  2016.43  2018.32  2029.98
                             2049.33  2050.34  2054.32  2072.61  2074.08
                             2081.02  2118.85  2152.33  2159.98  2162.40
                             2164.49  2172.89  2175.71  2177.36  2186.45
                             2192.88  2195.07  2201.19  2210.00  2217.32
                             2252.02  2266.92  2333.71  4151.88  4220.68
                             4359.12  4392.68  4398.00  4407.69  4413.35
                             4416.44  4437.55  4440.74  4454.87  4456.40
                             4462.00  4484.97  4502.96  4504.00  4510.70
                             4512.97  4539.29  4540.26  4551.77  5015.70

 Zero-point correction=                           0.361493 (Hartree/Particle)
 Thermal correction to Energy=                    0.381270
 Thermal correction to Enthalpy=                  0.382215
 Thermal correction to Gibbs Free Energy=         0.312697
 Sum of electronic and zero-point Energies=           -952.919738
 Sum of electronic and thermal Energies=              -952.899961
 Sum of electronic and thermal Enthalpies=            -952.899017
 Sum of electronic and thermal Free Energies=         -952.968534

                     E (Thermal)             CV                S
                      KCal/Mol        Cal/Mol-Kelvin    Cal/Mol-Kelvin
 Total                  239.251             74.907            146.311
 Electronic               0.000              0.000              0.000
 Translational            0.889              2.981             42.810
 Rotational               0.889              2.981             33.715
 Vibrational            237.473             68.945             69.786
 Vibration     1          0.593              1.986              6.665
 Vibration     2          0.595              1.979              4.954
 Vibration     3          0.597              1.974              4.466
 Vibration     4          0.597              1.971              4.309
 Vibration     5          0.598              1.970              4.218
 Vibration     6          0.600              1.961              3.813
 Vibration     7          0.608              1.935              3.139
 Vibration     8          0.612              1.921              2.912
 Vibration     9          0.622              1.890              2.533
 Vibration    10          0.624              1.882              2.461
 Vibration    11          0.630              1.864              2.302
 Vibration    12          0.645              1.818              2.001
 Vibration    13          0.649              1.804              1.923
 Vibration    14          0.654              1.790              1.856
 Vibration    15          0.663              1.763              1.731
 Vibration    16          0.667              1.749              1.676
 Vibration    17          0.677              1.718              1.560
 Vibration    18          0.686              1.694              1.480
 Vibration    19          0.696              1.663              1.386
 Vibration    20          0.715              1.608              1.243
 Vibration    21          0.724              1.584              1.187
 Vibration    22          0.747              1.520              1.053
 Vibration    23          0.775              1.447              0.924
 Vibration    24          0.791              1.405              0.859
 Vibration    25          0.798              1.388              0.834
 Vibration    26          0.816              1.343              0.772
 Vibration    27          0.823              1.327              0.750
 Vibration    28          0.871              1.215              0.620
 Vibration    29          0.901              1.148              0.552
 Vibration    30          0.955              1.037              0.454

                           ! Non-Optimized Parameters !
 Normal termination of Gaussian 16 at Sat Dec 12 17:18:07 2020.

 ----------------------------------------------------------------------
 # B3LYP/6-311++G(d,p) empiricaldispersion=gd3bj scf=xqc pop=npa geom=c
 heck
 ----------------------------------------------------------------------

 ---------------------------------------
 CID_66029710_JID_10842_Energie_neutraal
 ---------------------------------------
 Structure from the checkpoint file:  "JID_10842.chk"
 Charge =  0 Multiplicity = 1

 SCF Done:  E(RB3LYP) =  -953.547319541     A.U. after   16 cycles
 Normal termination of Gaussian 16 at Sat Dec 12 17:31:39 2020.

 ----------------------------------------------------------------------
 # B3LYP/6-311++G(d,p) empiricaldispersion=gd3bj scf=xqc pop=npa geom=c
 heck
 ----------------------------------------------------------------------

 -------------------------------------
 CID_66029710_JID_10842_Energie_kation
 -------------------------------------
 Structure from the checkpoint file:  "JID_10842.chk"
 Charge =  1 Multiplicity = 2

 SCF Done:  E(UB3LYP) =  -953.237115078     A.U. after   29 cycles
 Normal termination of Gaussian 16 at Sat Dec 12 18:06:21 2020.
 Gaussian 16:  ES64L-G16RevA.03 25-Dec-2016

 ----------------------------------------------------------------------
 # B3LYP/6-311++G(d,p) empiricaldispersion=gd3bj scf=xqc pop=npa geom=c
 heck
 ----------------------------------------------------------------------

 ------------------------------------
 CID_66029710_JID_10842_Energie_anion
 ------------------------------------
 Structure from the checkpoint file:  "JID_10842.chk"
 Charge = -1 Multiplicity = 2

                         Standard orientation:
 ---------------------------------------------------------------------
 Center     Atomic      Atomic             Coordinates (Angstroms)
 Number     Number       Type             X           Y           Z
 ---------------------------------------------------------------------
      1          6           0       -3.609686    0.844197    1.722961
      2          6           0       -2.432408    0.735039    0.811906
      3          7           0       -1.576941    1.739460    0.690103
      4          7           0       -0.620753    1.321826   -0.198049
      5          6           0       -0.857977    0.080901   -0.667463
      6          6           0       -2.034918   -0.347831   -0.027438
      7          7           0       -2.725864   -1.566711   -0.223284
      8          8           0       -2.265177   -2.385957   -1.034965
      9          8           0       -3.766092   -1.751241    0.420025
     10          8           0       -0.065334   -0.430106   -1.612476
     11          6           0        0.623743   -1.679258   -1.359540
     12          6           0        1.821486   -1.543185   -0.423844
     13          6           0        1.456185   -1.328984    1.052634
     14          6           0        2.725827   -1.253607    1.911453
     15          6           0        3.686086   -0.188615    1.366626
     16          6           0        3.967019   -0.429362   -0.117382
     17          7           0        2.704617   -0.460028   -0.861905
     18          6           0        0.481955    2.211266   -0.593182
     19          6           0        0.002961    3.171903   -1.684063
     20          6           0        1.026887    2.936051    0.635745
     21          1           0       -4.546424    0.725879    1.170155
     22          1           0       -3.592217    1.822469    2.209753
     23          1           0       -3.594348    0.056542    2.482439
     24          1           0       -0.088222   -2.417840   -0.988822
     25          1           0        0.954932   -1.984193   -2.356108
     26          1           0        2.331075   -2.529024   -0.486218
     27          1           0        0.807095   -2.145906    1.389604
     28          1           0        0.891819   -0.397337    1.159532
     29          1           0        2.466877   -1.042627    2.955367
     30          1           0        3.227717   -2.231874    1.900847
     31          1           0        3.239998    0.806734    1.483469
     32          1           0        4.628532   -0.194476    1.926792
     33          1           0        4.587766    0.374802   -0.527246
     34          1           0        4.535366   -1.373787   -0.225558
     35          1           0        2.893498   -0.555824   -1.858296
     36          1           0        1.251925    1.540482   -0.984487
     37          1           0       -0.813484    3.798564   -1.310296
     38          1           0        0.825100    3.823126   -1.999544
     39          1           0       -0.353710    2.618601   -2.558604
     40          1           0        1.347658    2.220774    1.399131
     41          1           0        1.891625    3.540495    0.343415
     42          1           0        0.269848    3.589917    1.075498
 ---------------------------------------------------------------------

 SCF Done:  E(UB3LYP) =  -953.562315392     A.U. after   33 cycles
 SCF Done:  E(UB3LYP) =  -953.562315392     a.u. after    1 cycles

 The electronic state is 2-A.
 Alpha  occ. eigenvalues --  -19.04061 -18.94472 -18.94392 -14.32111 -14.26062
 Alpha  occ. eigenvalues --  -14.20951 -14.20423 -10.13630 -10.11372 -10.11132
 Alpha  occ. eigenvalues --  -10.10687 -10.10668 -10.08120 -10.08053 -10.07862
 Alpha  occ. eigenvalues --  -10.06960 -10.06836 -10.06817 -10.06746 -10.04816
 Alpha  occ. eigenvalues --   -1.02433  -0.97027  -0.91714  -0.84994  -0.82699
 Alpha  occ. eigenvalues --   -0.74765  -0.70078  -0.69216  -0.67267  -0.66454
 Alpha  occ. eigenvalues --   -0.60990  -0.59803  -0.59322  -0.56027  -0.54596
 Alpha  occ. eigenvalues --   -0.51818  -0.49349  -0.47230  -0.44575  -0.44064
 Alpha  occ. eigenvalues --   -0.41546  -0.40369  -0.38645  -0.37256  -0.36738
 Alpha  occ. eigenvalues --   -0.36402  -0.35661  -0.35453  -0.34933  -0.33981
 Alpha  occ. eigenvalues --   -0.33276  -0.32410  -0.31607  -0.30894  -0.30635
 Alpha  occ. eigenvalues --   -0.30187  -0.29730  -0.28993  -0.28244  -0.27590
 Alpha  occ. eigenvalues --   -0.26800  -0.26242  -0.25845  -0.25070  -0.24948
 Alpha  occ. eigenvalues --   -0.23845  -0.23090  -0.22148  -0.20142  -0.17199
 Alpha  occ. eigenvalues --   -0.14314  -0.13593  -0.12855  -0.12617  -0.11562
 Alpha  occ. eigenvalues --   -0.10265   0.03818
 Alpha virt. eigenvalues --    0.05196   0.06950   0.06972   0.07979   0.08902
 Alpha virt. eigenvalues --    0.09354   0.09589   0.09698   0.10589   0.11329
 Alpha virt. eigenvalues --    0.11631   0.12124   0.12516   0.12697   0.13091

  Beta  occ. eigenvalues --  -19.04026 -18.94059 -18.93892 -14.31311 -14.26031
  Beta  occ. eigenvalues --  -14.20940 -14.20472 -10.13406 -10.11339 -10.11134
  Beta  occ. eigenvalues --  -10.10682 -10.10653 -10.08116 -10.08050 -10.07769
  Beta  occ. eigenvalues --  -10.06958 -10.06926 -10.06809 -10.06745 -10.04821
  Beta  occ. eigenvalues --   -1.01272  -0.96879  -0.91664  -0.84113  -0.82680
  Beta  occ. eigenvalues --   -0.74720  -0.70061  -0.69103  -0.67211  -0.66206
  Beta  occ. eigenvalues --   -0.60824  -0.59791  -0.59300  -0.55527  -0.54482
  Beta  occ. eigenvalues --   -0.51733  -0.49250  -0.47192  -0.44398  -0.43797
  Beta  occ. eigenvalues --   -0.41426  -0.40292  -0.38380  -0.37177  -0.36540
  Beta  occ. eigenvalues --   -0.35953  -0.35556  -0.35150  -0.34166  -0.33250
  Beta  occ. eigenvalues --   -0.32376  -0.32222  -0.31083  -0.30759  -0.30205
  Beta  occ. eigenvalues --   -0.30102  -0.29521  -0.28908  -0.28133  -0.27539
  Beta  occ. eigenvalues --   -0.26724  -0.26165  -0.25823  -0.25033  -0.24907
  Beta  occ. eigenvalues --   -0.23817  -0.23070  -0.22104  -0.20046  -0.17163
  Beta  occ. eigenvalues --   -0.14287  -0.12463  -0.12221  -0.11021  -0.10452
  Beta  occ. eigenvalues --   -0.09825
  Beta virt. eigenvalues --    0.05563   0.06934   0.07127   0.08017   0.08945
  Beta virt. eigenvalues --    0.09318   0.09478   0.09748   0.10575   0.11170
  Beta virt. eigenvalues --    0.11381   0.11625   0.12111   0.12509   0.12698

 Mulliken charges and spin densities:
               1          2
     1  C   -0.657092  -0.007626
     2  C    0.322012   0.055876
     3  N   -0.152485  -0.031011
     4  N    0.485034   0.012848
     5  C   -0.911893   0.196249
     6  C    0.659584  -0.132947
     7  N   -0.483172   0.251433
     8  O   -0.118172   0.163814
     9  O   -0.186054   0.194147
    10  O   -0.019292   0.005827
    11  C   -0.872938  -0.046468
    12  C    0.619576  -0.190078
    13  C   -0.383996   0.060627
    14  C   -0.275599  -0.274760
    15  C   -0.340662   0.109809
    16  C    0.308425  -0.584661
    17  N   -0.233474   0.082669
    18  C   -0.237863   0.101767
    19  C   -0.449102  -0.059704
    20  C   -0.559984  -0.044269
    21  H    0.183793   0.002635
    22  H    0.120049  -0.001500
    23  H    0.174866   0.007879
    24  H    0.207787   0.032349
    25  H    0.018744   0.128301
    26  H    0.086240   0.067018
    27  H    0.151125   0.031249
    28  H    0.158773  -0.022101
    29  H    0.137883   0.028162
    30  H    0.108302   0.010805
    31  H    0.145958  -0.046405
    32  H   -0.011375   0.189007
    33  H   -0.175809   0.323265
    34  H   -0.061251   0.180762
    35  H    0.081493   0.176801
    36  H    0.378750  -0.080330
    37  H    0.144459   0.007527
    38  H    0.066130   0.059945
    39  H    0.157449   0.018624
    40  H    0.125691   0.007907
    41  H    0.111350   0.016853
    42  H    0.176740  -0.002298
 Sum of Mulliken charges =  -1.00000   1.00000

 Dipole moment (field-independent basis, Debye):
    X=              7.2610    Y=              4.6639    Z=              1.4973  Tot=              8.7588
 Quadrupole moment (field-independent basis, Debye-Ang):
   XX=           -188.2340   YY=           -155.1676   ZZ=           -138.3657
   XY=            -18.5632   XZ=              0.8891   YZ=             -4.7247

 Summary of Natural Population Analysis:

                                       Natural Population
                Natural  -----------------------------------------------
    Atom  No    Charge         Core      Valence    Rydberg      Total
 -----------------------------------------------------------------------
      C    1   -0.29718      0.99963     2.29285    0.00470     3.29718
      C    2    0.10586      0.99959     1.88158    0.01297     2.89414
      N    3   -0.18842      0.99969     2.67751    0.01121     3.68842
      N    4   -0.12452      0.99960     2.61111    0.01381     3.62452
      C    5    0.29888      0.99937     1.68532    0.01643     2.70112
      C    6   -0.05008      0.99933     2.03591    0.01484     3.05008
      N    7    0.32646      0.99968     2.14922    0.02464     3.17354
      O    8   -0.21850      0.99990     3.21118    0.00743     4.21850
      O    9   -0.19556      0.99990     3.18845    0.00721     4.19556
      O   10   -0.27588      0.99984     3.26727    0.00877     4.27588
      C   11   -0.01241      0.99950     1.99890    0.01401     3.01241
      C   12   -0.02221      0.99958     2.00981    0.01282     3.02221
      C   13   -0.19799      0.99960     2.19092    0.00746     3.19799
      C   14   -0.18751      0.99963     2.18093    0.00695     3.18751
      C   15   -0.19658      0.99963     2.18831    0.00864     3.19658
      C   16   -0.08546      0.99962     2.07378    0.01206     3.08546
      N   17   -0.34528      0.99972     2.83293    0.01263     3.84528
      C   18   -0.02013      0.99960     2.00911    0.01142     3.02013
      C   19   -0.28665      0.99964     2.28263    0.00438     3.28665
      C   20   -0.28610      0.99965     2.28132    0.00513     3.28610
      H   21    0.11082      0.00000     0.38809    0.00109     0.38918
      H   22    0.09662      0.00000     0.40228    0.00110     0.40338
      H   23    0.10943      0.00000     0.38951    0.00106     0.39057
      H   24    0.11485      0.00000     0.38312    0.00202     0.38515
      H   25    0.08701      0.00000     0.41192    0.00107     0.41299
      H   26    0.08070      0.00000     0.41772    0.00158     0.41930
      H   27    0.10450      0.00000     0.39457    0.00093     0.39550
      H   28    0.10544      0.00000     0.39263    0.00193     0.39456
      H   29    0.09790      0.00000     0.40122    0.00087     0.40210
      H   30    0.09102      0.00000     0.40764    0.00134     0.40898
      H   31    0.09781      0.00000     0.40085    0.00134     0.40219
      H   32    0.09658      0.00000     0.40257    0.00085     0.40342
      H   33    0.09464      0.00000     0.40443    0.00094     0.40536
      H   34    0.07553      0.00000     0.42284    0.00163     0.42447
      H   35    0.17498      0.00000     0.32251    0.00251     0.32502
      H   36    0.11981      0.00000     0.37777    0.00242     0.38019
      H   37    0.10144      0.00000     0.39769    0.00086     0.39856
      H   38    0.09418      0.00000     0.40496    0.00086     0.40582
      H   39    0.10415      0.00000     0.39508    0.00077     0.39585
      H   40    0.10120      0.00000     0.39781    0.00099     0.39880
      H   41    0.09442      0.00000     0.40481    0.00076     0.40558
      H   42    0.10623      0.00000     0.39288    0.00090     0.39377
 =======================================================================
   * Total *    0.00000     19.99271    55.76194    0.24534    76.00000

 Normal termination of Gaussian 16 at Sat Dec 12 18:45:14 2020.
