 Gaussian 16, Revision A.03,

 -----------------------------------------------------------
 # opt freq B3LYP/6-31G(d) empiricaldispersion=gd3bj scf=xqc
 -----------------------------------------------------------

 -------------------------------
 CID_103071106_JID_6690_neutraal
 -------------------------------
 Symbolic Z-matrix:
 Charge =  0 Multiplicity = 1

 SCF Done:  E(RB3LYP) =  -658.677122557     A.U. after   13 cycles
 SCF Done:  E(RB3LYP) =  -658.684879645     A.U. after   11 cycles
 SCF Done:  E(RB3LYP) =  -658.685967260     A.U. after   11 cycles
 SCF Done:  E(RB3LYP) =  -658.686402006     A.U. after   11 cycles
 SCF Done:  E(RB3LYP) =  -658.686521259     A.U. after   10 cycles
 SCF Done:  E(RB3LYP) =  -658.686555798     A.U. after   10 cycles
 SCF Done:  E(RB3LYP) =  -658.686564326     A.U. after    9 cycles
 SCF Done:  E(RB3LYP) =  -658.686569400     A.U. after    8 cycles
 SCF Done:  E(RB3LYP) =  -658.686570057     A.U. after    7 cycles
 SCF Done:  E(RB3LYP) =  -658.686570187     A.U. after    7 cycles
 SCF Done:  E(RB3LYP) =  -658.686570228     A.U. after    6 cycles
 Optimization completed.
    -- Stationary point found.
 Normal termination of Gaussian 16 at Thu Dec 10 22:53:51 2020.

 --------------------------------------------------------------------
 #N Geom=AllCheck Guess=TCheck SCRF=Check GenChk RB3LYP/6-31G(d) Freq
 --------------------------------------------------------------------

 Structure from the checkpoint file:  "JID_6690.chk"
 -------------------------------
 CID_103071106_JID_6690_neutraal
 -------------------------------
 Charge =  0 Multiplicity = 1

 SCF Done:  E(RB3LYP) =  -658.686570228     A.U. after    1 cycles

  Exact polarizability: 167.467   4.298 165.909  -3.198  -2.710 132.319
 Approx polarizability: 208.921   7.417 241.358  -2.055  -6.543 199.762

                      1                      2                      3
                      A                      A                      A
 Frequencies --     20.9627                27.4164                40.6783
 Red. masses --      2.6974                 3.4352                 3.5615
 Frc consts  --      0.0007                 0.0015                 0.0035
 IR Inten    --      0.1033                 0.0782                 0.2033

                      4                      5                      6
                      A                      A                      A
 Frequencies --     66.5930                75.9844                80.2336
 Red. masses --      3.1858                 3.3982                 2.7673
 Frc consts  --      0.0083                 0.0116                 0.0105
 IR Inten    --      0.1823                 0.3474                 0.1645

                      7                      8                      9
                      A                      A                      A
 Frequencies --    137.3785               152.5186               206.3403
 Red. masses --      2.7590                 3.2894                 2.3308
 Frc consts  --      0.0307                 0.0451                 0.0585
 IR Inten    --      0.7918                 0.4085                 0.1680

                     10                     11                     12
                      A                      A                      A
 Frequencies --    221.5786               235.4865               240.3355
 Red. masses --      1.6154                 1.2882                 2.0093
 Frc consts  --      0.0467                 0.0421                 0.0684
 IR Inten    --      0.2438                 0.2596                 1.2891

                     13                     14                     15
                      A                      A                      A
 Frequencies --    268.8380               313.6724               323.0779
 Red. masses --      1.4058                 2.2971                 2.1632
 Frc consts  --      0.0599                 0.1332                 0.1330
 IR Inten    --      0.0241                 8.0176                 2.5101

                     16                     17                     18
                      A                      A                      A
 Frequencies --    357.4903               373.3246               397.1860
 Red. masses --      2.1357                 2.1043                 1.8124
 Frc consts  --      0.1608                 0.1728                 0.1685
 IR Inten    --      0.0563                 1.1264                 2.8004

                     19                     20                     21
                      A                      A                      A
 Frequencies --    426.5622               441.4339               452.7497
 Red. masses --      2.5252                 2.4407                 2.3309
 Frc consts  --      0.2707                 0.2802                 0.2815
 IR Inten    --      5.2792                 9.3382                 3.1242

                     22                     23                     24
                      A                      A                      A
 Frequencies --    504.1327               550.6380               583.4368
 Red. masses --      2.3390                 3.4331                 2.0451
 Frc consts  --      0.3502                 0.6133                 0.4102
 IR Inten    --      3.0614                 0.0932                 0.6279

                     25                     26                     27
                      A                      A                      A
 Frequencies --    605.9680               694.5066               701.4690
 Red. masses --      2.4290                 2.5923                 2.1328
 Frc consts  --      0.5255                 0.7367                 0.6183
 IR Inten    --     14.0427                35.3287                50.5982

                     28                     29                     30
                      A                      A                      A
 Frequencies --    741.1329               752.7820               778.1156
 Red. masses --      1.3325                 2.4378                 2.8318
 Frc consts  --      0.4312                 0.8139                 1.0102
 IR Inten    --     23.2440                 2.6190                 1.3481

                     31                     32                     33
                      A                      A                      A
 Frequencies --    823.0269               841.3189               859.4498
 Red. masses --      2.4690                 2.9185                 2.5233
 Frc consts  --      0.9854                 1.2171                 1.0982
 IR Inten    --      4.1332                 0.1032                 2.3640

                     34                     35                     36
                      A                      A                      A
 Frequencies --    866.0824               871.7889               890.0084
 Red. masses --      1.9846                 2.2831                 2.3144
 Frc consts  --      0.8771                 1.0223                 1.0802
 IR Inten    --      1.2240                11.8787                 4.4475

                     37                     38                     39
                      A                      A                      A
 Frequencies --    913.3797               932.7449               940.1490
 Red. masses --      2.3190                 1.3850                 1.2865
 Frc consts  --      1.1398                 0.7099                 0.6700
 IR Inten    --      0.5052                30.7484                 5.9739

                     40                     41                     42
                      A                      A                      A
 Frequencies --    946.5530               969.7480               977.0815
 Red. masses --      1.6371                 1.4426                 1.9315
 Frc consts  --      0.8642                 0.7993                 1.0864
 IR Inten    --      4.6550                 1.1000                 6.3876

                     43                     44                     45
                      A                      A                      A
 Frequencies --    980.8721               986.9344               997.2437
 Red. masses --      2.0974                 1.8104                 1.6744
 Frc consts  --      1.1889                 1.0390                 0.9811
 IR Inten    --      2.2963                 4.7936                 1.1919

                     46                     47                     48
                      A                      A                      A
 Frequencies --   1016.7121              1024.3599              1037.0200
 Red. masses --      1.7826                 1.9162                 1.8353
 Frc consts  --      1.0857                 1.1847                 1.1629
 IR Inten    --      0.8865                 6.3871                 8.5005

                     49                     50                     51
                      A                      A                      A
 Frequencies --   1058.7046              1081.0970              1102.2298
 Red. masses --      1.9792                 1.8297                 2.0404
 Frc consts  --      1.3070                 1.2600                 1.4605
 IR Inten    --     18.3998                 9.9976                25.2403

                     52                     53                     54
                      A                      A                      A
 Frequencies --   1114.3535              1149.0674              1165.2969
 Red. masses --      2.8615                 1.9400                 2.2262
 Frc consts  --      2.0936                 1.5092                 1.7811
 IR Inten    --     14.8002                 3.5517                17.6416

                     55                     56                     57
                      A                      A                      A
 Frequencies --   1169.6081              1184.4540              1188.6958
 Red. masses --      1.7471                 1.7452                 1.6084
 Frc consts  --      1.4082                 1.4425                 1.3390
 IR Inten    --     15.1244                 3.4810                 5.8038

                     58                     59                     60
                      A                      A                      A
 Frequencies --   1203.2459              1211.7009              1223.3358
 Red. masses --      1.4289                 1.9336                 1.4848
 Frc consts  --      1.2189                 1.6727                 1.3092
 IR Inten    --      3.2907                28.0758                 1.1399

                     61                     62                     63
                      A                      A                      A
 Frequencies --   1242.7880              1280.6546              1290.0711
 Red. masses --      1.2222                 1.6938                 1.3239
 Frc consts  --      1.1122                 1.6367                 1.2982
 IR Inten    --      0.6534                 4.1279                 2.2812

                     64                     65                     66
                      A                      A                      A
 Frequencies --   1299.5069              1311.8052              1329.4451
 Red. masses --      1.2418                 1.4276                 1.3748
 Frc consts  --      1.2355                 1.4474                 1.4317
 IR Inten    --      4.5106                 0.9290                 0.4109

                     67                     68                     69
                      A                      A                      A
 Frequencies --   1338.8916              1341.5530              1349.9054
 Red. masses --      1.6979                 1.3538                 1.3740
 Frc consts  --      1.7932                 1.4356                 1.4752
 IR Inten    --      5.4077                 0.0358                 0.7607

                     70                     71                     72
                      A                      A                      A
 Frequencies --   1353.5788              1360.8090              1371.4262
 Red. masses --      1.4362                 1.3638                 1.2323
 Frc consts  --      1.5504                 1.4880                 1.3656
 IR Inten    --      4.7307                11.8808                 5.9646

                     73                     74                     75
                      A                      A                      A
 Frequencies --   1380.3381              1382.4360              1386.9979
 Red. masses --      1.3359                 1.4659                 1.3144
 Frc consts  --      1.4997                 1.6506                 1.4898
 IR Inten    --      7.0132                 3.5171                 4.4598

                     76                     77                     78
                      A                      A                      A
 Frequencies --   1391.7611              1409.6878              1421.4402
 Red. masses --      1.4150                 1.2604                 1.4085
 Frc consts  --      1.6149                 1.4757                 1.6768
 IR Inten    --     13.9992                20.9541                 3.8424

                     79                     80                     81
                      A                      A                      A
 Frequencies --   1427.4226              1441.7500              1477.0123
 Red. masses --      1.3333                 1.2491                 1.1829
 Frc consts  --      1.6006                 1.5298                 1.5204
 IR Inten    --     15.2238                13.0207                 7.7153

                     82                     83                     84
                      A                      A                      A
 Frequencies --   1502.7021              1511.8023              1516.3886
 Red. masses --      1.1034                 1.1112                 1.0875
 Frc consts  --      1.4680                 1.4963                 1.4734
 IR Inten    --      5.5822                12.6172                 1.2737

                     85                     86                     87
                      A                      A                      A
 Frequencies --   1518.8003              1522.6925              1525.6013
 Red. masses --      1.0504                 1.0849                 1.0813
 Frc consts  --      1.4276                 1.4821                 1.4827
 IR Inten    --      1.0780                 1.0028                 1.9288

                     88                     89                     90
                      A                      A                      A
 Frequencies --   1526.5436              1530.6530              1533.9907
 Red. masses --      1.0983                 1.1189                 1.0834
 Frc consts  --      1.5080                 1.5446                 1.5021
 IR Inten    --      4.3236                 5.6711                 4.7915

                     91                     92                     93
                      A                      A                      A
 Frequencies --   1535.8835              1542.6129              1547.0817
 Red. masses --      1.1013                 1.0612                 1.0961
 Frc consts  --      1.5306                 1.4878                 1.5457
 IR Inten    --      3.9161                 4.7774                 2.9101

                     94                     95                     96
                      A                      A                      A
 Frequencies --   1728.3803              2973.7289              3006.0563
 Red. masses --      5.0926                 1.0689                 1.0819
 Frc consts  --      8.9632                 5.5690                 5.7599
 IR Inten    --      8.6082                65.0417                29.0948

                     97                     98                     99
                      A                      A                      A
 Frequencies --   3016.6721              3027.3435              3038.1281
 Red. masses --      1.0723                 1.0680                 1.0460
 Frc consts  --      5.7492                 5.7670                 5.6887
 IR Inten    --     43.7522                40.6380                16.7751

                    100                    101                    102
                      A                      A                      A
 Frequencies --   3038.2909              3042.1103              3047.8820
 Red. masses --      1.0588                 1.0649                 1.0536
 Frc consts  --      5.7589                 5.8064                 5.7668
 IR Inten    --     59.4851                29.2702                36.8355

                    103                    104                    105
                      A                      A                      A
 Frequencies --   3048.5444              3054.1128              3058.8619
 Red. masses --      1.0711                 1.0671                 1.0648
 Frc consts  --      5.8651                 5.8645                 5.8698
 IR Inten    --     15.8151                18.0989                24.7358

                    106                    107                    108
                      A                      A                      A
 Frequencies --   3070.0732              3078.1772              3088.9801
 Red. masses --      1.0841                 1.0952                 1.0892
 Frc consts  --      6.0201                 6.1139                 6.1235
 IR Inten    --     52.7039                 5.6880                37.7894

                    109                    110                    111
                      A                      A                      A
 Frequencies --   3090.5684              3094.3284              3101.6372
 Red. masses --      1.0967                 1.1012                 1.0997
 Frc consts  --      6.1720                 6.2123                 6.2334
 IR Inten    --     69.4743                12.1888                37.8734

                    112                    113                    114
                      A                      A                      A
 Frequencies --   3104.3780              3108.5547              3114.1270
 Red. masses --      1.0950                 1.1036                 1.0995
 Frc consts  --      6.2173                 6.2832                 6.2821
 IR Inten    --     25.4619                88.8422                 9.1376

                    115                    116                    117
                      A                      A                      A
 Frequencies --   3114.3772              3122.4791              3126.6063
 Red. masses --      1.0952                 1.1020                 1.1022
 Frc consts  --      6.2585                 6.3302                 6.3481
 IR Inten    --     29.7126                28.2215                55.3285

                    118                    119                    120
                      A                      A                      A
 Frequencies --   3152.6794              3229.3225              3501.4929
 Red. masses --      1.0597                 1.1157                 1.0743
 Frc consts  --      6.2056                 6.8549                 7.7600
 IR Inten    --     11.0610                20.9393                 0.8230

 - Thermochemistry -
 -------------------
 Temperature   298.150 Kelvin.  Pressure   1.00000 Atm.
 Atom     1 has atomic number  6 and mass  12.00000

 Molecular mass:   222.20960 amu.
 Principal axes and moments of inertia in atomic units:
                           1         2         3
     Eigenvalues --  2058.599115940.798196792.59113
           X            0.99991   0.01304  -0.00290
           Y           -0.01302   0.99989   0.00637
           Z            0.00298  -0.00633   0.99998
 This molecule is an asymmetric top.
 Rotational symmetry number  1.
 Warning -- assumption of classical behavior for rotation
           may cause significant error
 Rotational temperatures (Kelvin)      0.04207     0.01458     0.01275
 Rotational constants (GHZ):           0.87668     0.30379     0.26569
 Zero-point vibrational energy    1020296.2 (Joules/Mol)
                                  243.85666 (Kcal/Mol)
 Warning -- explicit consideration of  25 degrees of freedom as
           vibrations may cause significant error
 Vibrational temperatures:     30.16    39.45    58.53    95.81   109.32
          (Kelvin)            115.44   197.66   219.44   296.88   318.80
                              338.81   345.79   386.80   451.30   464.84
                              514.35   537.13   571.46   613.73   635.12
                              651.41   725.33   792.25   839.44   871.85
                              999.24  1009.26  1066.32  1083.09  1119.53
                             1184.15  1210.47  1236.56  1246.10  1254.31
                             1280.52  1314.15  1342.01  1352.66  1361.88
                             1395.25  1405.80  1411.26  1419.98  1434.81
                             1462.82  1473.83  1492.04  1523.24  1555.46
                             1585.86  1603.31  1653.25  1676.60  1682.81
                             1704.17  1710.27  1731.20  1743.37  1760.11
                             1788.09  1842.58  1856.12  1869.70  1887.40
                             1912.77  1926.37  1930.20  1942.21  1947.50
                             1957.90  1973.18  1986.00  1989.02  1995.58
                             2002.43  2028.23  2045.14  2053.74  2074.36
                             2125.09  2162.05  2175.15  2181.74  2185.21
                             2190.81  2195.00  2196.36  2202.27  2207.07
                             2209.79  2219.48  2225.91  2486.75  4278.53
                             4325.04  4340.32  4355.67  4371.19  4371.42
                             4376.92  4385.22  4386.18  4394.19  4401.02
                             4417.15  4428.81  4444.35  4446.64  4452.05
                             4462.56  4466.51  4472.52  4480.53  4480.89
                             4492.55  4498.49  4536.00  4646.27  5037.87

 Zero-point correction=                           0.388610 (Hartree/Particle)
 Thermal correction to Energy=                    0.405493
 Thermal correction to Enthalpy=                  0.406437
 Thermal correction to Gibbs Free Energy=         0.342429
 Sum of electronic and zero-point Energies=           -658.297960
 Sum of electronic and thermal Energies=              -658.281077
 Sum of electronic and thermal Enthalpies=            -658.280133
 Sum of electronic and thermal Free Energies=         -658.344141

                     E (Thermal)             CV                S
                      KCal/Mol        Cal/Mol-Kelvin    Cal/Mol-Kelvin
 Total                  254.451             65.373            134.717
 Electronic               0.000              0.000              0.000
 Translational            0.889              2.981             42.098
 Rotational               0.889              2.981             32.785
 Vibrational            252.673             59.412             59.834
 Vibration     1          0.593              1.986              6.541
 Vibration     2          0.593              1.984              6.008
 Vibration     3          0.594              1.981              5.226
 Vibration     4          0.598              1.970              4.252
 Vibration     5          0.599              1.965              3.992
 Vibration     6          0.600              1.963              3.885
 Vibration     7          0.614              1.916              2.840
 Vibration     8          0.619              1.900              2.641
 Vibration     9          0.641              1.831              2.076
 Vibration    10          0.648              1.808              1.946
 Vibration    11          0.655              1.786              1.837
 Vibration    12          0.657              1.779              1.800
 Vibration    13          0.673              1.730              1.604
 Vibration    14          0.702              1.648              1.343
 Vibration    15          0.708              1.629              1.294
 Vibration    16          0.733              1.560              1.133
 Vibration    17          0.745              1.527              1.066
 Vibration    18          0.764              1.476              0.973
 Vibration    19          0.788              1.412              0.870
 Vibration    20          0.801              1.380              0.822
 Vibration    21          0.811              1.355              0.788
 Vibration    22          0.859              1.241              0.648
 Vibration    23          0.906              1.138              0.543
 Vibration    24          0.940              1.067              0.479
 Vibration    25          0.965              1.019              0.440

                           ! Non-Optimized Parameters !
 Normal termination of Gaussian 16 at Thu Dec 10 23:10:40 2020.

 ----------------------------------------------------------------------
 # B3LYP/6-311++G(d,p) empiricaldispersion=gd3bj scf=xqc pop=npa geom=c
 heck
 ----------------------------------------------------------------------

 ---------------------------------------
 CID_103071106_JID_6690_Energie_neutraal
 ---------------------------------------
 Structure from the checkpoint file:  "JID_6690.chk"
 Charge =  0 Multiplicity = 1

 SCF Done:  E(RB3LYP) =  -658.868297563     A.U. after   14 cycles
 Normal termination of Gaussian 16 at Thu Dec 10 23:18:28 2020.

 ----------------------------------------------------------------------
 # B3LYP/6-311++G(d,p) empiricaldispersion=gd3bj scf=xqc pop=npa geom=c
 heck
 ----------------------------------------------------------------------

 -------------------------------------
 CID_103071106_JID_6690_Energie_kation
 -------------------------------------
 Structure from the checkpoint file:  "JID_6690.chk"
 Charge =  1 Multiplicity = 2

 SCF Done:  E(UB3LYP) =  -658.597310618     A.U. after   21 cycles
 Normal termination of Gaussian 16 at Thu Dec 10 23:33:17 2020.
 Gaussian 16:  ES64L-G16RevA.03 25-Dec-2016

 ----------------------------------------------------------------------
 # B3LYP/6-311++G(d,p) empiricaldispersion=gd3bj scf=xqc pop=npa geom=c
 heck
 ----------------------------------------------------------------------

 ------------------------------------
 CID_103071106_JID_6690_Energie_anion
 ------------------------------------
 Structure from the checkpoint file:  "JID_6690.chk"
 Charge = -1 Multiplicity = 2

                         Standard orientation:
 ---------------------------------------------------------------------
 Center     Atomic      Atomic             Coordinates (Angstroms)
 Number     Number       Type             X           Y           Z
 ---------------------------------------------------------------------
      1          6           0       -3.621131   -1.361700    1.180686
      2          6           0       -3.016293   -0.861851   -0.134421
      3          6           0       -3.740211   -1.472870   -1.333803
      4          7           0       -3.140199    0.602878   -0.212080
      5          6           0       -2.177453    1.393893    0.562451
      6          6           0       -0.923343    1.782028   -0.194360
      7          6           0       -0.631832    3.062251   -0.446486
      8          6           0       -0.027647    0.670070   -0.691350
      9          7           0        0.342507   -0.252180    0.381232
     10          6           0        1.017435   -1.487389   -0.052290
     11          6           0        2.506932   -1.431304    0.410042
     12          6           0        3.528713   -1.379580   -0.737619
     13          6           0        3.511011    0.089189   -1.185416
     14          6           0        3.383380    0.874943    0.136140
     15          6           0        2.633783   -0.057070    1.135186
     16          6           0        1.175871    0.323044    1.444555
     17          1           0       -4.683378   -1.098366    1.232847
     18          1           0       -3.118761   -0.916272    2.045926
     19          1           0       -3.519204   -2.450269    1.263268
     20          1           0       -1.963291   -1.182744   -0.158391
     21          1           0       -4.788298   -1.151343   -1.349673
     22          1           0       -3.274421   -1.164156   -2.278770
     23          1           0       -3.714985   -2.566631   -1.289788
     24          1           0       -3.118445    0.904608   -1.183392
     25          1           0       -2.667897    2.309159    0.918864
     26          1           0       -1.900189    0.812742    1.447374
     27          1           0        0.267007    3.349639   -0.987347
     28          1           0       -1.285199    3.869337   -0.123953
     29          1           0       -0.576792    0.080992   -1.437370
     30          1           0        0.833734    1.115963   -1.217779
     31          1           0        0.520396   -2.356404    0.398689
     32          1           0        0.932243   -1.599068   -1.139224
     33          1           0        2.711010   -2.267816    1.085579
     34          1           0        3.300634   -2.083712   -1.546178
     35          1           0        4.524668   -1.637030   -0.353827
     36          1           0        2.640598    0.270616   -1.827075
     37          1           0        4.396996    0.371376   -1.763845
     38          1           0        2.873622    1.835493    0.005273
     39          1           0        4.382476    1.099422    0.526998
     40          1           0        3.206441   -0.143424    2.064254
     41          1           0        1.008717    1.401460    1.516975
     42          1           0        0.880881   -0.120377    2.406607
 ---------------------------------------------------------------------

 SCF Done:  E(UB3LYP) =  -658.855116111     A.U. after   33 cycles
 SCF Done:  E(UB3LYP) =  -658.855116111     a.u. after    1 cycles

 The electronic state is 2-A.
 Alpha  occ. eigenvalues --  -14.20351 -14.20102 -10.10254 -10.10225 -10.10045
 Alpha  occ. eigenvalues --  -10.08997 -10.08846 -10.08641 -10.07356 -10.06936
 Alpha  occ. eigenvalues --  -10.06790 -10.06713 -10.06388 -10.06289 -10.06283
 Alpha  occ. eigenvalues --  -10.06213  -0.83446  -0.81354  -0.73509  -0.70849
 Alpha  occ. eigenvalues --   -0.66789  -0.64183  -0.63373  -0.59791  -0.57688
 Alpha  occ. eigenvalues --   -0.57532  -0.56831  -0.49273  -0.48334  -0.46330
 Alpha  occ. eigenvalues --   -0.45228  -0.44050  -0.40517  -0.39835  -0.38919
 Alpha  occ. eigenvalues --   -0.37936  -0.36540  -0.36059  -0.34853  -0.34613
 Alpha  occ. eigenvalues --   -0.33107  -0.32180  -0.31616  -0.30232  -0.29888
 Alpha  occ. eigenvalues --   -0.29073  -0.28692  -0.28161  -0.26938  -0.26069
 Alpha  occ. eigenvalues --   -0.25541  -0.24826  -0.24399  -0.23806  -0.23075
 Alpha  occ. eigenvalues --   -0.22572  -0.22155  -0.21917  -0.21716  -0.17583
 Alpha  occ. eigenvalues --   -0.13124  -0.11309   0.04197
 Alpha virt. eigenvalues --    0.06091   0.06799   0.06892   0.07884   0.08117
 Alpha virt. eigenvalues --    0.08420   0.08581   0.09039   0.09566   0.10113
 Alpha virt. eigenvalues --    0.10342   0.10653   0.11025   0.11193   0.11848

  Beta  occ. eigenvalues --  -14.20342 -14.20102 -10.10249 -10.10213 -10.10038
  Beta  occ. eigenvalues --  -10.08994 -10.08828 -10.08628 -10.07338 -10.06913
  Beta  occ. eigenvalues --  -10.06779 -10.06701 -10.06373 -10.06270 -10.06263
  Beta  occ. eigenvalues --  -10.06197  -0.83434  -0.81342  -0.73480  -0.70829
  Beta  occ. eigenvalues --   -0.66768  -0.64151  -0.63342  -0.59755  -0.57655
  Beta  occ. eigenvalues --   -0.57487  -0.56798  -0.49233  -0.48298  -0.46273
  Beta  occ. eigenvalues --   -0.45193  -0.44019  -0.40465  -0.39817  -0.38897
  Beta  occ. eigenvalues --   -0.37901  -0.36506  -0.36030  -0.34828  -0.34588
  Beta  occ. eigenvalues --   -0.33081  -0.32147  -0.31593  -0.30213  -0.29869
  Beta  occ. eigenvalues --   -0.29048  -0.28670  -0.28139  -0.26916  -0.26050
  Beta  occ. eigenvalues --   -0.25522  -0.24803  -0.24371  -0.23777  -0.23044
  Beta  occ. eigenvalues --   -0.22543  -0.22118  -0.21877  -0.21683  -0.17541
  Beta  occ. eigenvalues --   -0.13108  -0.11293
  Beta virt. eigenvalues --    0.06086   0.06879   0.07137   0.07228   0.08270
  Beta virt. eigenvalues --    0.08603   0.08697   0.08808   0.09341   0.09907
  Beta virt. eigenvalues --    0.10374   0.10642   0.10941   0.11314   0.11438

 Mulliken charges and spin densities:
               1          2
     1  C   -0.031063  -0.429594
     2  C   -0.974119   0.683222
     3  C    0.218009  -0.730544
     4  N    0.047532  -0.007003
     5  C   -0.767366   0.272831
     6  C   -0.021511   1.061046
     7  C    0.347095  -0.969120
     8  C   -0.419571  -0.700018
     9  N    0.330540   0.050902
    10  C    1.380057  -1.963481
    11  C   -1.639656   2.087620
    12  C    0.714035  -1.431032
    13  C   -0.087634  -0.084553
    14  C    0.662841  -1.151308
    15  C    0.265712  -0.168380
    16  C   -0.432462  -0.192052
    17  H    0.014372   0.131685
    18  H    0.020894   0.107129
    19  H   -0.111152   0.235823
    20  H    1.149652  -0.930021
    21  H    0.000740   0.145346
    22  H   -0.229026   0.361635
    23  H   -0.118922   0.257306
    24  H    0.185647   0.036213
    25  H    0.024247   0.150550
    26  H    0.141246   0.014889
    27  H   -0.091649   0.218597
    28  H    0.052892   0.065372
    29  H    0.149770   0.008393
    30  H    0.057011   0.035479
    31  H   -0.060856   0.207642
    32  H   -0.129236   0.285382
    33  H   -0.453179   0.693431
    34  H   -0.183039   0.316894
    35  H   -0.210575   0.364390
    36  H   -0.037792   0.154192
    37  H   -0.168524   0.351548
    38  H    0.130291   0.006710
    39  H   -0.318866   0.483705
    40  H   -0.350491   0.590723
    41  H    0.019597   0.145417
    42  H   -0.075493   0.233036
 Sum of Mulliken charges =  -1.00000   1.00000

 Dipole moment (field-independent basis, Debye):
    X=             -4.2715    Y=              3.1037    Z=             -1.1307  Tot=              5.3997
 Quadrupole moment (field-independent basis, Debye-Ang):
   XX=           -196.2406   YY=           -148.1855   ZZ=           -142.1961
   XY=              0.2829   XZ=             -4.5486   YZ=              0.5533

 Summary of Natural Population Analysis:

                                       Natural Population
                Natural  -----------------------------------------------
    Atom  No    Charge         Core      Valence    Rydberg      Total
 -----------------------------------------------------------------------
      C    1   -0.28462      0.99964     2.27946    0.00551     3.28462
      C    2   -0.02382      0.99961     2.01099    0.01322     3.02382
      C    3   -0.28560      0.99965     2.28121    0.00475     3.28560
      N    4   -0.34123      0.99974     2.83005    0.01144     3.84123
      C    5   -0.10177      0.99955     2.09024    0.01198     3.10177
      C    6   -0.00551      0.99951     1.99613    0.00988     3.00551
      C    7   -0.19514      0.99948     2.18763    0.00802     3.19514
      C    8   -0.09788      0.99954     2.08724    0.01110     3.09788
      N    9   -0.29204      0.99973     2.77933    0.01297     3.79204
      C   10   -0.08185      0.99961     2.07029    0.01195     3.08185
      C   11   -0.11529      0.99959     2.10443    0.01126     3.11529
      C   12   -0.18716      0.99962     2.17930    0.00825     3.18716
      C   13   -0.19416      0.99964     2.18664    0.00789     3.19416
      C   14   -0.19309      0.99963     2.18473    0.00873     3.19309
      C   15   -0.11561      0.99959     2.10474    0.01128     3.11561
      C   16   -0.08319      0.99960     2.07163    0.01197     3.08319
      H   17    0.09639      0.00000     0.40238    0.00124     0.40361
      H   18    0.09939      0.00000     0.39953    0.00108     0.40061
      H   19    0.09802      0.00000     0.40102    0.00096     0.40198
      H   20    0.09121      0.00000     0.40549    0.00330     0.40879
      H   21    0.09742      0.00000     0.40143    0.00115     0.40258
      H   22    0.09721      0.00000     0.40161    0.00118     0.40279
      H   23    0.10204      0.00000     0.39699    0.00097     0.39796
      H   24    0.17241      0.00000     0.32463    0.00295     0.32759
      H   25    0.09101      0.00000     0.40777    0.00122     0.40899
      H   26    0.10472      0.00000     0.39350    0.00178     0.39528
      H   27    0.09404      0.00000     0.40482    0.00114     0.40596
      H   28    0.09192      0.00000     0.40690    0.00118     0.40808
      H   29    0.10029      0.00000     0.39781    0.00190     0.39971
      H   30    0.08609      0.00000     0.41116    0.00275     0.41391
      H   31    0.09520      0.00000     0.40320    0.00160     0.40480
      H   32    0.09291      0.00000     0.40543    0.00167     0.40709
      H   33    0.10352      0.00000     0.39470    0.00178     0.39648
      H   34    0.09846      0.00000     0.40050    0.00104     0.40154
      H   35    0.09871      0.00000     0.39965    0.00164     0.40129
      H   36    0.09160      0.00000     0.40660    0.00180     0.40840
      H   37    0.09969      0.00000     0.39921    0.00111     0.40031
      H   38    0.09765      0.00000     0.40110    0.00125     0.40235
      H   39    0.10070      0.00000     0.39777    0.00153     0.39930
      H   40    0.10380      0.00000     0.39446    0.00174     0.39620
      H   41    0.10029      0.00000     0.39845    0.00125     0.39971
      H   42    0.09329      0.00000     0.40551    0.00121     0.40671
 =======================================================================
   * Total *   -0.00000     15.99371    45.80567    0.20062    62.00000

 Normal termination of Gaussian 16 at Thu Dec 10 23:57:18 2020.
