 Gaussian 16, Revision A.03,

 -----------------------------------------------------------
 # opt freq B3LYP/6-31G(d) empiricaldispersion=gd3bj scf=xqc
 -----------------------------------------------------------

 -------------------------------
 CID_143736908_JID_9704_neutraal
 -------------------------------
 Symbolic Z-matrix:
 Charge =  0 Multiplicity = 1

 SCF Done:  E(RB3LYP) =  -1097.46130699     A.U. after   14 cycles
 SCF Done:  E(RB3LYP) =  -1097.46363631     A.U. after   14 cycles
 SCF Done:  E(RB3LYP) =  -1097.46397269     A.U. after   12 cycles
 SCF Done:  E(RB3LYP) =  -1097.46406507     A.U. after   11 cycles
 SCF Done:  E(RB3LYP) =  -1097.46411378     A.U. after   11 cycles
 SCF Done:  E(RB3LYP) =  -1097.46414218     A.U. after   11 cycles
 SCF Done:  E(RB3LYP) =  -1097.46415375     A.U. after   11 cycles
 SCF Done:  E(RB3LYP) =  -1097.46416753     A.U. after   11 cycles
 SCF Done:  E(RB3LYP) =  -1097.46418855     A.U. after   12 cycles
 SCF Done:  E(RB3LYP) =  -1097.46419477     A.U. after   10 cycles
 SCF Done:  E(RB3LYP) =  -1097.46419697     A.U. after    8 cycles
 SCF Done:  E(RB3LYP) =  -1097.46419740     A.U. after    9 cycles
 SCF Done:  E(RB3LYP) =  -1097.46419746     A.U. after    6 cycles
 SCF Done:  E(RB3LYP) =  -1097.46419758     A.U. after    7 cycles
 SCF Done:  E(RB3LYP) =  -1097.46419759     A.U. after    7 cycles
 Optimization completed.
    -- Stationary point found.
 Normal termination of Gaussian 16 at Sun Dec 13 12:43:00 2020.

 --------------------------------------------------------------------
 #N Geom=AllCheck Guess=TCheck SCRF=Check GenChk RB3LYP/6-31G(d) Freq
 --------------------------------------------------------------------

 Structure from the checkpoint file:  "JID_9704.chk"
 -------------------------------
 CID_143736908_JID_9704_neutraal
 -------------------------------
 Charge =  0 Multiplicity = 1

 SCF Done:  E(RB3LYP) =  -1097.46419759     A.U. after    1 cycles

  Exact polarizability: 307.305   5.264 187.675 -15.892  -2.956 141.166
 Approx polarizability: 395.887   6.356 306.075 -33.776  -7.834 234.872

                      1                      2                      3
                      A                      A                      A
 Frequencies --      9.6886                19.6498                29.0818
 Red. masses --      4.4636                 4.1394                 2.6923
 Frc consts  --      0.0002                 0.0009                 0.0013
 IR Inten    --      0.6893                 0.1507                 0.0951

                      4                      5                      6
                      A                      A                      A
 Frequencies --     38.6127                65.9928                83.6010
 Red. masses --      3.5536                 2.7186                 3.9825
 Frc consts  --      0.0031                 0.0070                 0.0164
 IR Inten    --      0.0235                 0.0311                 0.0265

                      7                      8                      9
                      A                      A                      A
 Frequencies --    113.8995               126.1831               135.9183
 Red. masses --      2.2142                 3.1606                 1.1585
 Frc consts  --      0.0169                 0.0297                 0.0126
 IR Inten    --      0.0520                 1.4695                 0.3015

                     10                     11                     12
                      A                      A                      A
 Frequencies --    174.1336               182.8257               199.8553
 Red. masses --      3.7836                 2.4270                 3.0086
 Frc consts  --      0.0676                 0.0478                 0.0708
 IR Inten    --      0.1424                 0.0049                 0.4275

                     13                     14                     15
                      A                      A                      A
 Frequencies --    212.9920               229.2984               251.3060
 Red. masses --      2.5294                 2.4757                 1.5933
 Frc consts  --      0.0676                 0.0767                 0.0593
 IR Inten    --      3.3348                 0.8336                 0.7855

                     16                     17                     18
                      A                      A                      A
 Frequencies --    257.6653               301.2645               315.6836
 Red. masses --      1.6070                 2.6582                 3.3798
 Frc consts  --      0.0629                 0.1421                 0.1985
 IR Inten    --      0.9528                 0.4225                 1.1513

                     19                     20                     21
                      A                      A                      A
 Frequencies --    359.0412               374.9664               411.4754
 Red. masses --      2.8102                 2.7266                 3.3092
 Frc consts  --      0.2134                 0.2259                 0.3301
 IR Inten    --      0.0566                 0.1042                 0.7607

                     22                     23                     24
                      A                      A                      A
 Frequencies --    420.8737               439.8953               448.7742
 Red. masses --      3.4732                 4.7326                 3.1139
 Frc consts  --      0.3625                 0.5396                 0.3695
 IR Inten    --      0.1844                 1.2311                 2.4134

                     25                     26                     27
                      A                      A                      A
 Frequencies --    474.3355               485.2489               520.8468
 Red. masses --      3.4995                 3.0025                 4.6138
 Frc consts  --      0.4639                 0.4165                 0.7374
 IR Inten    --      1.9843                 1.1750                 0.0327

                     28                     29                     30
                      A                      A                      A
 Frequencies --    549.4881               589.4285               617.6359
 Red. masses --      4.6786                 3.7139                 4.3806
 Frc consts  --      0.8323                 0.7602                 0.9846
 IR Inten    --      1.1349                 6.5644                 3.5535

                     31                     32                     33
                      A                      A                      A
 Frequencies --    655.3811               695.7728               714.6899
 Red. masses --      4.0068                 6.3016                 2.2336
 Frc consts  --      1.0140                 1.7974                 0.6722
 IR Inten    --      0.4289                 5.9165                12.3293

                     34                     35                     36
                      A                      A                      A
 Frequencies --    739.4959               741.8392               797.0580
 Red. masses --      4.0015                 2.5104                 1.3426
 Frc consts  --      1.2893                 0.8140                 0.5026
 IR Inten    --      1.3649                 0.9210                14.3207

                     37                     38                     39
                      A                      A                      A
 Frequencies --    803.6944               813.3749               843.0840
 Red. masses --      1.2812                 1.4526                 1.6973
 Frc consts  --      0.4876                 0.5662                 0.7108
 IR Inten    --     10.5791                 6.6079                 8.4817

                     40                     41                     42
                      A                      A                      A
 Frequencies --    847.6917               871.7457               901.4791
 Red. masses --      3.2724                 2.3933                 1.3892
 Frc consts  --      1.3855                 1.0716                 0.6651
 IR Inten    --     24.3142                 3.1703                 5.9150

                     43                     44                     45
                      A                      A                      A
 Frequencies --    903.0508               906.0907               909.5911
 Red. masses --      1.3673                 2.8317                 1.3593
 Frc consts  --      0.6569                 1.3697                 0.6626
 IR Inten    --      3.0744                12.2384                 0.5610

                     46                     47                     48
                      A                      A                      A
 Frequencies --    912.5172               963.2596               975.4306
 Red. masses --      1.6012                 1.3141                 1.2823
 Frc consts  --      0.7856                 0.7184                 0.7188
 IR Inten    --      6.4183                 0.3962                 0.5691

                     49                     50                     51
                      A                      A                      A
 Frequencies --    989.2255              1019.2365              1027.5394
 Red. masses --      2.4123                 6.2684                 1.5248
 Frc consts  --      1.3908                 3.8367                 0.9486
 IR Inten    --      1.6084                 1.1862                 3.9286

                     52                     53                     54
                      A                      A                      A
 Frequencies --   1052.3169              1072.4828              1081.2780
 Red. masses --      2.0657                 1.5006                 1.5478
 Frc consts  --      1.3477                 1.0170                 1.0662
 IR Inten    --      1.8473                 2.6413                 1.4713

                     55                     56                     57
                      A                      A                      A
 Frequencies --   1087.7514              1094.7701              1112.5689
 Red. masses --      1.5879                 1.8927                 1.9960
 Frc consts  --      1.1069                 1.3365                 1.4557
 IR Inten    --      7.9495                 9.9876                 4.0896

                     58                     59                     60
                      A                      A                      A
 Frequencies --   1116.0887              1132.8285              1142.3357
 Red. masses --      2.1934                 1.9999                 1.4854
 Frc consts  --      1.6098                 1.5121                 1.1421
 IR Inten    --     10.2419                 0.3293                 0.3033

                     61                     62                     63
                      A                      A                      A
 Frequencies --   1171.5952              1207.2840              1215.6457
 Red. masses --      1.8244                 1.1379                 1.8749
 Frc consts  --      1.4755                 0.9772                 1.6324
 IR Inten    --      3.2993                 0.6730                 2.6552

                     64                     65                     66
                      A                      A                      A
 Frequencies --   1242.4085              1246.4457              1263.8175
 Red. masses --      2.4196                 1.7571                 1.9739
 Frc consts  --      2.2005                 1.6084                 1.8575
 IR Inten    --      3.3059                 2.9024                 0.1737

                     67                     68                     69
                      A                      A                      A
 Frequencies --   1285.2633              1307.3695              1321.0263
 Red. masses --      1.3938                 1.2453                 1.5624
 Frc consts  --      1.3566                 1.2541                 1.6064
 IR Inten    --      0.1460                 2.4355                 0.3818

                     70                     71                     72
                      A                      A                      A
 Frequencies --   1340.2974              1352.3374              1361.1163
 Red. masses --      1.5788                 2.6235                 2.9691
 Frc consts  --      1.6710                 2.8269                 3.2409
 IR Inten    --      0.4660                 0.2610                 0.1804

                     73                     74                     75
                      A                      A                      A
 Frequencies --   1372.3138              1383.4399              1393.6280
 Red. masses --      1.5162                 1.3649                 1.3953
 Frc consts  --      1.6824                 1.5391                 1.5967
 IR Inten    --      9.5632                 3.2480                 8.2352

                     76                     77                     78
                      A                      A                      A
 Frequencies --   1435.7533              1438.7142              1443.2203
 Red. masses --      1.2229                 2.3128                 1.4440
 Frc consts  --      1.4853                 2.8205                 1.7721
 IR Inten    --      1.7882                 3.5964                 2.0009

                     79                     80                     81
                      A                      A                      A
 Frequencies --   1447.4225              1472.8652              1511.7416
 Red. masses --      1.2577                 2.6807                 1.0693
 Frc consts  --      1.5524                 3.4263                 1.4398
 IR Inten    --      4.2293                12.1504                 3.5131

                     82                     83                     84
                      A                      A                      A
 Frequencies --   1517.8325              1519.0369              1520.7389
 Red. masses --      1.1171                 1.1397                 1.0600
 Frc consts  --      1.5164                 1.5494                 1.4443
 IR Inten    --      1.5694                 2.1568                 8.0876

                     85                     86                     87
                      A                      A                      A
 Frequencies --   1525.7809              1525.9088              1528.3645
 Red. masses --      1.0596                 1.1604                 1.9316
 Frc consts  --      1.4533                 1.5919                 2.6584
 IR Inten    --      4.2836                10.0377                22.8220

                     88                     89                     90
                      A                      A                      A
 Frequencies --   1533.0468              1538.8325              1539.3053
 Red. masses --      1.1644                 1.1118                 1.1069
 Frc consts  --      1.6124                 1.5511                 1.5452
 IR Inten    --      8.2369                 3.2479                 3.4530

                     91                     92                     93
                      A                      A                      A
 Frequencies --   1541.2422              1617.9639              1634.2644
 Red. masses --      1.5962                 6.4950                 5.5321
 Frc consts  --      2.2340                10.0176                 8.7054
 IR Inten    --     25.3966                 1.2904                22.0060

                     94                     95                     96
                      A                      A                      A
 Frequencies --   1652.4555              1657.0774              3040.5628
 Red. masses --      5.7401                 5.8495                 1.0604
 Frc consts  --      9.2348                 9.4635                 5.7760
 IR Inten    --     55.8230                 0.0444                22.0541

                     97                     98                     99
                      A                      A                      A
 Frequencies --   3043.6746              3046.1997              3046.7429
 Red. masses --      1.0565                 1.0397                 1.0594
 Frc consts  --      5.7665                 5.6845                 5.7940
 IR Inten    --     19.2742                22.7889                36.8889

                    100                    101                    102
                      A                      A                      A
 Frequencies --   3047.8842              3049.3345              3075.2273
 Red. masses --      1.0444                 1.0348                 1.0987
 Frc consts  --      5.7161                 5.6693                 6.1216
 IR Inten    --     50.3311                35.2002                35.6666

                    103                    104                    105
                      A                      A                      A
 Frequencies --   3081.5545              3086.5961              3099.9576
 Red. masses --      1.1040                 1.1024                 1.0982
 Frc consts  --      6.1765                 6.1880                 6.2181
 IR Inten    --      9.4864                34.0217                14.1110

                    106                    107                    108
                      A                      A                      A
 Frequencies --   3111.0083              3119.7553              3124.1852
 Red. masses --      1.1010                 1.1028                 1.1035
 Frc consts  --      6.2782                 6.3241                 6.3461
 IR Inten    --     49.2692                51.9954                33.1497

                    109                    110                    111
                      A                      A                      A
 Frequencies --   3125.6467              3131.1289              3178.4273
 Red. masses --      1.1020                 1.1010                 1.0866
 Frc consts  --      6.3435                 6.3599                 6.4679
 IR Inten    --     52.4611                15.2706                 7.5208

                    112                    113                    114
                      A                      A                      A
 Frequencies --   3181.1911              3183.0744              3193.2788
 Red. masses --      1.0885                 1.0900                 1.0904
 Frc consts  --      6.4902                 6.5071                 6.5511
 IR Inten    --     18.1670                 9.0753                 6.6004

                    115                    116                    117
                      A                      A                      A
 Frequencies --   3195.9786              3214.8674              3219.2046
 Red. masses --      1.0926                 1.0932                 1.0933
 Frc consts  --      6.5755                 6.6572                 6.6756
 IR Inten    --     23.0731                 5.9386                 6.2068

 - Thermochemistry -
 -------------------
 Temperature   298.150 Kelvin.  Pressure   1.00000 Atm.
 Atom     1 has atomic number  6 and mass  12.00000

 Molecular mass:   270.14422 amu.
 Principal axes and moments of inertia in atomic units:
                           1         2         3
     Eigenvalues --  2337.60435********************
           X            0.99998  -0.00519  -0.00399
           Y            0.00513   0.99989  -0.01369
           Z            0.00406   0.01367   0.99990
 This molecule is an asymmetric top.
 Rotational symmetry number  1.
 Warning -- assumption of classical behavior for rotation
           may cause significant error
 Rotational temperatures (Kelvin)      0.03705     0.00697     0.00631
 Rotational constants (GHZ):           0.77205     0.14520     0.13138
 Zero-point vibrational energy     927251.6 (Joules/Mol)
                                  221.61846 (Kcal/Mol)
 Warning -- explicit consideration of  30 degrees of freedom as
           vibrations may cause significant error
 Vibrational temperatures:     13.94    28.27    41.84    55.56    94.95
          (Kelvin)            120.28   163.88   181.55   195.56   250.54
                              263.05   287.55   306.45   329.91   361.57
                              370.72   433.45   454.20   516.58   539.49
                              592.02   605.54   632.91   645.69   682.46
                              698.16   749.38   790.59   848.06   888.64
                              942.95  1001.06  1028.28  1063.97  1067.34
                             1146.79  1156.34  1170.27  1213.01  1219.64
                             1254.25  1297.03  1299.29  1303.66  1308.70
                             1312.91  1385.92  1403.43  1423.27  1466.45
                             1478.40  1514.05  1543.06  1555.72  1565.03
                             1575.13  1600.74  1605.80  1629.89  1643.57
                             1685.66  1737.01  1749.04  1787.55  1793.36
                             1818.35  1849.21  1881.01  1900.66  1928.39
                             1945.71  1958.34  1974.45  1990.46  2005.12
                             2065.73  2069.99  2076.47  2082.52  2119.12
                             2175.06  2183.82  2185.56  2188.00  2195.26
                             2195.44  2198.98  2205.71  2214.04  2214.72
                             2217.50  2327.89  2351.34  2377.51  2384.16
                             4374.69  4379.17  4382.80  4383.58  4385.23
                             4387.31  4424.57  4433.67  4440.92  4460.15
                             4476.05  4488.63  4495.01  4497.11  4505.00
                             4573.05  4577.02  4579.73  4594.42  4598.30
                             4625.48  4631.72

 Zero-point correction=                           0.353171 (Hartree/Particle)
 Thermal correction to Energy=                    0.372706
 Thermal correction to Enthalpy=                  0.373650
 Thermal correction to Gibbs Free Energy=         0.301880
 Sum of electronic and zero-point Energies=          -1097.111026
 Sum of electronic and thermal Energies=             -1097.091492
 Sum of electronic and thermal Enthalpies=           -1097.090548
 Sum of electronic and thermal Free Energies=        -1097.162318

                     E (Thermal)             CV                S
                      KCal/Mol        Cal/Mol-Kelvin    Cal/Mol-Kelvin
 Total                  233.876             73.584            151.053
 Electronic               0.000              0.000              0.000
 Translational            0.889              2.981             42.680
 Rotational               0.889              2.981             34.345
 Vibrational            232.099             67.622             74.028
 Vibration     1          0.593              1.987              8.074
 Vibration     2          0.593              1.986              6.669
 Vibration     3          0.593              1.984              5.891
 Vibration     4          0.594              1.981              5.329
 Vibration     5          0.597              1.970              4.269
 Vibration     6          0.600              1.960              3.805
 Vibration     7          0.607              1.938              3.201
 Vibration     8          0.611              1.927              3.003
 Vibration     9          0.614              1.917              2.861
 Vibration    10          0.627              1.874              2.390
 Vibration    11          0.630              1.863              2.299
 Vibration    12          0.638              1.840              2.134
 Vibration    13          0.644              1.821              2.018
 Vibration    14          0.652              1.796              1.884
 Vibration    15          0.663              1.761              1.721
 Vibration    16          0.667              1.750              1.678
 Vibration    17          0.693              1.671              1.410
 Vibration    18          0.703              1.644              1.332
 Vibration    19          0.734              1.557              1.126
 Vibration    20          0.746              1.523              1.059
 Vibration    21          0.775              1.445              0.921
 Vibration    22          0.783              1.425              0.889
 Vibration    23          0.800              1.383              0.827
 Vibration    24          0.808              1.364              0.799
 Vibration    25          0.831              1.307              0.726
 Vibration    26          0.841              1.283              0.696
 Vibration    27          0.876              1.204              0.608
 Vibration    28          0.905              1.141              0.545
 Vibration    29          0.947              1.054              0.468
 Vibration    30          0.977              0.995              0.420

                           ! Non-Optimized Parameters !
 Normal termination of Gaussian 16 at Sun Dec 13 13:03:20 2020.

 ----------------------------------------------------------------------
 # B3LYP/6-311++G(d,p) empiricaldispersion=gd3bj scf=xqc pop=npa geom=c
 heck
 ----------------------------------------------------------------------

 ---------------------------------------
 CID_143736908_JID_9704_Energie_neutraal
 ---------------------------------------
 Structure from the checkpoint file:  "JID_9704.chk"
 Charge =  0 Multiplicity = 1

 SCF Done:  E(RB3LYP) =  -1097.66840144     A.U. after   15 cycles
 Normal termination of Gaussian 16 at Sun Dec 13 13:13:30 2020.

 ----------------------------------------------------------------------
 # B3LYP/6-311++G(d,p) empiricaldispersion=gd3bj scf=xqc pop=npa geom=c
 heck
 ----------------------------------------------------------------------

 -------------------------------------
 CID_143736908_JID_9704_Energie_kation
 -------------------------------------
 Structure from the checkpoint file:  "JID_9704.chk"
 Charge =  1 Multiplicity = 2

 SCF Done:  E(UB3LYP) =  -1097.40159729     A.U. after   24 cycles
 Normal termination of Gaussian 16 at Sun Dec 13 13:37:20 2020.
 Gaussian 16:  ES64L-G16RevA.03 25-Dec-2016

 ----------------------------------------------------------------------
 # B3LYP/6-311++G(d,p) empiricaldispersion=gd3bj scf=xqc pop=npa geom=c
 heck
 ----------------------------------------------------------------------

 ------------------------------------
 CID_143736908_JID_9704_Energie_anion
 ------------------------------------
 Structure from the checkpoint file:  "JID_9704.chk"
 Charge = -1 Multiplicity = 2

                         Standard orientation:
 ---------------------------------------------------------------------
 Center     Atomic      Atomic             Coordinates (Angstroms)
 Number     Number       Type             X           Y           Z
 ---------------------------------------------------------------------
      1          6           0       -4.075539    2.785992    0.157589
      2          6           0       -4.989660    1.567871    0.302619
      3          6           0       -4.697426    0.450724   -0.723567
      4          6           0       -3.321676   -0.158427   -0.576737
      5          6           0       -3.063238   -1.183929    0.354632
      6          6           0       -1.757362   -1.668701    0.489195
      7          6           0       -0.710541   -1.174426   -0.292676
      8          6           0       -0.969903   -0.172737   -1.232618
      9          6           0       -2.262102    0.326566   -1.354981
     10         16           0        0.918624   -1.892671   -0.115238
     11          6           0        1.946938   -0.446069    0.124348
     12          6           0        1.512137    0.667114    0.853603
     13          6           0        2.377274    1.742809    1.037926
     14          6           0        3.674189    1.708295    0.523724
     15          6           0        4.123823    0.595959   -0.195617
     16          6           0        3.243691   -0.473148   -0.397749
     17          6           0        5.541648    0.527261   -0.715438
     18          6           0        6.496733   -0.127757    0.295911
     19          6           0       -4.161959   -1.772553    1.208344
     20          1           0       -3.025262    2.514466    0.305893
     21          1           0       -4.331271    3.559194    0.890367
     22          1           0       -4.166048    3.229570   -0.841845
     23          1           0       -4.897561    1.163112    1.318352
     24          1           0       -6.036503    1.877311    0.186528
     25          1           0       -4.799183    0.870160   -1.732606
     26          1           0       -5.466735   -0.324726   -0.630789
     27          1           0       -1.549459   -2.443617    1.221634
     28          1           0       -0.166808    0.214153   -1.851194
     29          1           0       -2.462175    1.108627   -2.083322
     30          1           0        0.506357    0.691669    1.258756
     31          1           0        2.038459    2.612779    1.594169
     32          1           0        4.341945    2.552639    0.676293
     33          1           0        3.568197   -1.332658   -0.979089
     34          1           0        5.563545   -0.039373   -1.654441
     35          1           0        5.897210    1.538157   -0.949509
     36          1           0        6.176256   -1.149571    0.526934
     37          1           0        7.518934   -0.169356   -0.096804
     38          1           0        6.512691    0.435034    1.235730
     39          1           0       -4.946742   -2.230247    0.593096
     40          1           0       -3.766711   -2.547654    1.871101
     41          1           0       -4.649292   -1.016013    1.833495
 ---------------------------------------------------------------------

 SCF Done:  E(UB3LYP) =  -1097.65969862     A.U. after   33 cycles
 SCF Done:  E(UB3LYP) =  -1097.65969862     a.u. after    1 cycles

 The electronic state is 2-A.
 Alpha  occ. eigenvalues --  -88.75420 -10.10822 -10.10005 -10.08643 -10.08500
 Alpha  occ. eigenvalues --  -10.08370 -10.08340 -10.08026 -10.07860 -10.07804
 Alpha  occ. eigenvalues --  -10.07780 -10.07672 -10.07662 -10.07611 -10.07555
 Alpha  occ. eigenvalues --  -10.07505 -10.07505 -10.07435 -10.06672  -7.84012
 Alpha  occ. eigenvalues --   -5.80404  -5.80016  -5.79418  -0.77716  -0.76791
 Alpha  occ. eigenvalues --   -0.71940  -0.70007  -0.68494  -0.67419  -0.65363
 Alpha  occ. eigenvalues --   -0.63471  -0.61036  -0.59879  -0.57045  -0.54560
 Alpha  occ. eigenvalues --   -0.51092  -0.50668  -0.50186  -0.48057  -0.45905
 Alpha  occ. eigenvalues --   -0.41604  -0.39715  -0.38834  -0.38202  -0.36702
 Alpha  occ. eigenvalues --   -0.35669  -0.35110  -0.34294  -0.34059  -0.33406
 Alpha  occ. eigenvalues --   -0.32896  -0.32229  -0.31507  -0.30819  -0.30635
 Alpha  occ. eigenvalues --   -0.29741  -0.28909  -0.28251  -0.27125  -0.27013
 Alpha  occ. eigenvalues --   -0.26486  -0.25713  -0.25243  -0.24801  -0.24331
 Alpha  occ. eigenvalues --   -0.23985  -0.23318  -0.22277  -0.19009  -0.16053
 Alpha  occ. eigenvalues --   -0.15704  -0.15365  -0.11371   0.03830
 Alpha virt. eigenvalues --    0.05107   0.06431   0.06871   0.06972   0.07138
 Alpha virt. eigenvalues --    0.07491   0.07646   0.07943   0.08290   0.08840
 Alpha virt. eigenvalues --    0.08955   0.09424   0.09945   0.10188   0.10345

  Beta  occ. eigenvalues --  -88.75424 -10.10770 -10.09904 -10.08594 -10.08449
  Beta  occ. eigenvalues --  -10.08361 -10.08354 -10.08034 -10.07850 -10.07813
  Beta  occ. eigenvalues --  -10.07710 -10.07675 -10.07650 -10.07548 -10.07505
  Beta  occ. eigenvalues --  -10.07465 -10.07460 -10.07403 -10.06658  -7.84015
  Beta  occ. eigenvalues --   -5.80410  -5.80020  -5.79424  -0.77603  -0.76684
  Beta  occ. eigenvalues --   -0.71818  -0.69925  -0.68416  -0.67338  -0.65272
  Beta  occ. eigenvalues --   -0.63393  -0.60951  -0.59822  -0.56966  -0.54479
  Beta  occ. eigenvalues --   -0.51006  -0.50636  -0.50120  -0.47959  -0.45785
  Beta  occ. eigenvalues --   -0.41538  -0.39655  -0.38775  -0.38150  -0.36609
  Beta  occ. eigenvalues --   -0.35603  -0.35040  -0.34243  -0.34008  -0.33369
  Beta  occ. eigenvalues --   -0.32812  -0.32172  -0.31437  -0.30746  -0.30580
  Beta  occ. eigenvalues --   -0.29706  -0.28828  -0.28199  -0.26987  -0.26838
  Beta  occ. eigenvalues --   -0.26434  -0.25636  -0.25171  -0.24725  -0.24276
  Beta  occ. eigenvalues --   -0.23943  -0.23249  -0.22215  -0.18842  -0.15847
  Beta  occ. eigenvalues --   -0.15328  -0.15065  -0.11147
  Beta virt. eigenvalues --    0.05788   0.06058   0.06902   0.07037   0.07202
  Beta virt. eigenvalues --    0.07467   0.07691   0.07896   0.08175   0.08454
  Beta virt. eigenvalues --    0.08980   0.09254   0.09601   0.10055   0.10233

 Mulliken charges and spin densities:
               1          2
     1  C   -0.194757  -0.402259
     2  C    0.563192  -0.857480
     3  C   -0.546435   0.383963
     4  C    0.403361   0.364630
     5  C   -0.313449   0.577022
     6  C   -0.260188  -0.314461
     7  C    1.067080  -0.233173
     8  C   -0.547919  -0.049175
     9  C   -0.499121  -0.132103
    10  S   -0.402064  -0.111671
    11  C    0.795895  -0.329172
    12  C    0.436937  -0.379701
    13  C   -0.243652  -0.181731
    14  C   -0.388606   0.140477
    15  C    0.271690   0.559445
    16  C   -0.998149   0.116690
    17  C   -0.482658   0.069451
    18  C    0.541869  -1.181554
    19  C    0.080906  -0.655941
    20  H    0.160482  -0.017979
    21  H   -0.063909   0.196693
    22  H    0.063432   0.066319
    23  H    0.004072   0.096592
    24  H   -0.475220   0.624995
    25  H   -0.148742   0.311776
    26  H   -0.056425   0.201348
    27  H    0.094264   0.078201
    28  H    0.126381   0.062378
    29  H    0.111872   0.031614
    30  H    0.272765  -0.054734
    31  H    0.040585   0.122680
    32  H    0.001307   0.138604
    33  H    0.095113   0.106049
    34  H   -0.051318   0.191269
    35  H   -0.229827   0.378594
    36  H   -0.007077   0.141932
    37  H   -0.324960   0.455948
    38  H    0.030648   0.104390
    39  H    0.089970   0.061378
    40  H    0.075029   0.063483
    41  H   -0.092374   0.255215
 Sum of Mulliken charges =  -1.00000   1.00000

 Dipole moment (field-independent basis, Debye):
    X=             -0.4419    Y=             -1.4406    Z=              0.4373  Tot=              1.5690
 Quadrupole moment (field-independent basis, Debye-Ang):
   XX=           -278.0072   YY=           -156.7113   ZZ=           -148.1482
   XY=             10.5350   XZ=              5.3147   YZ=             -0.7343

 Summary of Natural Population Analysis:

                                       Natural Population
                Natural  -----------------------------------------------
    Atom  No    Charge         Core      Valence    Rydberg      Total
 -----------------------------------------------------------------------
      C    1   -0.28868      0.99966     2.28301    0.00600     3.28868
      C    2   -0.18417      0.99963     2.17663    0.00791     3.18417
      C    3   -0.19980      0.99960     2.19003    0.01017     3.19980
      C    4    0.00020      0.99947     1.99034    0.00999     2.99980
      C    5   -0.00674      0.99947     1.99805    0.00923     3.00674
      C    6   -0.10545      0.99946     2.09644    0.00955     3.10545
      C    7   -0.07615      0.99939     2.06473    0.01203     3.07615
      C    8   -0.09632      0.99949     2.08784    0.00899     3.09632
      C    9   -0.09865      0.99952     2.09137    0.00776     3.09865
      S   10    0.13097      4.99948     2.84983    0.01972     7.86903
      C   11   -0.07516      0.99940     2.06411    0.01164     3.07516
      C   12   -0.10222      0.99949     2.09399    0.00874     3.10222
      C   13   -0.09786      0.99957     2.08883    0.00946     3.09786
      C   14   -0.10278      0.99951     2.09380    0.00947     3.10278
      C   15   -0.00277      0.99951     1.99343    0.00983     3.00277
      C   16   -0.11360      0.99945     2.10427    0.00987     3.11360
      C   17   -0.19831      0.99961     2.18901    0.00969     3.19831
      C   18   -0.27992      0.99966     2.27528    0.00498     3.27992
      C   19   -0.29477      0.99964     2.28987    0.00527     3.29477
      H   20    0.10107      0.00000     0.39786    0.00108     0.39893
      H   21    0.09775      0.00000     0.40155    0.00070     0.40225
      H   22    0.09383      0.00000     0.40530    0.00087     0.40617
      H   23    0.09318      0.00000     0.40561    0.00121     0.40682
      H   24    0.09647      0.00000     0.40101    0.00252     0.40353
      H   25    0.09847      0.00000     0.40040    0.00113     0.40153
      H   26    0.10309      0.00000     0.39569    0.00122     0.39691
      H   27    0.10027      0.00000     0.39845    0.00128     0.39973
      H   28    0.10480      0.00000     0.39400    0.00120     0.39520
      H   29    0.09810      0.00000     0.40072    0.00118     0.40190
      H   30    0.10723      0.00000     0.39125    0.00153     0.39277
      H   31    0.09892      0.00000     0.40026    0.00082     0.40108
      H   32    0.09800      0.00000     0.40109    0.00091     0.40200
      H   33    0.10208      0.00000     0.39669    0.00124     0.39792
      H   34    0.09928      0.00000     0.39958    0.00114     0.40072
      H   35    0.09958      0.00000     0.39914    0.00128     0.40042
      H   36    0.09711      0.00000     0.40200    0.00089     0.40289
      H   37    0.09851      0.00000     0.39994    0.00155     0.40149
      H   38    0.09666      0.00000     0.40245    0.00089     0.40334
      H   39    0.10245      0.00000     0.39667    0.00088     0.39755
      H   40    0.10015      0.00000     0.39910    0.00075     0.39985
      H   41    0.10522      0.00000     0.39362    0.00117     0.39478
 =======================================================================
   * Total *   -0.00000     22.99101    49.80326    0.20574    73.00000

 Normal termination of Gaussian 16 at Sun Dec 13 14:10:25 2020.
