 Gaussian 16, Revision A.03,

 -----------------------------------------------------------
 # opt freq B3LYP/6-31G(d) empiricaldispersion=gd3bj scf=xqc
 -----------------------------------------------------------

 ------------------------------
 CID_90741474_JID_1630_neutraal
 ------------------------------
 Symbolic Z-matrix:
 Charge =  0 Multiplicity = 1

 SCF Done:  E(RB3LYP) =  -520.321670779     A.U. after   14 cycles
 SCF Done:  E(RB3LYP) =  -520.324641561     A.U. after   12 cycles
 SCF Done:  E(RB3LYP) =  -520.324905857     A.U. after   12 cycles
 SCF Done:  E(RB3LYP) =  -520.324787401     A.U. after   12 cycles
 SCF Done:  E(RB3LYP) =  -520.325188720     A.U. after   11 cycles
 SCF Done:  E(RB3LYP) =  -520.325280257     A.U. after   11 cycles
 SCF Done:  E(RB3LYP) =  -520.325377681     A.U. after   12 cycles
 SCF Done:  E(RB3LYP) =  -520.325447640     A.U. after   11 cycles
 SCF Done:  E(RB3LYP) =  -520.325506154     A.U. after   10 cycles
 SCF Done:  E(RB3LYP) =  -520.325522775     A.U. after   11 cycles
 SCF Done:  E(RB3LYP) =  -520.325528798     A.U. after   10 cycles
 SCF Done:  E(RB3LYP) =  -520.325529157     A.U. after    8 cycles
 SCF Done:  E(RB3LYP) =  -520.325529667     A.U. after    8 cycles
 SCF Done:  E(RB3LYP) =  -520.325529882     A.U. after    7 cycles
 SCF Done:  E(RB3LYP) =  -520.325529935     A.U. after    6 cycles
 Optimization completed.
    -- Stationary point found.
 Normal termination of Gaussian 16 at Tue Dec  8 20:37:56 2020.

 --------------------------------------------------------------------
 #N Geom=AllCheck Guess=TCheck SCRF=Check GenChk RB3LYP/6-31G(d) Freq
 --------------------------------------------------------------------

 Structure from the checkpoint file:  "JID_1630.chk"
 ------------------------------
 CID_90741474_JID_1630_neutraal
 ------------------------------
 Charge =  0 Multiplicity = 1

 SCF Done:  E(RB3LYP) =  -520.325529935     A.U. after    1 cycles

  Exact polarizability: 107.408  -3.712  97.282   5.692  -1.055  85.488
 Approx polarizability: 137.164  -7.961 135.776  14.325  -6.723 126.927

                      1                      2                      3
                      A                      A                      A
 Frequencies --     35.2085                56.6142                75.6846
 Red. masses --      4.1554                 2.7220                 4.4575
 Frc consts  --      0.0030                 0.0051                 0.0150
 IR Inten    --      1.6153                 5.5797                 1.8622

                      4                      5                      6
                      A                      A                      A
 Frequencies --    112.2272               132.4870               165.5659
 Red. masses --      3.1640                 2.7280                 1.5835
 Frc consts  --      0.0235                 0.0282                 0.0256
 IR Inten    --      1.0044                 4.3752                 0.6733

                      7                      8                      9
                      A                      A                      A
 Frequencies --    175.5779               189.0491               200.1131
 Red. masses --      2.1786                 1.5725                 1.2671
 Frc consts  --      0.0396                 0.0331                 0.0299
 IR Inten    --      1.0882                 0.9472                 0.8707

                     10                     11                     12
                      A                      A                      A
 Frequencies --    231.0674               242.6527               269.2270
 Red. masses --      1.3304                 1.7118                 2.1387
 Frc consts  --      0.0419                 0.0594                 0.0913
 IR Inten    --      0.4601                 4.0729                 0.1139

                     13                     14                     15
                      A                      A                      A
 Frequencies --    304.9711               327.1065               351.0927
 Red. masses --      1.8277                 2.4214                 3.1530
 Frc consts  --      0.1002                 0.1527                 0.2290
 IR Inten    --      0.7046                 0.7959                 6.9763

                     16                     17                     18
                      A                      A                      A
 Frequencies --    393.6173               414.0147               515.7555
 Red. masses --      3.1819                 1.9895                 3.8014
 Frc consts  --      0.2905                 0.2009                 0.5958
 IR Inten    --      2.7974                 2.5503                 9.4195

                     19                     20                     21
                      A                      A                      A
 Frequencies --    584.7037               610.0254               647.8975
 Red. masses --      1.3889                 3.1104                 3.2495
 Frc consts  --      0.2798                 0.6820                 0.8037
 IR Inten    --     65.6286                 4.3448                19.1344

                     22                     23                     24
                      A                      A                      A
 Frequencies --    739.7744               776.4077               840.6160
 Red. masses --      3.3528                 3.4742                 2.5105
 Frc consts  --      1.0811                 1.2339                 1.0452
 IR Inten    --      9.3050                 9.3540                 5.8224

                     25                     26                     27
                      A                      A                      A
 Frequencies --    927.7361               952.8512               977.5032
 Red. masses --      2.1563                 2.1013                 1.4568
 Frc consts  --      1.0935                 1.1241                 0.8201
 IR Inten    --      4.6271                 8.5516                 5.1778

                     28                     29                     30
                      A                      A                      A
 Frequencies --    997.7633              1032.0269              1080.6708
 Red. masses --      1.4524                 1.6322                 2.5203
 Frc consts  --      0.8519                 1.0242                 1.7342
 IR Inten    --      1.3098                54.8196                17.7478

                     31                     32                     33
                      A                      A                      A
 Frequencies --   1117.1625              1139.3750              1145.6336
 Red. masses --      2.3962                 1.7544                 2.1941
 Frc consts  --      1.7620                 1.3419                 1.6967
 IR Inten    --      9.9084                 5.0535                88.2968

                     34                     35                     36
                      A                      A                      A
 Frequencies --   1156.5278              1180.1502              1184.5873
 Red. masses --      1.2791                 2.2128                 1.5695
 Frc consts  --      1.0080                 1.8158                 1.2976
 IR Inten    --      6.8750                12.4638                10.1111

                     37                     38                     39
                      A                      A                      A
 Frequencies --   1204.5344              1210.5760              1239.3472
 Red. masses --      2.0006                 2.0743                 1.6295
 Frc consts  --      1.7102                 1.7911                 1.4746
 IR Inten    --     40.4462                 7.5375                20.7997

                     40                     41                     42
                      A                      A                      A
 Frequencies --   1287.6679              1315.2037              1352.2560
 Red. masses --      1.2097                 1.3122                 1.5379
 Frc consts  --      1.1818                 1.3373                 1.6569
 IR Inten    --      2.6810                 3.2248                33.5729

                     43                     44                     45
                      A                      A                      A
 Frequencies --   1375.0760              1384.9580              1400.8197
 Red. masses --      1.9335                 1.5322                 1.4269
 Frc consts  --      2.1540                 1.7315                 1.6497
 IR Inten    --     49.1853                64.6755                 9.0592

                     46                     47                     48
                      A                      A                      A
 Frequencies --   1425.7104              1441.7907              1448.7023
 Red. masses --      1.2598                 1.2514                 1.2254
 Frc consts  --      1.5088                 1.5327                 1.5152
 IR Inten    --      8.8065                10.6731                10.4687

                     49                     50                     51
                      A                      A                      A
 Frequencies --   1487.5840              1501.1908              1504.5079
 Red. masses --      1.5093                 1.2914                 1.1652
 Frc consts  --      1.9678                 1.7146                 1.5539
 IR Inten    --     13.2487                19.1173                 0.1979

                     52                     53                     54
                      A                      A                      A
 Frequencies --   1519.2530              1521.2610              1528.2312
 Red. masses --      1.0537                 1.0744                 1.0544
 Frc consts  --      1.4329                 1.4649                 1.4510
 IR Inten    --      2.9067                 4.5677                16.3920

                     55                     56                     57
                      A                      A                      A
 Frequencies --   1529.6387              1536.3475              1536.8488
 Red. masses --      1.0658                 1.0591                 1.0609
 Frc consts  --      1.4693                 1.4728                 1.4764
 IR Inten    --      9.6706                13.9509                10.1141

                     58                     59                     60
                      A                      A                      A
 Frequencies --   1542.8074              1554.1097              1555.6862
 Red. masses --      1.0583                 1.0838                 1.0741
 Frc consts  --      1.4842                 1.5423                 1.5316
 IR Inten    --      8.4756                10.4399                 9.2665

                     61                     62                     63
                      A                      A                      A
 Frequencies --   1764.3237              2982.2598              2998.2737
 Red. masses --      6.9167                 1.0634                 1.0485
 Frc consts  --     12.6854                 5.5725                 5.5536
 IR Inten    --    301.1942                46.7454               110.1099

                     64                     65                     66
                      A                      A                      A
 Frequencies --   3031.9005              3039.5500              3048.9391
 Red. masses --      1.0815                 1.0492                 1.0924
 Frc consts  --      5.8575                 5.7113                 5.9833
 IR Inten    --     28.4268                54.9165                44.0731

                     67                     68                     69
                      A                      A                      A
 Frequencies --   3056.5746              3061.4120              3069.9069
 Red. masses --      1.0364                 1.0374                 1.0945
 Frc consts  --      5.7048                 5.7287                 6.0775
 IR Inten    --     23.8400                31.5839                29.2208

                     70                     71                     72
                      A                      A                      A
 Frequencies --   3105.8369              3114.5790              3118.3319
 Red. masses --      1.0864                 1.0905                 1.1010
 Frc consts  --      6.1744                 6.2325                 6.3080
 IR Inten    --      0.1802                22.0016                44.4690

                     73                     74                     75
                      A                      A                      A
 Frequencies --   3124.9941              3134.7509              3136.8486
 Red. masses --      1.1002                 1.1002                 1.1002
 Frc consts  --      6.3305                 6.3700                 6.3784
 IR Inten    --     12.2360                35.9192                46.4757

                     76                     77                     78
                      A                      A                      A
 Frequencies --   3139.3334              3157.2578              3592.9142
 Red. masses --      1.1027                 1.1008                 1.0757
 Frc consts  --      6.4028                 6.4652                 8.1815
 IR Inten    --     15.5636                18.7478                19.4689

 - Thermochemistry -
 -------------------
 Temperature   298.150 Kelvin.  Pressure   1.00000 Atm.
 Atom     1 has atomic number  6 and mass  12.00000

 Molecular mass:   159.12593 amu.
 Principal axes and moments of inertia in atomic units:
                           1         2         3
     Eigenvalues --  1311.562712214.306302832.29724
           X            0.99926  -0.03845   0.00263
           Y            0.03835   0.99880   0.03030
           Z           -0.00379  -0.03017   0.99954
 This molecule is an asymmetric top.
 Rotational symmetry number  1.
 Warning -- assumption of classical behavior for rotation
           may cause significant error
 Rotational temperatures (Kelvin)      0.06604     0.03912     0.03058
 Rotational constants (GHZ):           1.37602     0.81504     0.63720
 Zero-point vibrational energy     660132.5 (Joules/Mol)
                                  157.77546 (Kcal/Mol)
 Warning -- explicit consideration of  20 degrees of freedom as
           vibrations may cause significant error
 Vibrational temperatures:     50.66    81.46   108.89   161.47   190.62
          (Kelvin)            238.21   252.62   272.00   287.92   332.45
                              349.12   387.36   438.79   470.63   505.14
                              566.33   595.67   742.06   841.26   877.69
                              932.18  1064.37  1117.08  1209.46  1334.81
                             1370.94  1406.41  1435.56  1484.86  1554.84
                             1607.35  1639.31  1648.31  1663.99  1697.97
                             1704.36  1733.06  1741.75  1783.14  1852.67
                             1892.28  1945.59  1978.43  1992.65  2015.47
                             2051.28  2074.42  2084.36  2140.30  2159.88
                             2164.65  2185.87  2188.76  2198.78  2200.81
                             2210.46  2211.18  2219.76  2236.02  2238.29
                             2538.47  4290.81  4313.85  4362.23  4373.23
                             4386.74  4397.73  4404.69  4416.91  4468.61
                             4481.18  4486.58  4496.17  4510.21  4513.23
                             4516.80  4542.59  5169.40

 Zero-point correction=                           0.251431 (Hartree/Particle)
 Thermal correction to Energy=                    0.265166
 Thermal correction to Enthalpy=                  0.266110
 Thermal correction to Gibbs Free Energy=         0.211041
 Sum of electronic and zero-point Energies=           -520.074099
 Sum of electronic and thermal Energies=              -520.060364
 Sum of electronic and thermal Enthalpies=            -520.059420
 Sum of electronic and thermal Free Energies=         -520.114489

                     E (Thermal)             CV                S
                      KCal/Mol        Cal/Mol-Kelvin    Cal/Mol-Kelvin
 Total                  166.394             48.736            115.903
 Electronic               0.000              0.000              0.000
 Translational            0.889              2.981             41.103
 Rotational               0.889              2.981             30.487
 Vibrational            164.617             42.774             44.313
 Vibration     1          0.594              1.982              5.512
 Vibration     2          0.596              1.975              4.572
 Vibration     3          0.599              1.965              4.000
 Vibration     4          0.607              1.939              3.230
 Vibration     5          0.613              1.921              2.910
 Vibration     6          0.624              1.885              2.485
 Vibration     7          0.628              1.872              2.375
 Vibration     8          0.633              1.855              2.237
 Vibration     9          0.638              1.840              2.132
 Vibration    10          0.653              1.793              1.871
 Vibration    11          0.659              1.775              1.783
 Vibration    12          0.674              1.730              1.601
 Vibration    13          0.696              1.664              1.389
 Vibration    14          0.711              1.621              1.274
 Vibration    15          0.728              1.573              1.161
 Vibration    16          0.761              1.484              0.986
 Vibration    17          0.778              1.440              0.913
 Vibration    18          0.871              1.215              0.620
 Vibration    19          0.942              1.064              0.477
 Vibration    20          0.969              1.011              0.433

 Optimization completed.
    -- Stationary point found.
 Normal termination of Gaussian 16 at Tue Dec  8 20:44:58 2020.

 ----------------------------------------------------------------------
 # B3LYP/6-311++G(d,p) empiricaldispersion=gd3bj scf=xqc pop=npa geom=c
 heck
 ----------------------------------------------------------------------

 --------------------------------------
 CID_90741474_JID_1630_Energie_neutraal
 --------------------------------------
 Structure from the checkpoint file:  "JID_1630.chk"
 Charge =  0 Multiplicity = 1

 SCF Done:  E(RB3LYP) =  -520.484217246     A.U. after   14 cycles
 Normal termination of Gaussian 16 at Tue Dec  8 20:48:33 2020.

 ----------------------------------------------------------------------
 # B3LYP/6-311++G(d,p) empiricaldispersion=gd3bj scf=xqc pop=npa geom=c
 heck
 ----------------------------------------------------------------------

 ------------------------------------
 CID_90741474_JID_1630_Energie_kation
 ------------------------------------
 Structure from the checkpoint file:  "JID_1630.chk"
 Charge =  1 Multiplicity = 2

 SCF Done:  E(UB3LYP) =  -520.163640388     A.U. after   33 cycles
 SCF Done:  E(UB3LYP) =  -520.163640390     a.u. after    2 cycles
 Normal termination of Gaussian 16 at Tue Dec  8 21:06:46 2020.
 Gaussian 16:  ES64L-G16RevA.03 25-Dec-2016

 ----------------------------------------------------------------------
 # B3LYP/6-311++G(d,p) empiricaldispersion=gd3bj scf=xqc pop=npa geom=c
 heck
 ----------------------------------------------------------------------

 -----------------------------------
 CID_90741474_JID_1630_Energie_anion
 -----------------------------------
 Structure from the checkpoint file:  "JID_1630.chk"
 Charge = -1 Multiplicity = 2

                         Standard orientation:
 ---------------------------------------------------------------------
 Center     Atomic      Atomic             Coordinates (Angstroms)
 Number     Number       Type             X           Y           Z
 ---------------------------------------------------------------------
      1          6           0        0.883910    2.431940   -0.186345
      2          6           0        0.315651    1.044813   -0.511867
      3          6           0        1.430474    0.102638   -0.978751
      4          8           0        2.383334   -0.031456    0.060669
      5          6           0        3.014919   -1.296835    0.083975
      6          6           0       -0.430934    0.427708    0.702078
      7          6           0       -1.507506    1.343206    1.311368
      8          6           0       -0.926287   -0.988060    0.390132
      9          8           0       -0.352949   -1.971071    0.854841
     10          7           0       -1.985918   -1.175025   -0.462992
     11          6           0       -2.919007   -0.219583   -1.033559
     12          1           0        1.570248    2.373857    0.663962
     13          1           0        0.094118    3.150980    0.051180
     14          1           0        1.445051    2.823433   -1.042574
     15          1           0       -0.380502    1.147636   -1.356410
     16          1           0        1.009976   -0.877395   -1.242497
     17          1           0        1.912127    0.509604   -1.883939
     18          1           0        2.278754   -2.096831    0.239445
     19          1           0        3.575829   -1.491738   -0.844281
     20          1           0        3.717729   -1.285237    0.921480
     21          1           0        0.330412    0.249692    1.465554
     22          1           0       -2.167736    1.788033    0.561120
     23          1           0       -2.130152    0.791866    2.024618
     24          1           0       -1.035681    2.164676    1.857895
     25          1           0       -2.223870   -2.155575   -0.547631
     26          1           0       -3.419890   -0.693844   -1.882015
     27          1           0       -3.686971    0.108833   -0.320881
     28          1           0       -2.398423    0.662439   -1.410347
 ---------------------------------------------------------------------

 SCF Done:  E(UB3LYP) =  -520.471499935     A.U. after   32 cycles

 The electronic state is 2-A.
 Alpha  occ. eigenvalues --  -19.02619 -18.97861 -14.22790 -10.16300 -10.11568
 Alpha  occ. eigenvalues --  -10.11274 -10.09142 -10.07896 -10.07680 -10.06168
 Alpha  occ. eigenvalues --  -10.05730  -0.93981  -0.92946  -0.80931  -0.71919
 Alpha  occ. eigenvalues --   -0.64828  -0.60611  -0.59878  -0.56643  -0.53760
 Alpha  occ. eigenvalues --   -0.48251  -0.45961  -0.39631  -0.38939  -0.38426
 Alpha  occ. eigenvalues --   -0.37447  -0.35516  -0.34526  -0.32948  -0.32795
 Alpha  occ. eigenvalues --   -0.31663  -0.30234  -0.29520  -0.28996  -0.27874
 Alpha  occ. eigenvalues --   -0.27017  -0.26469  -0.24625  -0.23492  -0.22623
 Alpha  occ. eigenvalues --   -0.21256  -0.16181  -0.14944  -0.14529   0.04604
 Alpha virt. eigenvalues --    0.07050   0.07420   0.08047   0.09209   0.09641
 Alpha virt. eigenvalues --    0.10341   0.10647   0.11013   0.11494   0.12397
 Alpha virt. eigenvalues --    0.12775   0.13232   0.13384   0.14024   0.14294

  Beta  occ. eigenvalues --  -19.02616 -18.97854 -14.22773 -10.16295 -10.11563
  Beta  occ. eigenvalues --  -10.11263 -10.09064 -10.07881 -10.07676 -10.06136
  Beta  occ. eigenvalues --  -10.05707  -0.93974  -0.92929  -0.80893  -0.71891
  Beta  occ. eigenvalues --   -0.64799  -0.60576  -0.59771  -0.56600  -0.53712
  Beta  occ. eigenvalues --   -0.48204  -0.45923  -0.39590  -0.38921  -0.38321
  Beta  occ. eigenvalues --   -0.37426  -0.35485  -0.34481  -0.32911  -0.32767
  Beta  occ. eigenvalues --   -0.31638  -0.30201  -0.29451  -0.28962  -0.27843
  Beta  occ. eigenvalues --   -0.26982  -0.26430  -0.24603  -0.23470  -0.22586
  Beta  occ. eigenvalues --   -0.21231  -0.16169  -0.14921  -0.14497
  Beta virt. eigenvalues --    0.06927   0.07674   0.08368   0.08550   0.09843
  Beta virt. eigenvalues --    0.10160   0.10725   0.11250   0.11460   0.11631
  Beta virt. eigenvalues --    0.12822   0.13053   0.13526   0.13659   0.14475

 Mulliken charges and spin densities:
               1          2
     1  C    0.454876  -1.086143
     2  C   -0.419666   0.861302
     3  C   -0.397568  -0.274170
     4  O   -0.091782   0.012662
     5  C   -0.162603  -0.112463
     6  C   -0.060558   0.315388
     7  C    1.083230  -1.873244
     8  C   -0.273124  -0.053940
     9  O   -0.328181   0.020156
    10  N   -0.561105   0.347541
    11  C    1.965995  -2.311888
    12  H    0.120503   0.047517
    13  H   -0.254220   0.398960
    14  H   -0.121660   0.266773
    15  H   -0.172562   0.325321
    16  H    0.160920   0.029118
    17  H   -0.252765   0.410012
    18  H    0.159576   0.019165
    19  H    0.004279   0.100417
    20  H    0.112176   0.007044
    21  H    0.323445  -0.040466
    22  H   -0.024770   0.200762
    23  H   -0.099184   0.261345
    24  H   -0.021900   0.164129
    25  H   -0.023886   0.337076
    26  H   -1.176705   1.341712
    27  H   -0.584841   0.757902
    28  H   -0.357920   0.528013
 Sum of Mulliken charges =  -1.00000   1.00000

 Dipole moment (field-independent basis, Debye):
    X=              7.8036    Y=             -0.7443    Z=              3.8168  Tot=              8.7188
 Quadrupole moment (field-independent basis, Debye-Ang):
   XX=           -133.1934   YY=           -112.1338   ZZ=           -108.5503
   XY=             -3.4839   XZ=            -10.9380   YZ=              2.1384

 Summary of Natural Population Analysis:

                                       Natural Population
                Natural  -----------------------------------------------
    Atom  No    Charge         Core      Valence    Rydberg      Total
 -----------------------------------------------------------------------
      C    1   -0.28679      0.99965     2.28032    0.00683     3.28679
      C    2   -0.11762      0.99958     2.10580    0.01225     3.11762
      C    3   -0.00627      0.99955     1.99351    0.01321     3.00627
      O    4   -0.30473      0.99988     3.29574    0.00911     4.30473
      C    5   -0.09750      0.99962     2.08995    0.00793     3.09750
      C    6   -0.15164      0.99954     2.14064    0.01147     3.15164
      C    7   -0.28636      0.99965     2.28087    0.00584     3.28636
      C    8    0.34924      0.99962     1.62592    0.02522     2.65076
      O    9   -0.33442      0.99988     3.32886    0.00568     4.33442
      N   10   -0.31793      0.99967     2.80653    0.01172     3.81793
      C   11   -0.17980      0.99964     2.17143    0.00874     3.17980
      H   12    0.10116      0.00000     0.39751    0.00132     0.39884
      H   13    0.10137      0.00000     0.39773    0.00090     0.39863
      H   14    0.10035      0.00000     0.39877    0.00089     0.39965
      H   15    0.10056      0.00000     0.39685    0.00258     0.39944
      H   16    0.08831      0.00000     0.41007    0.00162     0.41169
      H   17    0.08126      0.00000     0.41759    0.00115     0.41874
      H   18    0.09183      0.00000     0.40695    0.00122     0.40817
      H   19    0.07263      0.00000     0.42599    0.00138     0.42737
      H   20    0.08515      0.00000     0.41403    0.00082     0.41485
      H   21    0.11371      0.00000     0.38434    0.00195     0.38629
      H   22    0.10250      0.00000     0.39609    0.00141     0.39750
      H   23    0.10232      0.00000     0.39665    0.00102     0.39768
      H   24    0.10110      0.00000     0.39806    0.00084     0.39890
      H   25    0.19386      0.00000     0.30369    0.00246     0.30614
      H   26    0.10559      0.00000     0.38907    0.00535     0.39441
      H   27    0.09436      0.00000     0.40245    0.00319     0.40564
      H   28    0.09778      0.00000     0.39930    0.00292     0.40222
 =======================================================================
   * Total *   -0.00000     10.99627    32.85472    0.14902    44.00000

 Normal termination of Gaussian 16 at Tue Dec  8 21:17:20 2020.
