 Gaussian 16, Revision A.03,

 -----------------------------------------------------------
 # opt freq B3LYP/6-31G(d) empiricaldispersion=gd3bj scf=xqc
 -----------------------------------------------------------

 ------------------------------
 CID_87383882_JID_2016_neutraal
 ------------------------------
 Symbolic Z-matrix:
 Charge =  0 Multiplicity = 1

 SCF Done:  E(RB3LYP) =  -595.556942263     A.U. after   14 cycles
 SCF Done:  E(RB3LYP) =  -595.558545156     A.U. after   12 cycles
 SCF Done:  E(RB3LYP) =  -595.558704938     A.U. after   12 cycles
 SCF Done:  E(RB3LYP) =  -595.559138492     A.U. after   12 cycles
 SCF Done:  E(RB3LYP) =  -595.560312474     A.U. after   12 cycles
 SCF Done:  E(RB3LYP) =  -595.560439933     A.U. after   12 cycles
 SCF Done:  E(RB3LYP) =  -595.560728542     A.U. after   12 cycles
 SCF Done:  E(RB3LYP) =  -595.561063748     A.U. after   11 cycles
 SCF Done:  E(RB3LYP) =  -595.561122516     A.U. after   11 cycles
 SCF Done:  E(RB3LYP) =  -595.561209561     A.U. after   10 cycles
 SCF Done:  E(RB3LYP) =  -595.561250125     A.U. after    7 cycles
 SCF Done:  E(RB3LYP) =  -595.561250348     A.U. after    7 cycles
 SCF Done:  E(RB3LYP) =  -595.561250628     A.U. after    8 cycles
 SCF Done:  E(RB3LYP) =  -595.561250761     A.U. after    8 cycles
 SCF Done:  E(RB3LYP) =  -595.561250802     A.U. after    7 cycles
 Optimization completed.
    -- Stationary point found.
 Normal termination of Gaussian 16 at Wed Dec  9 16:50:17 2020.

 --------------------------------------------------------------------
 #N Geom=AllCheck Guess=TCheck SCRF=Check GenChk RB3LYP/6-31G(d) Freq
 --------------------------------------------------------------------

 Structure from the checkpoint file:  "JID_2016.chk"
 ------------------------------
 CID_87383882_JID_2016_neutraal
 ------------------------------
 Charge =  0 Multiplicity = 1

 SCF Done:  E(RB3LYP) =  -595.561250802     A.U. after    1 cycles

  Exact polarizability: 107.414  -1.254  98.415  -0.850  -0.884  91.412
 Approx polarizability: 131.556  -0.199 148.004  -4.223   1.720 139.633

                      1                      2                      3
                      A                      A                      A
 Frequencies --     28.4739                38.5048                80.2056
 Red. masses --      3.5216                 6.7238                 2.9256
 Frc consts  --      0.0017                 0.0059                 0.0111
 IR Inten    --      0.3069                 1.1560                 0.1978

                      4                      5                      6
                      A                      A                      A
 Frequencies --     85.4166               155.2567               208.2981
 Red. masses --      5.3183                 3.8046                 1.7506
 Frc consts  --      0.0229                 0.0540                 0.0448
 IR Inten    --      0.6960                 1.1477                 1.8427

                      7                      8                      9
                      A                      A                      A
 Frequencies --    221.9394               228.4998               252.7491
 Red. masses --      1.0683                 3.7743                 2.0186
 Frc consts  --      0.0310                 0.1161                 0.0760
 IR Inten    --      0.0463                 0.6270                 5.1526

                     10                     11                     12
                      A                      A                      A
 Frequencies --    267.6420               282.5115               313.8605
 Red. masses --      1.5413                 2.1129                 2.7055
 Frc consts  --      0.0651                 0.0994                 0.1570
 IR Inten    --      0.8607                 1.8619                 9.3684

                     13                     14                     15
                      A                      A                      A
 Frequencies --    336.3942               357.4323               371.8582
 Red. masses --      3.2076                 3.2140                 2.4686
 Frc consts  --      0.2139                 0.2419                 0.2011
 IR Inten    --      1.3407                 0.9230                 3.2845

                     16                     17                     18
                      A                      A                      A
 Frequencies --    380.5106               398.4388               445.1873
 Red. masses --      1.4346                 2.1587                 2.5282
 Frc consts  --      0.1224                 0.2019                 0.2952
 IR Inten    --     37.5917                 3.1050                 2.7707

                     19                     20                     21
                      A                      A                      A
 Frequencies --    486.7413               547.5840               593.4729
 Red. masses --      3.0115                 3.8763                 1.9855
 Frc consts  --      0.4204                 0.6848                 0.4120
 IR Inten    --      1.8064                24.4194                11.0455

                     22                     23                     24
                      A                      A                      A
 Frequencies --    654.3887               661.5435               750.3758
 Red. masses --      1.3078                 1.2537                 3.5951
 Frc consts  --      0.3300                 0.3233                 1.1927
 IR Inten    --    186.0917               138.8345                27.6257

                     25                     26                     27
                      A                      A                      A
 Frequencies --    775.7300               817.1992               836.3889
 Red. masses --      3.8805                 2.2673                 3.3179
 Frc consts  --      1.3758                 0.8921                 1.3675
 IR Inten    --     35.1298                 2.5040                16.7676

                     28                     29                     30
                      A                      A                      A
 Frequencies --    873.9131               920.5587               941.5382
 Red. masses --      1.9580                 1.7984                 1.2801
 Frc consts  --      0.8811                 0.8979                 0.6686
 IR Inten    --     88.3599                61.0436                 6.0416

                     31                     32                     33
                      A                      A                      A
 Frequencies --    947.4726               978.7499              1004.2986
 Red. masses --      1.7532                 1.4676                 1.3373
 Frc consts  --      0.9273                 0.8283                 0.7947
 IR Inten    --     10.9981                 0.1523                13.5422

                     34                     35                     36
                      A                      A                      A
 Frequencies --   1007.3591              1050.1787              1090.8088
 Red. masses --      2.6187                 2.4184                 2.5353
 Frc consts  --      1.5657                 1.5715                 1.7774
 IR Inten    --     20.1076                34.2235                 1.4979

                     37                     38                     39
                      A                      A                      A
 Frequencies --   1112.6279              1151.1691              1166.1662
 Red. masses --      2.0901                 2.1244                 2.0920
 Frc consts  --      1.5244                 1.6587                 1.6762
 IR Inten    --     29.0490                16.1304                 7.7370

                     40                     41                     42
                      A                      A                      A
 Frequencies --   1177.3851              1198.7620              1207.8899
 Red. masses --      2.2434                 1.9328                 1.7162
 Frc consts  --      1.8323                 1.6364                 1.4753
 IR Inten    --    298.1052                 3.6976                10.4232

                     43                     44                     45
                      A                      A                      A
 Frequencies --   1229.4508              1286.2503              1306.9832
 Red. masses --      1.6620                 1.4128                 1.3247
 Frc consts  --      1.4802                 1.3772                 1.3332
 IR Inten    --     14.4205                13.0067                 2.5206

                     46                     47                     48
                      A                      A                      A
 Frequencies --   1336.8140              1349.7515              1369.2782
 Red. masses --      1.4725                 1.3251                 1.3277
 Frc consts  --      1.5504                 1.4224                 1.4667
 IR Inten    --      7.0828                18.5798                 2.5204

                     49                     50                     51
                      A                      A                      A
 Frequencies --   1384.8121              1401.8847              1417.6467
 Red. masses --      1.4070                 1.3401                 1.4099
 Frc consts  --      1.5897                 1.5518                 1.6695
 IR Inten    --      0.6663                 4.1026                 2.3697

                     52                     53                     54
                      A                      A                      A
 Frequencies --   1423.7545              1431.4387              1443.4671
 Red. masses --      1.9549                 1.2750                 1.2363
 Frc consts  --      2.3347                 1.5393                 1.5177
 IR Inten    --     43.0251                 3.5546                 9.5116

                     55                     56                     57
                      A                      A                      A
 Frequencies --   1451.1385              1493.8387              1516.6538
 Red. masses --      1.2192                 1.1741                 1.0527
 Frc consts  --      1.5126                 1.5437                 1.4267
 IR Inten    --      1.6204                40.7912                 2.2792

                     58                     59                     60
                      A                      A                      A
 Frequencies --   1524.8466              1526.4061              1537.6697
 Red. masses --      1.0534                 1.0454                 1.0612
 Frc consts  --      1.4431                 1.4351                 1.4783
 IR Inten    --      6.8452                 7.0852                 0.7161

                     61                     62                     63
                      A                      A                      A
 Frequencies --   1543.7365              1557.1897              1672.7963
 Red. masses --      1.0427                 1.0464                 1.0917
 Frc consts  --      1.4640                 1.4950                 1.7999
 IR Inten    --     18.0495                 2.1641                40.0847

                     64                     65                     66
                      A                      A                      A
 Frequencies --   1801.8538              2982.4506              3010.4498
 Red. masses --      8.7337                 1.0811                 1.0842
 Frc consts  --     16.7067                 5.6660                 5.7890
 IR Inten    --    218.8228                16.9846                25.8997

                     67                     68                     69
                      A                      A                      A
 Frequencies --   3038.1084              3044.4363              3068.4546
 Red. masses --      1.0395                 1.0401                 1.0366
 Frc consts  --      5.6532                 5.6797                 5.7503
 IR Inten    --     20.5111                32.9859                18.6741

                     70                     71                     72
                      A                      A                      A
 Frequencies --   3094.5736              3099.8638              3105.7957
 Red. masses --      1.0865                 1.0995                 1.0858
 Frc consts  --      6.1300                 6.2251                 6.1710
 IR Inten    --     10.7693                 1.0105                28.7759

                     73                     74                     75
                      A                      A                      A
 Frequencies --   3107.1948              3123.4873              3129.3993
 Red. masses --      1.0980                 1.0995                 1.1008
 Frc consts  --      6.2460                 6.3199                 6.3515
 IR Inten    --     77.7807                25.2883                41.0010

                     76                     77                     78
                      A                      A                      A
 Frequencies --   3138.2097              3143.8911              3478.7307
 Red. masses --      1.1015                 1.1002                 1.0483
 Frc consts  --      6.3912                 6.4072                 7.4745
 IR Inten    --     26.3570                28.2754                 2.9524

                     79                     80                     81
                      A                      A                      A
 Frequencies --   3574.0818              3656.8025              3665.7283
 Red. masses --      1.0943                 1.0651                 1.0638
 Frc consts  --      8.2358                 8.3917                 8.4223
 IR Inten    --      3.9483               118.0898                15.1366

 - Thermochemistry -
 -------------------
 Temperature   298.150 Kelvin.  Pressure   1.00000 Atm.
 Atom     1 has atomic number  6 and mass  12.00000

 Molecular mass:   175.12084 amu.
 Principal axes and moments of inertia in atomic units:
                           1         2         3
     Eigenvalues --  1411.094963073.613833261.19724
           X            0.99982  -0.00015   0.01892
           Y            0.00114   0.99862  -0.05241
           Z           -0.01888   0.05242   0.99845
 This molecule is an asymmetric top.
 Rotational symmetry number  1.
 Warning -- assumption of classical behavior for rotation
           may cause significant error
 Rotational temperatures (Kelvin)      0.06138     0.02818     0.02656
 Rotational constants (GHZ):           1.27897     0.58717     0.55340
 Zero-point vibrational energy     675141.2 (Joules/Mol)
                                  161.36263 (Kcal/Mol)
 Warning -- explicit consideration of  21 degrees of freedom as
           vibrations may cause significant error
 Vibrational temperatures:     40.97    55.40   115.40   122.90   223.38
          (Kelvin)            299.69   319.32   328.76   363.65   385.08
                              406.47   451.58   484.00   514.27   535.02
                              547.47   573.26   640.53   700.31   787.85
                              853.88   941.52   951.81  1079.62  1116.10
                             1175.77  1203.38  1257.37  1324.48  1354.66
                             1363.20  1408.20  1444.96  1449.37  1510.97
                             1569.43  1600.82  1656.28  1677.85  1693.99
                             1724.75  1737.88  1768.91  1850.63  1880.46
                             1923.38  1941.99  1970.09  1992.44  2017.00
                             2039.68  2048.47  2059.52  2076.83  2087.86
                             2149.30  2182.13  2193.91  2196.16  2212.36
                             2221.09  2240.45  2406.78  2592.47  4291.08
                             4331.37  4371.16  4380.26  4414.82  4452.40
                             4460.01  4468.55  4470.56  4494.00  4502.51
                             4515.18  4523.36  5005.12  5142.31  5261.32
                             5274.17

 Zero-point correction=                           0.257148 (Hartree/Particle)
 Thermal correction to Energy=                    0.271051
 Thermal correction to Enthalpy=                  0.271995
 Thermal correction to Gibbs Free Energy=         0.216348
 Sum of electronic and zero-point Energies=           -595.304103
 Sum of electronic and thermal Energies=              -595.290199
 Sum of electronic and thermal Enthalpies=            -595.289255
 Sum of electronic and thermal Free Energies=         -595.344903

                     E (Thermal)             CV                S
                      KCal/Mol        Cal/Mol-Kelvin    Cal/Mol-Kelvin
 Total                  170.087             52.112            117.121
 Electronic               0.000              0.000              0.000
 Translational            0.889              2.981             41.388
 Rotational               0.889              2.981             31.026
 Vibrational            168.310             46.150             44.707
 Vibration     1          0.593              1.984              5.933
 Vibration     2          0.594              1.981              5.335
 Vibration     3          0.600              1.963              3.886
 Vibration     4          0.601              1.959              3.762
 Vibration     5          0.620              1.897              2.607
 Vibration     6          0.642              1.828              2.059
 Vibration     7          0.648              1.808              1.943
 Vibration     8          0.651              1.798              1.891
 Vibration     9          0.664              1.758              1.711
 Vibration    10          0.673              1.733              1.611
 Vibration    11          0.682              1.706              1.518
 Vibration    12          0.702              1.647              1.342
 Vibration    13          0.717              1.603              1.229
 Vibration    14          0.733              1.560              1.133
 Vibration    15          0.744              1.530              1.072
 Vibration    16          0.750              1.512              1.037
 Vibration    17          0.765              1.473              0.968
 Vibration    18          0.805              1.372              0.810
 Vibration    19          0.843              1.279              0.692
 Vibration    20          0.903              1.145              0.549
 Vibration    21          0.951              1.046              0.461

 Optimization completed.
    -- Stationary point found.
 Normal termination of Gaussian 16 at Wed Dec  9 16:57:28 2020.

 ----------------------------------------------------------------------
 # B3LYP/6-311++G(d,p) empiricaldispersion=gd3bj scf=xqc pop=npa geom=c
 heck
 ----------------------------------------------------------------------

 --------------------------------------
 CID_87383882_JID_2016_Energie_neutraal
 --------------------------------------
 Structure from the checkpoint file:  "JID_2016.chk"
 Charge =  0 Multiplicity = 1

 SCF Done:  E(RB3LYP) =  -595.759725868     A.U. after   14 cycles
 Normal termination of Gaussian 16 at Wed Dec  9 17:00:15 2020.

 ----------------------------------------------------------------------
 # B3LYP/6-311++G(d,p) empiricaldispersion=gd3bj scf=xqc pop=npa geom=c
 heck
 ----------------------------------------------------------------------

 ------------------------------------
 CID_87383882_JID_2016_Energie_kation
 ------------------------------------
 Structure from the checkpoint file:  "JID_2016.chk"
 Charge =  1 Multiplicity = 2

 SCF Done:  E(UB3LYP) =  -595.425383965     A.U. after   23 cycles
 Normal termination of Gaussian 16 at Wed Dec  9 17:06:26 2020.
 Gaussian 16:  ES64L-G16RevA.03 25-Dec-2016

 ----------------------------------------------------------------------
 # B3LYP/6-311++G(d,p) empiricaldispersion=gd3bj scf=xqc pop=npa geom=c
 heck
 ----------------------------------------------------------------------

 -----------------------------------
 CID_87383882_JID_2016_Energie_anion
 -----------------------------------
 Structure from the checkpoint file:  "JID_2016.chk"
 Charge = -1 Multiplicity = 2

                         Standard orientation:
 ---------------------------------------------------------------------
 Center     Atomic      Atomic             Coordinates (Angstroms)
 Number     Number       Type             X           Y           Z
 ---------------------------------------------------------------------
      1          6           0       -3.460193   -0.086664   -0.807760
      2          6           0       -2.310513   -0.398259    0.160931
      3          6           0       -2.006478   -1.904155    0.111729
      4          6           0       -1.049494    0.462198   -0.115671
      5          6           0       -1.360435    1.963392   -0.156538
      6          6           0        0.073155    0.135971    0.924524
      7          6           0        1.183944   -0.738906    0.315422
      8          6           0        1.936494    0.032386   -0.767183
      9          8           0        2.087777    1.241947   -0.818888
     10          8           0        2.522092   -0.792828   -1.662423
     11          7           0        2.095365   -1.166803    1.378599
     12          8           0        0.657243    1.269396    1.558976
     13          1           0       -3.138684   -0.217190   -1.849564
     14          1           0       -3.834174    0.934674   -0.696605
     15          1           0       -4.301949   -0.766786   -0.634642
     16          1           0       -2.648877   -0.153223    1.179712
     17          1           0       -1.642108   -2.193245   -0.883120
     18          1           0       -1.256569   -2.211185    0.847487
     19          1           0       -2.913581   -2.485581    0.310787
     20          1           0       -0.689221    0.178232   -1.118219
     21          1           0       -1.760980    2.312356    0.800804
     22          1           0       -0.460950    2.545617   -0.372370
     23          1           0       -2.087099    2.188701   -0.941376
     24          1           0       -0.356691   -0.436122    1.751450
     25          1           0        0.747717   -1.627467   -0.148978
     26          1           0        3.039500   -0.225051   -2.266083
     27          1           0        2.922529   -1.619662    0.996180
     28          1           0        2.387163   -0.340577    1.898516
     29          1           0        1.150637    1.740230    0.861790
 ---------------------------------------------------------------------

 SCF Done:  E(UB3LYP) =  -595.748180066     A.U. after   33 cycles
 SCF Done:  E(UB3LYP) =  -595.748180066     a.u. after    1 cycles

 The electronic state is 2-A.
 Alpha  occ. eigenvalues --  -19.06909 -19.02343 -19.01723 -14.20312 -10.20930
 Alpha  occ. eigenvalues --  -10.12504 -10.11547 -10.08228 -10.07938 -10.06420
 Alpha  occ. eigenvalues --  -10.06318 -10.05944  -1.01330  -0.93223  -0.91752
 Alpha  occ. eigenvalues --   -0.79782  -0.72670  -0.65617  -0.62997  -0.59231
 Alpha  occ. eigenvalues --   -0.56956  -0.52261  -0.48930  -0.46737  -0.42428
 Alpha  occ. eigenvalues --   -0.40347  -0.39543  -0.38631  -0.36890  -0.36083
 Alpha  occ. eigenvalues --   -0.35130  -0.33341  -0.32468  -0.31472  -0.31043
 Alpha  occ. eigenvalues --   -0.29739  -0.28856  -0.28591  -0.26997  -0.26601
 Alpha  occ. eigenvalues --   -0.24561  -0.23240  -0.22980  -0.22849  -0.21906
 Alpha  occ. eigenvalues --   -0.19968  -0.17930  -0.14889   0.04483
 Alpha virt. eigenvalues --    0.06215   0.07653   0.07891   0.08555   0.08994
 Alpha virt. eigenvalues --    0.09334   0.10442   0.10775   0.11258   0.11969
 Alpha virt. eigenvalues --    0.12603   0.12914   0.13918   0.14537   0.15022

  Beta  occ. eigenvalues --  -19.06825 -19.02312 -19.01715 -14.20276 -10.20915
  Beta  occ. eigenvalues --  -10.12500 -10.11531 -10.08222 -10.07933 -10.06400
  Beta  occ. eigenvalues --  -10.06291 -10.05932  -1.01227  -0.93165  -0.91692
  Beta  occ. eigenvalues --   -0.79718  -0.72651  -0.65576  -0.62943  -0.59171
  Beta  occ. eigenvalues --   -0.56883  -0.52197  -0.48836  -0.46698  -0.42381
  Beta  occ. eigenvalues --   -0.40296  -0.39496  -0.38595  -0.36827  -0.36040
  Beta  occ. eigenvalues --   -0.35085  -0.33304  -0.32436  -0.31389  -0.31010
  Beta  occ. eigenvalues --   -0.29700  -0.28821  -0.28562  -0.26973  -0.26580
  Beta  occ. eigenvalues --   -0.24528  -0.23181  -0.22944  -0.22781  -0.21885
  Beta  occ. eigenvalues --   -0.19926  -0.17911  -0.14837
  Beta virt. eigenvalues --    0.06599   0.07730   0.08022   0.08355   0.08744
  Beta virt. eigenvalues --    0.09667   0.09955   0.10671   0.11043   0.11438
  Beta virt. eigenvalues --    0.12396   0.12804   0.13114   0.14071   0.14658

 Mulliken charges and spin densities:
               1          2
     1  C    0.508194  -1.197463
     2  C   -1.327108   1.669626
     3  C    0.264329  -0.968952
     4  C    0.359255  -0.087200
     5  C    0.115965  -0.882204
     6  C    0.101925  -0.436918
     7  C    0.650506  -1.113282
     8  C   -0.045082  -0.269762
     9  O   -0.267704   0.021250
    10  O   -0.159016   0.074465
    11  N   -0.270981   0.136725
    12  O   -0.227662   0.020825
    13  H   -0.128477   0.284373
    14  H   -0.058099   0.197755
    15  H   -0.246756   0.381391
    16  H    0.069049   0.076730
    17  H   -0.014410   0.170698
    18  H    0.000554   0.135713
    19  H   -0.128656   0.273607
    20  H   -0.039271   0.274594
    21  H    0.092554   0.094317
    22  H    0.094583   0.040529
    23  H   -0.066023   0.188798
    24  H    0.268009   0.010801
    25  H    0.199961   0.118212
    26  H   -0.828801   1.128559
    27  H   -0.258380   0.494140
    28  H    0.106656   0.134562
    29  H    0.234886   0.028111
 Sum of Mulliken charges =  -1.00000   1.00000

 Dipole moment (field-independent basis, Debye):
    X=             -3.6422    Y=              1.8934    Z=              3.9867  Tot=              5.7223
 Quadrupole moment (field-independent basis, Debye-Ang):
   XX=           -145.9006   YY=           -109.5755   ZZ=           -117.9621
   XY=              2.8602   XZ=              8.3577   YZ=             -0.4850

 Summary of Natural Population Analysis:

                                       Natural Population
                Natural  -----------------------------------------------
    Atom  No    Charge         Core      Valence    Rydberg      Total
 -----------------------------------------------------------------------
      C    1   -0.28628      0.99965     2.28053    0.00611     3.28628
      C    2   -0.10847      0.99960     2.09938    0.00949     3.10847
      C    3   -0.28783      0.99965     2.28242    0.00577     3.28783
      C    4   -0.12023      0.99956     2.10884    0.01183     3.12023
      C    5   -0.28477      0.99964     2.27931    0.00582     3.28477
      C    6    0.06671      0.99952     1.91816    0.01561     2.93329
      C    7   -0.06843      0.99952     2.05455    0.01436     3.06843
      C    8    0.40607      0.99969     1.56704    0.02720     2.59393
      O    9   -0.32387      0.99986     3.31703    0.00698     4.32387
      O   10   -0.33794      0.99988     3.33072    0.00735     4.33794
      N   11   -0.41220      0.99977     2.90246    0.00997     3.91220
      O   12   -0.38141      0.99990     3.37569    0.00582     4.38141
      H   13    0.09856      0.00000     0.40043    0.00101     0.40144
      H   14    0.09985      0.00000     0.39925    0.00090     0.40015
      H   15    0.09931      0.00000     0.39972    0.00097     0.40069
      H   16    0.09019      0.00000     0.40818    0.00164     0.40981
      H   17    0.09885      0.00000     0.40003    0.00112     0.40115
      H   18    0.10026      0.00000     0.39874    0.00100     0.39974
      H   19    0.09943      0.00000     0.39979    0.00078     0.40057
      H   20    0.09423      0.00000     0.40373    0.00204     0.40577
      H   21    0.09934      0.00000     0.39973    0.00092     0.40066
      H   22    0.10363      0.00000     0.39537    0.00100     0.39637
      H   23    0.09927      0.00000     0.39985    0.00088     0.40073
      H   24    0.09262      0.00000     0.40564    0.00174     0.40738
      H   25    0.10945      0.00000     0.38831    0.00224     0.39055
      H   26    0.24903      0.00000     0.20097    0.05000     0.25097
      H   27    0.18237      0.00000     0.31529    0.00233     0.31763
      H   28    0.18191      0.00000     0.31602    0.00207     0.31809
      H   29    0.24037      0.00000     0.25649    0.00314     0.25963
 =======================================================================
   * Total *    0.00000     11.99624    35.80365    0.20010    48.00000

 Normal termination of Gaussian 16 at Wed Dec  9 17:14:46 2020.
