 Gaussian 16, Revision A.03,

 -----------------------------------------------------------
 # opt freq B3LYP/6-31G(d) empiricaldispersion=gd3bj scf=xqc
 -----------------------------------------------------------

 ------------------------------
 CID_91620256_JID_6421_neutraal
 ------------------------------
 Symbolic Z-matrix:
 Charge =  0 Multiplicity = 1

 SCF Done:  E(RB3LYP) =  -781.432554521     A.U. after   14 cycles
 SCF Done:  E(RB3LYP) =  -781.435042467     A.U. after   13 cycles
 SCF Done:  E(RB3LYP) =  -781.430699658     A.U. after   15 cycles
 SCF Done:  E(RB3LYP) =  -781.437945387     A.U. after   14 cycles
 SCF Done:  E(RB3LYP) =  -781.438268420     A.U. after   14 cycles
 SCF Done:  E(RB3LYP) =  -781.440269441     A.U. after   13 cycles
 SCF Done:  E(RB3LYP) =  -781.440624222     A.U. after   12 cycles
 SCF Done:  E(RB3LYP) =  -781.440611451     A.U. after   12 cycles
 SCF Done:  E(RB3LYP) =  -781.440770919     A.U. after   12 cycles
 SCF Done:  E(RB3LYP) =  -781.440936477     A.U. after   12 cycles
 SCF Done:  E(RB3LYP) =  -781.442930764     A.U. after   12 cycles
 SCF Done:  E(RB3LYP) =  -781.442958613     A.U. after   12 cycles
 SCF Done:  E(RB3LYP) =  -781.442976678     A.U. after   11 cycles
 SCF Done:  E(RB3LYP) =  -781.442977575     A.U. after    8 cycles
 SCF Done:  E(RB3LYP) =  -781.442977717     A.U. after    7 cycles
 Optimization completed.
    -- Stationary point found.
 Normal termination of Gaussian 16 at Thu Dec 10 22:54:02 2020.

 --------------------------------------------------------------------
 #N Geom=AllCheck Guess=TCheck SCRF=Check GenChk RB3LYP/6-31G(d) Freq
 --------------------------------------------------------------------

 Structure from the checkpoint file:  "JID_6421.chk"
 ------------------------------
 CID_91620256_JID_6421_neutraal
 ------------------------------
 Charge =  0 Multiplicity = 1

 SCF Done:  E(RB3LYP) =  -781.442977717     A.U. after    1 cycles

  Exact polarizability: 145.647  -4.766 134.787  19.361   4.996  88.041
 Approx polarizability: 200.663 -13.245 234.695  40.170   5.490 144.772

                      1                      2                      3
                      A                      A                      A
 Frequencies --     33.6311                37.3297                51.9582
 Red. masses --      6.2546                 6.0867                 4.7958
 Frc consts  --      0.0042                 0.0050                 0.0076
 IR Inten    --      0.5290                 0.2560                 0.5503

                      4                      5                      6
                      A                      A                      A
 Frequencies --     76.5628                90.4335                96.9551
 Red. masses --      5.6617                 5.8120                 5.5099
 Frc consts  --      0.0196                 0.0280                 0.0305
 IR Inten    --      0.2560                 6.6398                 2.2356

                      7                      8                      9
                      A                      A                      A
 Frequencies --    154.1139               204.9211               243.3875
 Red. masses --      5.9674                 6.0514                 5.7329
 Frc consts  --      0.0835                 0.1497                 0.2001
 IR Inten    --      0.7679                 4.3124                 5.5502

                     10                     11                     12
                      A                      A                      A
 Frequencies --    269.4060               298.5446               326.0857
 Red. masses --      3.6889                 4.4325                 5.1085
 Frc consts  --      0.1577                 0.2328                 0.3200
 IR Inten    --      7.5651                 2.1001                17.5706

                     13                     14                     15
                      A                      A                      A
 Frequencies --    387.4119               423.9390               443.4960
 Red. masses --      5.4441                 3.1756                 6.7574
 Frc consts  --      0.4814                 0.3363                 0.7831
 IR Inten    --     10.9704                 0.0546                 3.8224

                     16                     17                     18
                      A                      A                      A
 Frequencies --    499.7655               523.6786               531.8759
 Red. masses --      3.0342                 3.1435                 5.1672
 Frc consts  --      0.4465                 0.5079                 0.8612
 IR Inten    --     42.1959                 2.4870                 6.7066

                     19                     20                     21
                      A                      A                      A
 Frequencies --    570.2256               585.2521               628.1956
 Red. masses --      4.0264                 2.4293                 6.1969
 Frc consts  --      0.7714                 0.4903                 1.4408
 IR Inten    --      2.8557                12.6958                 0.6467

                     22                     23                     24
                      A                      A                      A
 Frequencies --    649.2448               668.4722               705.9697
 Red. masses --      2.4822                 3.7840                 2.4193
 Frc consts  --      0.6165                 0.9963                 0.7104
 IR Inten    --    100.8501                35.8143                 5.0321

                     25                     26                     27
                      A                      A                      A
 Frequencies --    732.7641               767.5630               800.0014
 Red. masses --      3.3430                 1.5736                 4.5386
 Frc consts  --      1.0576                 0.5462                 1.7114
 IR Inten    --     30.7023                53.8459                32.5442

                     28                     29                     30
                      A                      A                      A
 Frequencies --    805.7614               836.0757               883.6474
 Red. masses --      5.1869                 1.2446                 3.7719
 Frc consts  --      1.9841                 0.5126                 1.7353
 IR Inten    --     19.1505                 0.2771                48.0639

                     31                     32                     33
                      A                      A                      A
 Frequencies --    901.7405               904.4819               939.3739
 Red. masses --      1.4928                 3.1172                 3.8497
 Frc consts  --      0.7152                 1.5025                 2.0015
 IR Inten    --      4.3079                14.0366                34.2913

                     34                     35                     36
                      A                      A                      A
 Frequencies --    960.3705               986.4458              1018.1926
 Red. masses --      1.3240                 1.2350                 5.7105
 Frc consts  --      0.7195                 0.7080                 3.4881
 IR Inten    --      0.1359                 0.4650                 0.6899

                     37                     38                     39
                      A                      A                      A
 Frequencies --   1025.2361              1048.3563              1059.1407
 Red. masses --      1.7479                 2.3114                 2.1453
 Frc consts  --      1.0825                 1.4967                 1.4179
 IR Inten    --     18.8073                 4.1527                 2.2577

                     40                     41                     42
                      A                      A                      A
 Frequencies --   1088.4049              1095.4999              1122.6468
 Red. masses --      1.2156                 4.2696                 1.5460
 Frc consts  --      0.8485                 3.0190                 1.1480
 IR Inten    --      5.8120                40.1312                13.2944

                     43                     44                     45
                      A                      A                      A
 Frequencies --   1159.5668              1169.6771              1191.5540
 Red. masses --      1.3392                 1.3754                 1.1041
 Frc consts  --      1.0609                 1.1087                 0.9236
 IR Inten    --      2.3535                 2.9195                 3.0593

                     46                     47                     48
                      A                      A                      A
 Frequencies --   1215.8405              1251.3947              1272.8399
 Red. masses --      1.1500                 2.4437                 2.0243
 Frc consts  --      1.0016                 2.2547                 1.9323
 IR Inten    --     12.6515               150.5741                 7.3934

                     49                     50                     51
                      A                      A                      A
 Frequencies --   1301.0197              1316.2158              1349.3215
 Red. masses --      1.5762                 2.4118                 4.0313
 Frc consts  --      1.5719                 2.4618                 4.3244
 IR Inten    --    115.9088               250.4961                59.8421

                     52                     53                     54
                      A                      A                      A
 Frequencies --   1354.8865              1376.9416              1397.6898
 Red. masses --      2.0101                 2.2785                 1.3721
 Frc consts  --      2.1741                 2.5452                 1.5793
 IR Inten    --     16.4881                10.1302                10.6932

                     55                     56                     57
                      A                      A                      A
 Frequencies --   1419.3291              1441.9501              1503.6272
 Red. masses --      2.6267                 1.5903                 1.4160
 Frc consts  --      3.1177                 1.9482                 1.8862
 IR Inten    --     74.8251                22.3102                 6.5923

                     58                     59                     60
                      A                      A                      A
 Frequencies --   1512.2732              1546.8965              1549.1903
 Red. masses --      1.5371                 1.3259                 2.0484
 Frc consts  --      2.0712                 1.8693                 2.8965
 IR Inten    --      9.7598                17.2783                76.2506

                     61                     62                     63
                      A                      A                      A
 Frequencies --   1651.8467              1666.5923              1803.4701
 Red. masses --      5.8207                 5.7854                 8.5458
 Frc consts  --      9.3576                 9.4677                16.3766
 IR Inten    --     22.6602                55.3464               442.8242

                     64                     65                     66
                      A                      A                      A
 Frequencies --   1816.5404              3090.1185              3121.0109
 Red. masses --     12.3827                 1.0665                 1.0497
 Frc consts  --     24.0745                 6.0003                 6.0244
 IR Inten    --     80.8245                17.7466                21.2096

                     67                     68                     69
                      A                      A                      A
 Frequencies --   3174.1962              3188.9628              3189.7918
 Red. masses --      1.0981                 1.0913                 1.0854
 Frc consts  --      6.5186                 6.5386                 6.5066
 IR Inten    --      1.7257                 4.4614                 1.0694

                     70                     71                     72
                      A                      A                      A
 Frequencies --   3197.7657              3211.5183              3213.0376
 Red. masses --      1.0894                 1.0927                 1.1212
 Frc consts  --      6.5633                 6.6402                 6.8194
 IR Inten    --     12.5003                26.8339                17.9867

                     73                     74                     75
                      A                      A                      A
 Frequencies --   3219.2440              3231.4932              3567.9881
 Red. masses --      1.0964                 1.0925                 1.0756
 Frc consts  --      6.6945                 6.7218                 8.0678
 IR Inten    --     10.9319                 2.7529                44.6996

 - Thermochemistry -
 -------------------
 Temperature   298.150 Kelvin.  Pressure   1.00000 Atm.
 Atom     1 has atomic number  6 and mass  12.00000

 Molecular mass:   221.06881 amu.
 Principal axes and moments of inertia in atomic units:
                           1         2         3
     Eigenvalues --  1980.168024546.413705218.53017
           X            0.99995   0.00750   0.00652
           Y           -0.00760   0.99985   0.01529
           Z           -0.00641  -0.01534   0.99986
 This molecule is an asymmetric top.
 Rotational symmetry number  1.
 Warning -- assumption of classical behavior for rotation
           may cause significant error
 Rotational temperatures (Kelvin)      0.04374     0.01905     0.01660
 Rotational constants (GHZ):           0.91141     0.39696     0.34583
 Zero-point vibrational energy     551181.5 (Joules/Mol)
                                  131.73554 (Kcal/Mol)
 Warning -- explicit consideration of  20 degrees of freedom as
           vibrations may cause significant error
 Vibrational temperatures:     48.39    53.71    74.76   110.16   130.11
          (Kelvin)            139.50   221.74   294.84   350.18   387.62
                              429.54   469.16   557.40   609.95   638.09
                              719.05   753.46   765.25   820.43   842.05
                              903.83   934.12   961.78  1015.73  1054.28
                             1104.35  1151.02  1159.31  1202.93  1271.37
                             1297.40  1301.35  1351.55  1381.76  1419.28
                             1464.95  1475.09  1508.35  1523.87  1565.97
                             1576.18  1615.24  1668.36  1682.90  1714.38
                             1749.32  1800.48  1831.33  1871.88  1893.74
                             1941.37  1949.38  1981.11  2010.96  2042.10
                             2074.64  2163.38  2175.82  2225.64  2228.94
                             2376.64  2397.85  2594.79  2613.60  4445.99
                             4490.44  4566.96  4588.21  4589.40  4600.87
                             4620.66  4622.84  4631.77  4649.40  5133.54

 Zero-point correction=                           0.209934 (Hartree/Particle)
 Thermal correction to Energy=                    0.224029
 Thermal correction to Enthalpy=                  0.224973
 Thermal correction to Gibbs Free Energy=         0.167127
 Sum of electronic and zero-point Energies=           -781.233044
 Sum of electronic and thermal Energies=              -781.218949
 Sum of electronic and thermal Enthalpies=            -781.218005
 Sum of electronic and thermal Free Energies=         -781.275851

                     E (Thermal)             CV                S
                      KCal/Mol        Cal/Mol-Kelvin    Cal/Mol-Kelvin
 Total                  140.580             52.875            121.746
 Electronic               0.000              0.000              0.000
 Translational            0.889              2.981             42.083
 Rotational               0.889              2.981             32.219
 Vibrational            138.803             46.913             47.445
 Vibration     1          0.594              1.983              5.603
 Vibration     2          0.594              1.982              5.396
 Vibration     3          0.596              1.977              4.741
 Vibration     4          0.599              1.965              3.977
 Vibration     5          0.602              1.956              3.651
 Vibration     6          0.603              1.951              3.515
 Vibration     7          0.620              1.898              2.621
 Vibration     8          0.640              1.833              2.088
 Vibration     9          0.659              1.774              1.778
 Vibration    10          0.674              1.729              1.600
 Vibration    11          0.692              1.676              1.425
 Vibration    12          0.710              1.623              1.279
 Vibration    13          0.756              1.497              1.010
 Vibration    14          0.786              1.418              0.879
 Vibration    15          0.803              1.375              0.816
 Vibration    16          0.855              1.251              0.659
 Vibration    17          0.879              1.198              0.601
 Vibration    18          0.887              1.179              0.583
 Vibration    19          0.926              1.096              0.504
 Vibration    20          0.942              1.063              0.476

                           ! Non-Optimized Parameters !
 Normal termination of Gaussian 16 at Thu Dec 10 23:03:42 2020.

 ----------------------------------------------------------------------
 # B3LYP/6-311++G(d,p) empiricaldispersion=gd3bj scf=xqc pop=npa geom=c
 heck
 ----------------------------------------------------------------------

 --------------------------------------
 CID_91620256_JID_6421_Energie_neutraal
 --------------------------------------
 Structure from the checkpoint file:  "JID_6421.chk"
 Charge =  0 Multiplicity = 1

 SCF Done:  E(RB3LYP) =  -781.669403933     A.U. after   15 cycles
 Normal termination of Gaussian 16 at Thu Dec 10 23:07:05 2020.

 ----------------------------------------------------------------------
 # B3LYP/6-311++G(d,p) empiricaldispersion=gd3bj scf=xqc pop=npa geom=c
 heck
 ----------------------------------------------------------------------

 ------------------------------------
 CID_91620256_JID_6421_Energie_kation
 ------------------------------------
 Structure from the checkpoint file:  "JID_6421.chk"
 Charge =  1 Multiplicity = 2

 SCF Done:  E(UB3LYP) =  -781.359227610     A.U. after   25 cycles
 Normal termination of Gaussian 16 at Thu Dec 10 23:14:15 2020.
 Gaussian 16:  ES64L-G16RevA.03 25-Dec-2016

 ----------------------------------------------------------------------
 # B3LYP/6-311++G(d,p) empiricaldispersion=gd3bj scf=xqc pop=npa geom=c
 heck
 ----------------------------------------------------------------------

 -----------------------------------
 CID_91620256_JID_6421_Energie_anion
 -----------------------------------
 Structure from the checkpoint file:  "JID_6421.chk"
 Charge = -1 Multiplicity = 2

                         Standard orientation:
 ---------------------------------------------------------------------
 Center     Atomic      Atomic             Coordinates (Angstroms)
 Number     Number       Type             X           Y           Z
 ---------------------------------------------------------------------
      1          6           0       -3.606789   -1.139055   -0.116006
      2          6           0       -2.137957   -1.288619   -0.155954
      3          8           0       -2.812170   -0.417971   -1.059981
      4          6           0       -1.349332   -0.720560    0.991174
      5          8           0       -0.941689   -1.454638    1.868650
      6          7           0       -1.262782    0.673163    1.113723
      7          6           0       -1.006105    1.676925    0.174504
      8          8           0       -1.070988    2.847682    0.493840
      9          6           0       -0.540206    1.262798   -1.221695
     10          8           0        0.127872    0.014284   -1.251379
     11          6           0        1.381480   -0.063168   -0.683491
     12          6           0        1.985247   -1.323098   -0.748693
     13          6           0        3.247142   -1.513300   -0.197705
     14          6           0        3.916500   -0.453625    0.421943
     15          6           0        3.305499    0.795717    0.484294
     16          6           0        2.036204    1.004357   -0.063947
     17          1           0       -4.061502   -0.530926    0.664911
     18          1           0       -4.230989   -1.928565   -0.531048
     19          1           0       -1.706129   -2.187425   -0.588470
     20          1           0       -1.115316    0.983695    2.069561
     21          1           0       -1.405827    1.152417   -1.874163
     22          1           0        0.092138    2.073866   -1.596154
     23          1           0        1.449953   -2.132584   -1.234273
     24          1           0        3.709754   -2.494601   -0.250965
     25          1           0        4.901164   -0.604579    0.853295
     26          1           0        3.811711    1.626973    0.966699
     27          1           0        1.580222    1.984507    0.008970
 ---------------------------------------------------------------------

 SCF Done:  E(UB3LYP) =  -781.671212072     A.U. after   33 cycles
 SCF Done:  E(UB3LYP) =  -781.671212072     a.u. after    1 cycles

 The electronic state is 2-A.
 Alpha  occ. eigenvalues --  -19.04263 -19.02729 -18.95658 -18.95263 -14.21267
 Alpha  occ. eigenvalues --  -10.12890 -10.12706 -10.12431 -10.11239 -10.10979
 Alpha  occ. eigenvalues --  -10.10852 -10.07186 -10.07035 -10.06697 -10.06492
 Alpha  occ. eigenvalues --  -10.06209  -0.97201  -0.95856  -0.91528  -0.90162
 Alpha  occ. eigenvalues --   -0.77949  -0.74859  -0.65442  -0.64346  -0.59939
 Alpha  occ. eigenvalues --   -0.58352  -0.54275  -0.50894  -0.50222  -0.48678
 Alpha  occ. eigenvalues --   -0.45170  -0.43398  -0.39662  -0.38986  -0.38414
 Alpha  occ. eigenvalues --   -0.37191  -0.34945  -0.34222  -0.32778  -0.32235
 Alpha  occ. eigenvalues --   -0.31303  -0.30515  -0.29225  -0.28349  -0.27933
 Alpha  occ. eigenvalues --   -0.27134  -0.26440  -0.25539  -0.24080  -0.22929
 Alpha  occ. eigenvalues --   -0.22058  -0.19393  -0.17726  -0.15425  -0.14921
 Alpha  occ. eigenvalues --   -0.14394  -0.12349  -0.11475   0.04942
 Alpha virt. eigenvalues --    0.07461   0.07813   0.08881   0.09083   0.09736
 Alpha virt. eigenvalues --    0.10204   0.10594   0.11133   0.11496   0.12355
 Alpha virt. eigenvalues --    0.12688   0.13533   0.13743   0.14750   0.15438

  Beta  occ. eigenvalues --  -19.04245 -19.02721 -18.95354 -18.94907 -14.21406
  Beta  occ. eigenvalues --  -10.12716 -10.12541 -10.12067 -10.11271 -10.10892
  Beta  occ. eigenvalues --  -10.10880 -10.07157 -10.06969 -10.06706 -10.06485
  Beta  occ. eigenvalues --  -10.06149  -0.97157  -0.95805  -0.90983  -0.89522
  Beta  occ. eigenvalues --   -0.77787  -0.74790  -0.65345  -0.64267  -0.59736
  Beta  occ. eigenvalues --   -0.58055  -0.53996  -0.50717  -0.49906  -0.48444
  Beta  occ. eigenvalues --   -0.44977  -0.43333  -0.39481  -0.38878  -0.38304
  Beta  occ. eigenvalues --   -0.37069  -0.34764  -0.34142  -0.32569  -0.31997
  Beta  occ. eigenvalues --   -0.30934  -0.30259  -0.28610  -0.28119  -0.27611
  Beta  occ. eigenvalues --   -0.26836  -0.26328  -0.24920  -0.23130  -0.22784
  Beta  occ. eigenvalues --   -0.21776  -0.18902  -0.17613  -0.15034  -0.14601
  Beta  occ. eigenvalues --   -0.13740  -0.12078  -0.11254
  Beta virt. eigenvalues --    0.07439   0.08330   0.08900   0.09039   0.09734
  Beta virt. eigenvalues --    0.10209   0.10438   0.10739   0.11684   0.11829
  Beta virt. eigenvalues --    0.12653   0.12858   0.13858   0.14077   0.15251

 Mulliken charges and spin densities:
               1          2
     1  C    0.518313  -0.875010
     2  C   -0.196116   0.321194
     3  O   -0.154467   0.020659
     4  C   -0.228535   0.177034
     5  O   -0.338661   0.130956
     6  N   -0.142063  -0.082119
     7  C   -0.261422   0.197560
     8  O   -0.346727   0.116040
     9  C   -0.040588  -0.099304
    10  O   -0.052697   0.014808
    11  C    0.111104  -0.191677
    12  C   -0.090971   0.036932
    13  C   -0.338190   0.053741
    14  C   -0.411700   0.031256
    15  C   -0.261695   0.113707
    16  C    0.264197  -0.036888
    17  H    0.156568  -0.009154
    18  H   -0.455815   0.601318
    19  H    0.087662   0.165088
    20  H    0.272744   0.056418
    21  H    0.154751   0.084694
    22  H    0.178726   0.019815
    23  H    0.066256   0.071031
    24  H    0.139604   0.004298
    25  H    0.109879   0.000306
    26  H    0.151733   0.001117
    27  H    0.108111   0.076180
 Sum of Mulliken charges =  -1.00000   1.00000

 Dipole moment (field-independent basis, Debye):
    X=              4.5597    Y=              0.1731    Z=             -1.1262  Tot=              4.6999
 Quadrupole moment (field-independent basis, Debye-Ang):
   XX=           -128.5957   YY=           -125.7395   ZZ=           -112.6885
   XY=             -4.5180   XZ=             -2.5262   YZ=              0.8890

 Summary of Natural Population Analysis:

                                       Natural Population
                Natural  -----------------------------------------------
    Atom  No    Charge         Core      Valence    Rydberg      Total
 -----------------------------------------------------------------------
      C    1   -0.01623      0.99958     2.00598    0.01067     3.01623
      C    2    0.00755      0.99954     1.97626    0.01665     2.99245
      O    3   -0.28378      0.99992     3.27528    0.00859     4.28378
      C    4    0.37287      0.99967     1.60235    0.02512     2.62713
      O    5   -0.27412      0.99987     3.26857    0.00567     4.27412
      N    6   -0.35316      0.99964     2.84427    0.00924     3.85316
      C    7    0.37530      0.99970     1.60060    0.02440     2.62470
      O    8   -0.29031      0.99987     3.28457    0.00587     4.29031
      C    9   -0.05960      0.99952     2.04727    0.01280     3.05960
      O   10   -0.27268      0.99986     3.26290    0.00992     4.27268
      C   11    0.16298      0.99937     1.82418    0.01347     2.83702
      C   12   -0.11013      0.99952     2.09957    0.01104     3.11013
      C   13   -0.09233      0.99958     2.08469    0.00806     3.09233
      C   14   -0.12589      0.99957     2.11737    0.00894     3.12589
      C   15   -0.08285      0.99958     2.07491    0.00835     3.08285
      C   16   -0.14446      0.99951     2.13523    0.00972     3.14446
      H   17    0.08596      0.00000     0.41300    0.00103     0.41404
      H   18    0.08699      0.00000     0.41016    0.00285     0.41301
      H   19    0.09988      0.00000     0.39837    0.00176     0.40012
      H   20    0.20138      0.00000     0.29666    0.00196     0.29862
      H   21    0.11576      0.00000     0.38307    0.00117     0.38424
      H   22    0.09319      0.00000     0.40570    0.00111     0.40681
      H   23    0.10518      0.00000     0.39378    0.00104     0.39482
      H   24    0.09554      0.00000     0.40367    0.00079     0.40446
      H   25    0.09477      0.00000     0.40428    0.00095     0.40523
      H   26    0.09546      0.00000     0.40373    0.00081     0.40454
      H   27    0.11274      0.00000     0.38590    0.00136     0.38726
 =======================================================================
   * Total *    0.00000     15.99432    41.80235    0.20333    58.00000

 Normal termination of Gaussian 16 at Thu Dec 10 23:24:03 2020.
