 Gaussian 16, Revision A.03,

 -----------------------------------------------------------
 # opt freq B3LYP/6-31G(d) empiricaldispersion=gd3bj scf=xqc
 -----------------------------------------------------------

 -------------------------------
 CID_136392275_JID_1084_neutraal
 -------------------------------
 Symbolic Z-matrix:
 Charge =  0 Multiplicity = 1

 SCF Done:  E(RB3LYP) =  -563.449550259     A.U. after   16 cycles
 SCF Done:  E(RB3LYP) =  -563.461673467     A.U. after   14 cycles
 SCF Done:  E(RB3LYP) =  -563.461276681     A.U. after   14 cycles
 SCF Done:  E(RB3LYP) =  -563.465536344     A.U. after   13 cycles
 SCF Done:  E(RB3LYP) =  -563.466141385     A.U. after   13 cycles
 SCF Done:  E(RB3LYP) =  -563.466309571     A.U. after   12 cycles
 SCF Done:  E(RB3LYP) =  -563.466340133     A.U. after   12 cycles
 SCF Done:  E(RB3LYP) =  -563.466376141     A.U. after   11 cycles
 SCF Done:  E(RB3LYP) =  -563.466382968     A.U. after    9 cycles
 SCF Done:  E(RB3LYP) =  -563.466384591     A.U. after    9 cycles
 SCF Done:  E(RB3LYP) =  -563.466384969     A.U. after    8 cycles
 Optimization completed.
    -- Stationary point found.
 Normal termination of Gaussian 16 at Tue Dec  8 19:11:12 2020.

 --------------------------------------------------------------------
 #N Geom=AllCheck Guess=TCheck SCRF=Check GenChk RB3LYP/6-31G(d) Freq
 --------------------------------------------------------------------

 Structure from the checkpoint file:  "JID_1084.chk"
 -------------------------------
 CID_136392275_JID_1084_neutraal
 -------------------------------
 Charge =  0 Multiplicity = 1

 SCF Done:  E(RB3LYP) =  -563.466384969     A.U. after    1 cycles

  Exact polarizability: 119.192   3.183 100.226  -6.395  -4.802  46.659
 Approx polarizability: 195.159   2.282 191.476 -14.978  -9.007  76.871

                      1                      2                      3
                      A                      A                      A
 Frequencies --     67.2459                93.8883               170.6434
 Red. masses --      5.5469                 6.5444                 6.5957
 Frc consts  --      0.0148                 0.0340                 0.1132
 IR Inten    --      0.1133                 0.7406                 1.0056

                      4                      5                      6
                      A                      A                      A
 Frequencies --    183.4711               241.3771               274.6603
 Red. masses --      4.7755                 6.0413                 6.3075
 Frc consts  --      0.0947                 0.2074                 0.2803
 IR Inten    --      2.0420                 0.0750                 1.8813

                      7                      8                      9
                      A                      A                      A
 Frequencies --    371.2035               380.2209               470.5194
 Red. masses --      1.9053                 3.3823                 2.8873
 Frc consts  --      0.1547                 0.2881                 0.3766
 IR Inten    --     39.3424                14.3432                52.9252

                     10                     11                     12
                      A                      A                      A
 Frequencies --    478.7465               486.4478               543.3856
 Red. masses --      7.5771                 5.5091                 2.2684
 Frc consts  --      1.0232                 0.7681                 0.3946
 IR Inten    --     19.3875                14.2854                46.9760

                     13                     14                     15
                      A                      A                      A
 Frequencies --    574.0284               599.0327               640.2685
 Red. masses --      1.8587                 4.4881                 3.8738
 Frc consts  --      0.3608                 0.9489                 0.9357
 IR Inten    --     74.4527                49.1314                28.5585

                     16                     17                     18
                      A                      A                      A
 Frequencies --    682.1258               700.8300               712.9749
 Red. masses --      6.9068                 1.4612                 2.2132
 Frc consts  --      1.8935                 0.4229                 0.6629
 IR Inten    --      0.3111                 5.9635                 0.1118

                     19                     20                     21
                      A                      A                      A
 Frequencies --    794.9971               821.7789               858.2898
 Red. masses --      3.0110                 1.4368                 1.7431
 Frc consts  --      1.1212                 0.5717                 0.7565
 IR Inten    --     21.3613                19.5336                29.0320

                     22                     23                     24
                      A                      A                      A
 Frequencies --    876.2348               889.2801               981.5759
 Red. masses --      2.7328                 1.6468                 7.7217
 Frc consts  --      1.2362                 0.7673                 4.3834
 IR Inten    --     21.4506                10.4063               122.1549

                     25                     26                     27
                      A                      A                      A
 Frequencies --   1070.8697              1100.0162              1173.3745
 Red. masses --      2.2290                 3.6439                 2.4077
 Frc consts  --      1.5060                 2.5979                 1.9531
 IR Inten    --     61.9065                41.2967                28.6057

                     28                     29                     30
                      A                      A                      A
 Frequencies --   1227.4675              1298.4177              1325.7692
 Red. masses --      9.0028                 1.5389                 2.7560
 Frc consts  --      7.9918                 1.5286                 2.8541
 IR Inten    --     50.8533                 7.7442                84.5349

                     31                     32                     33
                      A                      A                      A
 Frequencies --   1359.8578              1396.6933              1417.5663
 Red. masses --      1.4026                 1.3811                 1.4254
 Frc consts  --      1.5282                 1.5873                 1.6876
 IR Inten    --     33.1393                12.6320                64.5727

                     34                     35                     36
                      A                      A                      A
 Frequencies --   1486.1336              1541.4325              1584.8898
 Red. masses --      2.3398                 5.3298                 5.6621
 Frc consts  --      3.0447                 7.4612                 8.3797
 IR Inten    --     30.6468                52.6979                73.6800

                     37                     38                     39
                      A                      A                      A
 Frequencies --   1662.4956              1683.4511              1724.0591
 Red. masses --      2.2436                 3.8136                 6.2531
 Frc consts  --      3.6536                 6.3678                10.9509
 IR Inten    --    240.1774               177.6723                 6.5440

                     40                     41                     42
                      A                      A                      A
 Frequencies --   3134.3297              3177.0531              3204.4005
 Red. masses --      1.0639                 1.0901                 1.0892
 Frc consts  --      6.1577                 6.4828                 6.5894
 IR Inten    --    147.6549                14.5930                 3.0085

                     43                     44                     45
                      A                      A                      A
 Frequencies --   3225.6985              3556.8634              3752.8804
 Red. masses --      1.0917                 1.0765                 1.0679
 Frc consts  --      6.6928                 8.0242                 8.8615
 IR Inten    --      4.4754                13.6037               101.2867

 - Thermochemistry -
 -------------------
 Temperature   298.150 Kelvin.  Pressure   1.00000 Atm.
 Atom     1 has atomic number  6 and mass  12.00000

 Molecular mass:   154.04908 amu.
 Principal axes and moments of inertia in atomic units:
                           1         2         3
     Eigenvalues --   952.242221815.174832504.90977
           X            0.99981   0.01900  -0.00329
           Y           -0.01905   0.99972  -0.01409
           Z            0.00302   0.01415   0.99990
 This molecule is an asymmetric top.
 Rotational symmetry number  1.
 Warning -- assumption of classical behavior for rotation
           may cause significant error
 Rotational temperatures (Kelvin)      0.09096     0.04772     0.03458
 Rotational constants (GHZ):           1.89525     0.99425     0.72048
 Zero-point vibrational energy     322973.5 (Joules/Mol)
                                   77.19251 (Kcal/Mol)
 Warning -- explicit consideration of  14 degrees of freedom as
           vibrations may cause significant error
 Vibrational temperatures:     96.75   135.08   245.52   263.97   347.29
          (Kelvin)            395.17   534.08   547.05   676.97   688.81
                              699.89   781.81   825.90   861.87   921.20
                              981.43  1008.34  1025.81  1143.82  1182.36
                             1234.89  1260.71  1279.48  1412.27  1540.74
                             1582.68  1688.22  1766.05  1868.13  1907.49
                             1956.53  2009.53  2039.56  2138.21  2217.78
                             2280.30  2391.96  2422.11  2480.54  4509.60
                             4571.07  4610.42  4641.06  5117.53  5399.56

 Zero-point correction=                           0.123014 (Hartree/Particle)
 Thermal correction to Energy=                    0.132457
 Thermal correction to Enthalpy=                  0.133401
 Thermal correction to Gibbs Free Energy=         0.088191
 Sum of electronic and zero-point Energies=           -563.343371
 Sum of electronic and thermal Energies=              -563.333928
 Sum of electronic and thermal Enthalpies=            -563.332984
 Sum of electronic and thermal Free Energies=         -563.378194

                     E (Thermal)             CV                S
                      KCal/Mol        Cal/Mol-Kelvin    Cal/Mol-Kelvin
 Total                   83.118             35.981             95.154
 Electronic               0.000              0.000              0.000
 Translational            0.889              2.981             41.006
 Rotational               0.889              2.981             29.850
 Vibrational             81.341             30.020             24.298
 Vibration     1          0.598              1.970              4.232
 Vibration     2          0.603              1.954              3.577
 Vibration     3          0.626              1.879              2.428
 Vibration     4          0.631              1.862              2.293
 Vibration     5          0.658              1.777              1.793
 Vibration     6          0.677              1.720              1.567
 Vibration     7          0.743              1.531              1.075
 Vibration     8          0.750              1.512              1.038
 Vibration     9          0.828              1.315              0.736
 Vibration    10          0.835              1.297              0.713
 Vibration    11          0.842              1.280              0.693
 Vibration    12          0.899              1.154              0.558
 Vibration    13          0.930              1.087              0.497
 Vibration    14          0.957              1.034              0.451

 Optimization completed.
    -- Stationary point found.
 Normal termination of Gaussian 16 at Tue Dec  8 19:14:15 2020.

 ----------------------------------------------------------------------
 # B3LYP/6-311++G(d,p) empiricaldispersion=gd3bj scf=xqc pop=npa geom=c
 heck
 ----------------------------------------------------------------------

 ---------------------------------------
 CID_136392275_JID_1084_Energie_neutraal
 ---------------------------------------
 Structure from the checkpoint file:  "JID_1084.chk"
 Charge =  0 Multiplicity = 1

 SCF Done:  E(RB3LYP) =  -563.643642270     A.U. after   15 cycles
 Normal termination of Gaussian 16 at Tue Dec  8 19:15:12 2020.

 ----------------------------------------------------------------------
 # B3LYP/6-311++G(d,p) empiricaldispersion=gd3bj scf=xqc pop=npa geom=c
 heck
 ----------------------------------------------------------------------

 -------------------------------------
 CID_136392275_JID_1084_Energie_kation
 -------------------------------------
 Structure from the checkpoint file:  "JID_1084.chk"
 Charge =  1 Multiplicity = 2

 SCF Done:  E(UB3LYP) =  -563.348984539     A.U. after   21 cycles
 Normal termination of Gaussian 16 at Tue Dec  8 19:17:32 2020.
 Gaussian 16:  ES64L-G16RevA.03 25-Dec-2016

 ----------------------------------------------------------------------
 # B3LYP/6-311++G(d,p) empiricaldispersion=gd3bj scf=xqc pop=npa geom=c
 heck
 ----------------------------------------------------------------------

 ------------------------------------
 CID_136392275_JID_1084_Energie_anion
 ------------------------------------
 Structure from the checkpoint file:  "JID_1084.chk"
 Charge = -1 Multiplicity = 2

                         Standard orientation:
 ---------------------------------------------------------------------
 Center     Atomic      Atomic             Coordinates (Angstroms)
 Number     Number       Type             X           Y           Z
 ---------------------------------------------------------------------
      1          6           0       -0.326355    1.859419   -0.057833
      2          6           0        0.396469    0.709022   -0.310706
      3          7           0       -0.274836   -0.465587   -0.259969
      4          6           0       -1.631531   -0.590795    0.060649
      5          7           0       -2.071446   -1.810040    0.036540
      6          6           0       -2.258673    0.683803    0.326568
      7          7           0       -1.645565    1.838373    0.262781
      8          8           0        0.342977   -1.641367   -0.594657
      9          6           0        1.835509    0.742751   -0.640412
     10          7           0        2.793766    0.141417   -0.039602
     11          8           0        2.357646   -0.616511    1.036376
     12          1           0        0.168426    2.823524   -0.086073
     13          1           0       -3.059964   -1.879473    0.260723
     14          1           0       -3.317111    0.678682    0.580573
     15          1           0       -0.428261   -2.273345   -0.453902
     16          1           0        2.150763    1.396981   -1.448705
     17          1           0        3.175215   -1.037696    1.345786
 ---------------------------------------------------------------------

 SCF Done:  E(UB3LYP) =  -563.663627303     A.U. after   23 cycles

 The electronic state is 2-A.
 Alpha  occ. eigenvalues --  -19.02387 -19.01590 -14.25263 -14.20674 -14.14544
 Alpha  occ. eigenvalues --  -14.12915 -10.09468 -10.06062 -10.05691 -10.03957
 Alpha  occ. eigenvalues --  -10.02829  -0.97177  -0.94885  -0.80106  -0.74768
 Alpha  occ. eigenvalues --   -0.73053  -0.70434  -0.60121  -0.52124  -0.50072
 Alpha  occ. eigenvalues --   -0.45887  -0.41070  -0.40067  -0.36215  -0.33843
 Alpha  occ. eigenvalues --   -0.33355  -0.31563  -0.30930  -0.28383  -0.27907
 Alpha  occ. eigenvalues --   -0.26465  -0.23158  -0.22196  -0.17923  -0.15793
 Alpha  occ. eigenvalues --   -0.14639  -0.13717  -0.12276  -0.09795  -0.05462
 Alpha  occ. eigenvalues --    0.04466
 Alpha virt. eigenvalues --    0.09640   0.10406   0.10919   0.12359   0.12481
 Alpha virt. eigenvalues --    0.13158   0.14505   0.15919   0.16729   0.17657
 Alpha virt. eigenvalues --    0.18314   0.18997   0.19611   0.20790   0.21510

  Beta  occ. eigenvalues --  -19.02313 -19.01517 -14.24791 -14.20192 -14.14253
  Beta  occ. eigenvalues --  -14.12897 -10.09524 -10.05747 -10.05687 -10.04037
  Beta  occ. eigenvalues --  -10.02460  -0.96764  -0.94539  -0.79652  -0.74607
  Beta  occ. eigenvalues --   -0.72468  -0.69893  -0.59630  -0.51536  -0.49651
  Beta  occ. eigenvalues --   -0.45550  -0.40869  -0.39753  -0.35882  -0.33357
  Beta  occ. eigenvalues --   -0.33000  -0.31324  -0.29965  -0.28156  -0.27251
  Beta  occ. eigenvalues --   -0.25789  -0.22917  -0.20859  -0.17359  -0.15643
  Beta  occ. eigenvalues --   -0.13834  -0.12657  -0.10837  -0.09410  -0.04191
  Beta virt. eigenvalues --    0.09529   0.10323   0.10829   0.11258   0.12383
  Beta virt. eigenvalues --    0.13110   0.13939   0.14501   0.16522   0.16819
  Beta virt. eigenvalues --    0.17743   0.18364   0.19236   0.19563   0.20813

 Mulliken charges and spin densities:
               1          2
     1  C    0.081118  -0.064782
     2  C   -0.168999   0.277316
     3  N   -0.067846   0.097644
     4  C    0.268672  -0.000901
     5  N   -0.635780   0.008787
     6  C   -0.373407   0.286663
     7  N   -0.119200   0.123434
     8  O   -0.016824   0.036196
     9  C   -0.737081   0.009287
    10  N   -0.255845   0.178753
    11  O   -0.087750   0.013941
    12  H    0.136837   0.020864
    13  H    0.219559   0.000668
    14  H    0.093775  -0.027306
    15  H    0.298590  -0.002926
    16  H    0.133342   0.026136
    17  H    0.230839   0.016227
 Sum of Mulliken charges =  -1.00000   1.00000

 Dipole moment (field-independent basis, Debye):
    X=              1.2519    Y=             -1.1214    Z=              0.1834  Tot=              1.6907
 Quadrupole moment (field-independent basis, Debye-Ang):
   XX=            -85.2226   YY=            -81.8929   ZZ=            -70.9448
   XY=              2.0599   XZ=              2.8371   YZ=             -3.9864

 Summary of Natural Population Analysis:

                                       Natural Population
                Natural  -----------------------------------------------
    Atom  No    Charge         Core      Valence    Rydberg      Total
 -----------------------------------------------------------------------
      C    1   -0.04674      0.99955     2.03378    0.01341     3.04674
      C    2    0.10472      0.99949     1.87895    0.01684     2.89528
      N    3    0.02784      0.99951     2.45974    0.01291     3.47216
      C    4    0.17358      0.99961     1.81204    0.01476     2.82642
      N    5   -0.44929      0.99968     2.93914    0.01047     3.94929
      C    6    0.04816      0.99959     1.93662    0.01563     2.95184
      N    7   -0.18805      0.99970     2.67559    0.01276     3.68805
      O    8   -0.27004      0.99989     3.26151    0.00863     4.27004
      C    9   -0.00327      0.99965     1.98479    0.01883     3.00327
      N   10   -0.01669      0.99965     2.49795    0.01910     3.51669
      O   11   -0.27403      0.99989     3.26615    0.00798     4.27403
      H   12    0.08603      0.00000     0.41270    0.00127     0.41397
      H   13    0.16987      0.00000     0.32832    0.00182     0.33013
      H   14    0.07348      0.00000     0.42474    0.00178     0.42652
      H   15    0.24805      0.00000     0.24834    0.00361     0.25195
      H   16    0.09255      0.00000     0.40605    0.00140     0.40745
      H   17    0.22382      0.00000     0.27234    0.00384     0.27618
 =======================================================================
   * Total *    0.00000     10.99622    28.83874    0.16504    40.00000

 Normal termination of Gaussian 16 at Tue Dec  8 19:20:05 2020.
