 Gaussian 16, Revision A.03,

 -----------------------------------------------------------
 # opt freq B3LYP/6-31G(d) empiricaldispersion=gd3bj scf=xqc
 -----------------------------------------------------------

 ------------------------------
 CID_14628034_JID_5279_neutraal
 ------------------------------
 Symbolic Z-matrix:
 Charge =  0 Multiplicity = 1

 SCF Done:  E(RB3LYP) =  -977.091311550     A.U. after   15 cycles
 SCF Done:  E(RB3LYP) =  -977.096730089     A.U. after   12 cycles
 SCF Done:  E(RB3LYP) =  -977.097392993     A.U. after   13 cycles
 SCF Done:  E(RB3LYP) =  -977.097950311     A.U. after   12 cycles
 SCF Done:  E(RB3LYP) =  -977.098107733     A.U. after   10 cycles
 SCF Done:  E(RB3LYP) =  -977.098195995     A.U. after   10 cycles
 SCF Done:  E(RB3LYP) =  -977.098242898     A.U. after   10 cycles
 SCF Done:  E(RB3LYP) =  -977.098362973     A.U. after   11 cycles
 SCF Done:  E(RB3LYP) =  -977.098475119     A.U. after   12 cycles
 SCF Done:  E(RB3LYP) =  -977.098569527     A.U. after   11 cycles
 SCF Done:  E(RB3LYP) =  -977.099478519     A.U. after    9 cycles
 SCF Done:  E(RB3LYP) =  -977.099480303     A.U. after    9 cycles
 SCF Done:  E(RB3LYP) =  -977.099480586     A.U. after    7 cycles
 SCF Done:  E(RB3LYP) =  -977.099480746     A.U. after    6 cycles
 SCF Done:  E(RB3LYP) =  -977.099479912     A.U. after    7 cycles
 Optimization completed.
    -- Stationary point found.
 Normal termination of Gaussian 16 at Thu Dec 10 15:36:48 2020.

 --------------------------------------------------------------------
 #N Geom=AllCheck Guess=TCheck SCRF=Check GenChk RB3LYP/6-31G(d) Freq
 --------------------------------------------------------------------

 Structure from the checkpoint file:  "JID_5279.chk"
 ------------------------------
 CID_14628034_JID_5279_neutraal
 ------------------------------
 Charge =  0 Multiplicity = 1

 SCF Done:  E(RB3LYP) =  -977.099479912     A.U. after    1 cycles

  Exact polarizability: 163.696  19.983 138.101  -6.748   3.930 144.906
 Approx polarizability: 212.910  38.222 215.161 -16.967  11.816 247.948

                      1                      2                      3
                      A                      A                      A
 Frequencies --     27.2752                47.0863                47.6803
 Red. masses --      3.7368                 4.1558                 3.9537
 Frc consts  --      0.0016                 0.0054                 0.0053
 IR Inten    --      0.1182                 0.2533                 0.1169

                      4                      5                      6
                      A                      A                      A
 Frequencies --    101.3842               126.0029               131.4372
 Red. masses --      2.2327                 1.4234                 2.9134
 Frc consts  --      0.0135                 0.0133                 0.0297
 IR Inten    --      0.2909                 0.0577                 0.4640

                      7                      8                      9
                      A                      A                      A
 Frequencies --    161.2711               209.5480               225.1518
 Red. masses --      3.6874                 3.7888                 2.3425
 Frc consts  --      0.0565                 0.0980                 0.0700
 IR Inten    --      1.1487                 9.8530                 0.9059

                     10                     11                     12
                      A                      A                      A
 Frequencies --    276.5674               279.9143               299.1732
 Red. masses --      1.9764                 2.2153                 1.5447
 Frc consts  --      0.0891                 0.1023                 0.0815
 IR Inten    --     11.7923                 5.2411                16.8739

                     13                     14                     15
                      A                      A                      A
 Frequencies --    303.9111               312.0565               358.7093
 Red. masses --      2.1203                 2.0322                 2.6239
 Frc consts  --      0.1154                 0.1166                 0.1989
 IR Inten    --      4.5557                 2.7658                 2.8763

                     16                     17                     18
                      A                      A                      A
 Frequencies --    405.6898               425.3391               439.5091
 Red. masses --      1.8345                 3.9491                 3.0546
 Frc consts  --      0.1779                 0.4209                 0.3476
 IR Inten    --      0.1724                 3.0133                 0.8291

                     19                     20                     21
                      A                      A                      A
 Frequencies --    464.2308               501.8182               517.7150
 Red. masses --      2.2985                 2.2237                 4.3569
 Frc consts  --      0.2919                 0.3299                 0.6880
 IR Inten    --      0.6370                 0.0083                40.2930

                     22                     23                     24
                      A                      A                      A
 Frequencies --    566.4675               596.7558               622.9587
 Red. masses --      3.5775                 3.6454                 2.5486
 Frc consts  --      0.6764                 0.7649                 0.5827
 IR Inten    --     71.9230                 9.5392                38.7196

                     25                     26                     27
                      A                      A                      A
 Frequencies --    636.8377               663.2778               679.3193
 Red. masses --      2.9315                 3.8003                 4.2903
 Frc consts  --      0.7005                 0.9851                 1.1665
 IR Inten    --     29.1664                95.2626                31.9091

                     28                     29                     30
                      A                      A                      A
 Frequencies --    703.8782               786.4721               800.4550
 Red. masses --      2.4952                 2.5102                 1.5013
 Frc consts  --      0.7284                 0.9148                 0.5668
 IR Inten    --    128.9504                 0.8190                 0.0528

                     31                     32                     33
                      A                      A                      A
 Frequencies --    829.8676               851.8041               868.0912
 Red. masses --      2.4420                 2.2364                 1.7294
 Frc consts  --      0.9909                 0.9560                 0.7679
 IR Inten    --      0.3461                 0.5779                 4.1792

                     34                     35                     36
                      A                      A                      A
 Frequencies --    888.6322               929.6697               938.4303
 Red. masses --      2.3784                 2.2854                 1.9966
 Frc consts  --      1.1066                 1.1638                 1.0360
 IR Inten    --      1.2871                 1.1192                 6.6423

                     37                     38                     39
                      A                      A                      A
 Frequencies --    962.7196              1002.3209              1024.9156
 Red. masses --      1.5659                 1.7590                 2.0641
 Frc consts  --      0.8551                 1.0412                 1.2775
 IR Inten    --      7.5563                 2.4114                 1.1468

                     40                     41                     42
                      A                      A                      A
 Frequencies --   1030.2407              1053.8365              1060.3798
 Red. masses --      1.8901                 1.7194                 1.9201
 Frc consts  --      1.1820                 1.1250                 1.2720
 IR Inten    --      3.1649                 1.8909                 1.1453

                     43                     44                     45
                      A                      A                      A
 Frequencies --   1074.2879              1081.5840              1103.8809
 Red. masses --      1.5070                 2.1609                 1.8068
 Frc consts  --      1.0247                 1.4894                 1.2972
 IR Inten    --      1.9748                 3.9722                 0.2958

                     46                     47                     48
                      A                      A                      A
 Frequencies --   1138.8585              1144.3675              1166.1714
 Red. masses --      1.8905                 1.0679                 1.4967
 Frc consts  --      1.4447                 0.8239                 1.1993
 IR Inten    --     25.8922                 0.9585                 4.0077

                     49                     50                     51
                      A                      A                      A
 Frequencies --   1174.7770              1201.8327              1236.5772
 Red. masses --      1.9049                 3.4956                 1.3908
 Frc consts  --      1.5489                 2.9748                 1.2530
 IR Inten    --      4.0339                 2.4493                 4.0479

                     52                     53                     54
                      A                      A                      A
 Frequencies --   1272.6226              1291.1769              1306.5163
 Red. masses --      1.1845                 1.2971                 1.2530
 Frc consts  --      1.1302                 1.2741                 1.2602
 IR Inten    --      4.4626                 1.4929                 0.8450

                     55                     56                     57
                      A                      A                      A
 Frequencies --   1313.5929              1328.8167              1348.7339
 Red. masses --      1.2264                 3.5840                 1.4397
 Frc consts  --      1.2468                 3.7286                 1.5430
 IR Inten    --      4.8497                49.6963                13.0694

                     58                     59                     60
                      A                      A                      A
 Frequencies --   1356.6102              1366.6278              1372.2412
 Red. masses --      2.2973                 1.5186                 1.5009
 Frc consts  --      2.4910                 1.6711                 1.6652
 IR Inten    --     45.6017                10.2954                 5.7813

                     61                     62                     63
                      A                      A                      A
 Frequencies --   1393.8030              1398.4667              1398.8977
 Red. masses --      1.4054                 1.4015                 1.5181
 Frc consts  --      1.6086                 1.6149                 1.7503
 IR Inten    --     14.8321                 1.3253                 3.8528

                     64                     65                     66
                      A                      A                      A
 Frequencies --   1406.6672              1410.4542              1431.2178
 Red. masses --      1.4278                 1.4353                 1.4607
 Frc consts  --      1.6646                 1.6824                 1.7629
 IR Inten    --      1.5032                 0.2966                 2.7388

                     67                     68                     69
                      A                      A                      A
 Frequencies --   1442.1370              1503.9584              1508.2355
 Red. masses --      1.3289                 1.0846                 1.0692
 Frc consts  --      1.6284                 1.4454                 1.4331
 IR Inten    --      8.8645                 7.3544                 3.7336

                     70                     71                     72
                      A                      A                      A
 Frequencies --   1510.2999              1513.9909              1518.1818
 Red. masses --      1.0907                 1.0915                 1.0944
 Frc consts  --      1.4659                 1.4741                 1.4863
 IR Inten    --      1.7187                 0.2979                 3.1609

                     73                     74                     75
                      A                      A                      A
 Frequencies --   1522.0808              1524.9314              1527.7802
 Red. masses --      1.0828                 1.0825                 1.0920
 Frc consts  --      1.4781                 1.4831                 1.5017
 IR Inten    --     11.7221                 7.1342                 1.6078

                     76                     77                     78
                      A                      A                      A
 Frequencies --   1539.3005              1593.2994              1629.1854
 Red. masses --      1.0992                 3.7369                 6.1556
 Frc consts  --      1.5345                 5.5893                 9.6263
 IR Inten    --      3.1097               126.9196                19.1226

                     79                     80                     81
                      A                      A                      A
 Frequencies --   1674.4563              3009.7256              3019.5698
 Red. masses --      1.3661                 1.0785                 1.0677
 Frc consts  --      2.2567                 5.7563                 5.7355
 IR Inten    --    156.2839                18.5585                21.6188

                     82                     83                     84
                      A                      A                      A
 Frequencies --   3021.8943              3029.0696              3031.0291
 Red. masses --      1.0684                 1.0672                 1.0627
 Frc consts  --      5.7485                 5.7693                 5.7524
 IR Inten    --     16.7321                27.5050                26.3545

                     85                     86                     87
                      A                      A                      A
 Frequencies --   3032.6566              3034.8460              3042.2055
 Red. masses --      1.0694                 1.0662                 1.0635
 Frc consts  --      5.7948                 5.7858                 5.7990
 IR Inten    --      7.2664                58.1575                46.1163

                     88                     89                     90
                      A                      A                      A
 Frequencies --   3047.7403              3063.9228              3069.3893
 Red. masses --      1.0406                 1.0979                 1.0916
 Frc consts  --      5.6952                 6.0726                 6.0595
 IR Inten    --     24.9814                54.9104                59.0554

                     91                     92                     93
                      A                      A                      A
 Frequencies --   3070.6253              3071.9497              3078.0451
 Red. masses --      1.0996                 1.1018                 1.1043
 Frc consts  --      6.1085                 6.1260                 6.1643
 IR Inten    --     43.9240                20.0969                87.5619

                     94                     95                     96
                      A                      A                      A
 Frequencies --   3094.0297              3103.4351              3124.1019
 Red. masses --      1.0964                 1.0974                 1.0901
 Frc consts  --      6.1840                 6.2276                 6.2686
 IR Inten    --     55.1564                18.1573                27.0446

                     97                     98                     99
                      A                      A                      A
 Frequencies --   3140.4553              3545.8289              3652.2648
 Red. masses --      1.1009                 1.0472                 1.0989
 Frc consts  --      6.3973                 7.7572                 8.6362
 IR Inten    --     17.4735                28.8045                21.0502

 - Thermochemistry -
 -------------------
 Temperature   298.150 Kelvin.  Pressure   1.00000 Atm.
 Atom     1 has atomic number  6 and mass  12.00000

 Molecular mass:   224.13472 amu.
 Principal axes and moments of inertia in atomic units:
                           1         2         3
     Eigenvalues --  1925.243185904.251045921.50075
           X            0.99998  -0.00044  -0.00574
           Y            0.00152   0.98194   0.18920
           Z            0.00555  -0.18921   0.98192
 This molecule is an asymmetric top.
 Rotational symmetry number  1.
 Warning -- assumption of classical behavior for rotation
           may cause significant error
 Rotational temperatures (Kelvin)      0.04499     0.01467     0.01463
 Rotational constants (GHZ):           0.93741     0.30567     0.30478
 Zero-point vibrational energy     814466.7 (Joules/Mol)
                                  194.66222 (Kcal/Mol)
 Warning -- explicit consideration of  23 degrees of freedom as
           vibrations may cause significant error
 Vibrational temperatures:     39.24    67.75    68.60   145.87   181.29
          (Kelvin)            189.11   232.03   301.49   323.94   397.92
                              402.73   430.44   437.26   448.98   516.10
                              583.70   611.97   632.36   667.92   722.00
                              744.88   815.02   858.60   896.30   916.27
                              954.31   977.39  1012.72  1131.56  1151.68
                             1193.99  1225.56  1248.99  1278.54  1337.59
                             1350.19  1385.14  1442.12  1474.62  1482.29
                             1516.24  1525.65  1545.66  1556.16  1588.24
                             1638.56  1646.49  1677.86  1690.24  1729.17
                             1779.16  1831.02  1857.72  1879.79  1889.97
                             1911.87  1940.53  1951.86  1966.27  1974.35
                             2005.37  2012.08  2012.70  2023.88  2029.33
                             2059.20  2074.91  2163.86  2170.01  2172.98
                             2178.30  2184.32  2189.93  2194.04  2198.13
                             2214.71  2292.40  2344.03  2409.17  4330.32
                             4344.49  4347.83  4358.16  4360.97  4363.32
                             4366.47  4377.06  4385.02  4408.30  4416.17
                             4417.94  4419.85  4428.62  4451.62  4465.15
                             4494.89  4518.41  5101.66  5254.79

 Zero-point correction=                           0.310214 (Hartree/Particle)
 Thermal correction to Energy=                    0.325517
 Thermal correction to Enthalpy=                  0.326461
 Thermal correction to Gibbs Free Energy=         0.267067
 Sum of electronic and zero-point Energies=           -976.789266
 Sum of electronic and thermal Energies=              -976.773963
 Sum of electronic and thermal Enthalpies=            -976.773018
 Sum of electronic and thermal Free Energies=         -976.832413

                     E (Thermal)             CV                S
                      KCal/Mol        Cal/Mol-Kelvin    Cal/Mol-Kelvin
 Total                  204.265             59.418            125.006
 Electronic               0.000              0.000              0.000
 Translational            0.889              2.981             42.124
 Rotational               0.889              2.981             32.576
 Vibrational            202.488             53.456             50.306
 Vibration     1          0.593              1.984              6.018
 Vibration     2          0.595              1.979              4.936
 Vibration     3          0.595              1.978              4.911
 Vibration     4          0.604              1.948              3.428
 Vibration     5          0.611              1.927              3.006
 Vibration     6          0.612              1.922              2.925
 Vibration     7          0.622              1.890              2.535
 Vibration     8          0.642              1.826              2.048
 Vibration     9          0.650              1.803              1.917
 Vibration    10          0.678              1.717              1.555
 Vibration    11          0.680              1.711              1.534
 Vibration    12          0.692              1.675              1.422
 Vibration    13          0.695              1.666              1.395
 Vibration    14          0.700              1.651              1.351
 Vibration    15          0.734              1.557              1.128
 Vibration    16          0.771              1.458              0.942
 Vibration    17          0.787              1.415              0.874
 Vibration    18          0.800              1.384              0.828
 Vibration    19          0.822              1.329              0.754
 Vibration    20          0.857              1.246              0.654
 Vibration    21          0.873              1.211              0.615
 Vibration    22          0.922              1.104              0.511
 Vibration    23          0.955              1.039              0.455

 Optimization completed.
    -- Stationary point found.
 Normal termination of Gaussian 16 at Thu Dec 10 15:49:20 2020.

 ----------------------------------------------------------------------
 # B3LYP/6-311++G(d,p) empiricaldispersion=gd3bj scf=xqc pop=npa geom=c
 heck
 ----------------------------------------------------------------------

 --------------------------------------
 CID_14628034_JID_5279_Energie_neutraal
 --------------------------------------
 Structure from the checkpoint file:  "JID_5279.chk"
 Charge =  0 Multiplicity = 1

 SCF Done:  E(RB3LYP) =  -977.287177483     A.U. after   15 cycles
 Normal termination of Gaussian 16 at Thu Dec 10 15:54:38 2020.

 ----------------------------------------------------------------------
 # B3LYP/6-311++G(d,p) empiricaldispersion=gd3bj scf=xqc pop=npa geom=c
 heck
 ----------------------------------------------------------------------

 ------------------------------------
 CID_14628034_JID_5279_Energie_kation
 ------------------------------------
 Structure from the checkpoint file:  "JID_5279.chk"
 Charge =  1 Multiplicity = 2

 SCF Done:  E(UB3LYP) =  -977.013223961     A.U. after   22 cycles
 Normal termination of Gaussian 16 at Thu Dec 10 16:05:33 2020.
 Gaussian 16:  ES64L-G16RevA.03 25-Dec-2016

 ----------------------------------------------------------------------
 # B3LYP/6-311++G(d,p) empiricaldispersion=gd3bj scf=xqc pop=npa geom=c
 heck
 ----------------------------------------------------------------------

 -----------------------------------
 CID_14628034_JID_5279_Energie_anion
 -----------------------------------
 Structure from the checkpoint file:  "JID_5279.chk"
 Charge = -1 Multiplicity = 2

                         Standard orientation:
 ---------------------------------------------------------------------
 Center     Atomic      Atomic             Coordinates (Angstroms)
 Number     Number       Type             X           Y           Z
 ---------------------------------------------------------------------
      1          6           0       -1.291477    1.738247    2.038009
      2          6           0       -1.743450    0.886249    0.890183
      3          6           0       -1.266171    0.956487   -0.387616
      4         16           0       -2.075054   -0.260711   -1.375486
      5          6           0       -2.969507   -0.765868    0.060032
      6          7           0       -2.698824   -0.091470    1.137869
      7          7           0       -3.942465   -1.743870   -0.014470
      8          6           0       -0.168112    1.811583   -0.952964
      9          6           0        1.258765    1.392429   -0.540186
     10          6           0        1.658846   -0.041943   -0.953490
     11          6           0        3.169938   -0.146089   -1.244495
     12          6           0        4.019473   -0.023722    0.028305
     13          6           0        3.620886   -1.089174    1.058223
     14          6           0        2.119598   -1.027657    1.369835
     15          6           0        1.271477   -1.112339    0.092290
     16          1           0       -2.155935    2.141175    2.576726
     17          1           0       -0.707739    1.148337    2.755952
     18          1           0       -0.670370    2.572386    1.700893
     19          1           0       -4.237917   -2.050904    0.905712
     20          1           0       -3.745870   -2.515097   -0.640140
     21          1           0       -0.233788    1.815677   -2.047737
     22          1           0       -0.331118    2.851276   -0.639923
     23          1           0        1.953588    2.108750   -0.999730
     24          1           0        1.364870    1.522152    0.542535
     25          1           0        1.125355   -0.275267   -1.886440
     26          1           0        3.373905   -1.120852   -1.710808
     27          1           0        3.463492    0.618832   -1.975209
     28          1           0        3.886907    0.975467    0.466652
     29          1           0        5.084173   -0.114150   -0.220685
     30          1           0        4.208484   -0.973141    1.977646
     31          1           0        3.862411   -2.083323    0.653666
     32          1           0        1.898608   -0.092068    1.902194
     33          1           0        1.838959   -1.839164    2.052744
     34          1           0        0.210352   -1.037977    0.343301
     35          1           0        1.419940   -2.102580   -0.362119
 ---------------------------------------------------------------------

 SCF Done:  E(UB3LYP) =  -977.274525882     A.U. after   33 cycles
 SCF Done:  E(UB3LYP) =  -977.274525882     a.u. after    1 cycles

 The electronic state is 2-A.
 Alpha  occ. eigenvalues --  -88.77461 -14.22998 -14.20024 -10.16782 -10.10540
 Alpha  occ. eigenvalues --  -10.09734 -10.08962 -10.07704 -10.07464 -10.07300
 Alpha  occ. eigenvalues --  -10.06821 -10.06778 -10.06756 -10.06549 -10.06000
 Alpha  occ. eigenvalues --   -7.86126  -5.82420  -5.82079  -5.81663  -0.87800
 Alpha  occ. eigenvalues --   -0.80284  -0.74381  -0.71481  -0.67733  -0.66524
 Alpha  occ. eigenvalues --   -0.64351  -0.63073  -0.57670  -0.54012  -0.51127
 Alpha  occ. eigenvalues --   -0.50081  -0.48372  -0.45952  -0.43527  -0.40782
 Alpha  occ. eigenvalues --   -0.39175  -0.38465  -0.36584  -0.35418  -0.34376
 Alpha  occ. eigenvalues --   -0.34088  -0.33063  -0.32304  -0.31735  -0.30369
 Alpha  occ. eigenvalues --   -0.29957  -0.28826  -0.28260  -0.28139  -0.26495
 Alpha  occ. eigenvalues --   -0.25850  -0.24852  -0.24278  -0.23876  -0.21803
 Alpha  occ. eigenvalues --   -0.20829  -0.20211  -0.19682  -0.17788  -0.17452
 Alpha  occ. eigenvalues --   -0.10917   0.04190
 Alpha virt. eigenvalues --    0.05528   0.06557   0.07084   0.07856   0.08511
 Alpha virt. eigenvalues --    0.08648   0.08935   0.09329   0.09682   0.10278
 Alpha virt. eigenvalues --    0.10840   0.11292   0.11424   0.12124   0.12563

  Beta  occ. eigenvalues --  -88.77454 -14.22920 -14.20009 -10.16777 -10.10537
  Beta  occ. eigenvalues --  -10.09729 -10.08952 -10.07693 -10.07462 -10.07288
  Beta  occ. eigenvalues --  -10.06806 -10.06765 -10.06744 -10.06539 -10.05990
  Beta  occ. eigenvalues --   -7.86117  -5.82413  -5.82072  -5.81656  -0.87766
  Beta  occ. eigenvalues --   -0.80192  -0.74361  -0.71458  -0.67706  -0.66498
  Beta  occ. eigenvalues --   -0.64325  -0.63048  -0.57632  -0.53969  -0.51091
  Beta  occ. eigenvalues --   -0.50046  -0.48307  -0.45906  -0.43489  -0.40701
  Beta  occ. eigenvalues --   -0.39135  -0.38425  -0.36558  -0.35395  -0.34352
  Beta  occ. eigenvalues --   -0.34067  -0.33041  -0.32282  -0.31708  -0.30343
  Beta  occ. eigenvalues --   -0.29931  -0.28804  -0.28241  -0.28111  -0.26470
  Beta  occ. eigenvalues --   -0.25828  -0.24826  -0.24256  -0.23853  -0.21768
  Beta  occ. eigenvalues --   -0.20802  -0.20187  -0.19651  -0.17744  -0.17435
  Beta  occ. eigenvalues --   -0.10884
  Beta virt. eigenvalues --    0.06010   0.06900   0.07277   0.07403   0.08144
  Beta virt. eigenvalues --    0.08608   0.09078   0.09111   0.09486   0.10047
  Beta virt. eigenvalues --    0.10480   0.11152   0.11359   0.11756   0.12422

 Mulliken charges and spin densities:
               1          2
     1  C    0.424212  -1.012661
     2  C   -0.665752  -0.563370
     3  C    0.404062   0.946505
     4  S    0.736439  -0.714732
     5  C   -0.336878   0.067451
     6  N    0.092553  -0.030201
     7  N   -0.331192   0.128493
     8  C    0.071498  -1.064309
     9  C    0.052960  -0.020663
    10  C   -0.241028   0.678798
    11  C   -0.141197  -0.455599
    12  C    0.218121  -0.413045
    13  C    0.381076  -0.963257
    14  C   -0.893458   0.640527
    15  C    0.405158  -0.755669
    16  H    0.094517   0.058604
    17  H    0.036627   0.155584
    18  H   -0.024716   0.159936
    19  H   -0.186905   0.452120
    20  H   -0.608736   0.875789
    21  H    0.112623   0.048471
    22  H   -0.034710   0.221201
    23  H   -0.067028   0.250990
    24  H    0.202751  -0.097025
    25  H    0.058674   0.133570
    26  H   -0.061118   0.196019
    27  H   -0.080759   0.223409
    28  H   -0.090885   0.216874
    29  H   -0.301475   0.482461
    30  H   -0.245934   0.409068
    31  H    0.126466  -0.002700
    32  H    0.064272   0.053974
    33  H    0.043635   0.119708
    34  H   -0.024588   0.217001
    35  H   -0.189285   0.356676
 Sum of Mulliken charges =  -1.00000   1.00000

 Dipole moment (field-independent basis, Debye):
    X=              1.8481    Y=              4.5761    Z=             -0.3113  Tot=              4.9450
 Quadrupole moment (field-independent basis, Debye-Ang):
   XX=           -193.2606   YY=           -148.3486   ZZ=           -133.6915
   XY=            -18.8698   XZ=             -0.9806   YZ=             -0.7939

 Summary of Natural Population Analysis:

                                       Natural Population
                Natural  -----------------------------------------------
    Atom  No    Charge         Core      Valence    Rydberg      Total
 -----------------------------------------------------------------------
      C    1   -0.29283      0.99962     2.28828    0.00493     3.29283
      C    2    0.06356      0.99940     1.92442    0.01262     2.93644
      C    3   -0.11457      0.99940     2.10355    0.01162     3.11457
      S    4    0.16657      4.99940     2.81510    0.01893     7.83343
      C    5    0.13719      0.99962     1.84236    0.02083     2.86281
      N    6   -0.27669      0.99962     2.76536    0.01171     3.77669
      N    7   -0.39799      0.99969     2.88610    0.01219     3.89799
      C    8   -0.20237      0.99958     2.19251    0.01029     3.20237
      C    9   -0.18607      0.99960     2.17693    0.00954     3.18607
      C   10   -0.11299      0.99959     2.10284    0.01055     3.11299
      C   11   -0.18518      0.99962     2.17633    0.00923     3.18518
      C   12   -0.19181      0.99963     2.18392    0.00826     3.19181
      C   13   -0.18903      0.99963     2.18148    0.00791     3.18903
      C   14   -0.19132      0.99963     2.18372    0.00797     3.19132
      C   15   -0.19049      0.99961     2.18145    0.00943     3.19049
      H   16    0.10521      0.00000     0.39365    0.00115     0.39479
      H   17    0.10627      0.00000     0.39244    0.00129     0.39373
      H   18    0.10149      0.00000     0.39754    0.00097     0.39851
      H   19    0.19561      0.00000     0.30020    0.00418     0.30439
      H   20    0.19639      0.00000     0.28965    0.01396     0.30361
      H   21    0.10119      0.00000     0.39767    0.00114     0.39881
      H   22    0.10581      0.00000     0.39308    0.00111     0.39419
      H   23    0.09688      0.00000     0.40194    0.00118     0.40312
      H   24    0.09644      0.00000     0.40187    0.00169     0.40356
      H   25    0.09683      0.00000     0.40151    0.00166     0.40317
      H   26    0.09452      0.00000     0.40432    0.00116     0.40548
      H   27    0.09700      0.00000     0.40197    0.00103     0.40300
      H   28    0.09307      0.00000     0.40556    0.00137     0.40693
      H   29    0.09789      0.00000     0.40098    0.00113     0.40211
      H   30    0.09698      0.00000     0.40205    0.00097     0.40302
      H   31    0.09122      0.00000     0.40751    0.00126     0.40878
      H   32    0.09125      0.00000     0.40713    0.00162     0.40875
      H   33    0.09927      0.00000     0.39983    0.00090     0.40073
      H   34    0.10571      0.00000     0.39167    0.00262     0.39429
      H   35    0.09495      0.00000     0.40374    0.00131     0.40505
 =======================================================================
   * Total *    0.00000     18.99362    41.79865    0.20772    61.00000

 Normal termination of Gaussian 16 at Thu Dec 10 16:21:41 2020.
