 Gaussian 16, Revision A.03,

 -----------------------------------------------------------
 # opt freq B3LYP/6-31G(d) empiricaldispersion=gd3bj scf=xqc
 -----------------------------------------------------------

 ------------------------------
 CID_96743000_JID_3501_neutraal
 ------------------------------
 Symbolic Z-matrix:
 Charge =  0 Multiplicity = 1

 SCF Done:  E(RB3LYP) =  -590.257717720     A.U. after   15 cycles
 SCF Done:  E(RB3LYP) =  -590.263870829     A.U. after   12 cycles
 SCF Done:  E(RB3LYP) =  -590.264779248     A.U. after   12 cycles
 SCF Done:  E(RB3LYP) =  -590.265051430     A.U. after   11 cycles
 SCF Done:  E(RB3LYP) =  -590.265240804     A.U. after   12 cycles
 SCF Done:  E(RB3LYP) =  -590.265313713     A.U. after   11 cycles
 SCF Done:  E(RB3LYP) =  -590.265374757     A.U. after   10 cycles
 SCF Done:  E(RB3LYP) =  -590.265450976     A.U. after   10 cycles
 SCF Done:  E(RB3LYP) =  -590.265457297     A.U. after   10 cycles
 SCF Done:  E(RB3LYP) =  -590.265462290     A.U. after    9 cycles
 SCF Done:  E(RB3LYP) =  -590.265463409     A.U. after    8 cycles
 SCF Done:  E(RB3LYP) =  -590.265464118     A.U. after    8 cycles
 SCF Done:  E(RB3LYP) =  -590.265464521     A.U. after    8 cycles
 SCF Done:  E(RB3LYP) =  -590.265464585     A.U. after    6 cycles
 Optimization completed.
    -- Stationary point found.
 Normal termination of Gaussian 16 at Wed Dec  9 23:29:04 2020.

 --------------------------------------------------------------------
 #N Geom=AllCheck Guess=TCheck SCRF=Check GenChk RB3LYP/6-31G(d) Freq
 --------------------------------------------------------------------

 Structure from the checkpoint file:  "JID_3501.chk"
 ------------------------------
 CID_96743000_JID_3501_neutraal
 ------------------------------
 Charge =  0 Multiplicity = 1

 SCF Done:  E(RB3LYP) =  -590.265464585     A.U. after    1 cycles

  Exact polarizability: 149.159  -9.751 102.707  14.135   9.030  88.221
 Approx polarizability: 194.299 -17.990 169.177  27.278  25.624 133.813

                      1                      2                      3
                      A                      A                      A
 Frequencies --     31.7023                48.0396                98.8390
 Red. masses --      4.0826                 4.0280                 1.9111
 Frc consts  --      0.0024                 0.0055                 0.0110
 IR Inten    --      3.4177                 0.4788                 4.9308

                      4                      5                      6
                      A                      A                      A
 Frequencies --    118.9889               152.2042               168.6380
 Red. masses --      2.6268                 1.2917                 3.0812
 Frc consts  --      0.0219                 0.0176                 0.0516
 IR Inten    --      0.4805                 0.1571                 0.3036

                      7                      8                      9
                      A                      A                      A
 Frequencies --    196.9703               212.5783               253.7402
 Red. masses --      3.1798                 2.6231                 1.9770
 Frc consts  --      0.0727                 0.0698                 0.0750
 IR Inten    --      0.0921                 0.7608                 1.0875

                     10                     11                     12
                      A                      A                      A
 Frequencies --    264.2329               314.0033               352.6955
 Red. masses --      1.7381                 2.7011                 2.5988
 Frc consts  --      0.0715                 0.1569                 0.1905
 IR Inten    --      2.3234                 2.4153                 0.0641

                     13                     14                     15
                      A                      A                      A
 Frequencies --    363.6554               502.3494               559.6302
 Red. masses --      5.9631                 3.0746                 4.2565
 Frc consts  --      0.4646                 0.4571                 0.7854
 IR Inten    --      0.4320                 1.9694                 1.3871

                     16                     17                     18
                      A                      A                      A
 Frequencies --    568.9336               614.1854               632.7609
 Red. masses --      4.1439                 3.8708                 4.6420
 Frc consts  --      0.7903                 0.8603                 1.0951
 IR Inten    --      0.2287                 6.5185                13.3818

                     19                     20                     21
                      A                      A                      A
 Frequencies --    667.8178               720.1004               742.5675
 Red. masses --      3.4555                 8.7813                 1.3173
 Frc consts  --      0.9080                 2.6828                 0.4280
 IR Inten    --      4.1386                 7.9163                22.6664

                     22                     23                     24
                      A                      A                      A
 Frequencies --    788.7752               806.6940               820.5407
 Red. masses --      2.4166                 2.9242                 1.3057
 Frc consts  --      0.8859                 1.1212                 0.5180
 IR Inten    --     37.3913                35.8337                12.4447

                     25                     26                     27
                      A                      A                      A
 Frequencies --    840.0457               871.2358               951.0787
 Red. masses --      3.9376                 1.5990                 4.1661
 Frc consts  --      1.6371                 0.7151                 2.2203
 IR Inten    --      4.1635                 7.7626                21.9087

                     28                     29                     30
                      A                      A                      A
 Frequencies --    984.0636              1013.9953              1022.6297
 Red. masses --      2.1883                 1.6328                 1.9480
 Frc consts  --      1.2486                 0.9892                 1.2002
 IR Inten    --     13.6455                 9.1280                 6.2032

                     31                     32                     33
                      A                      A                      A
 Frequencies --   1060.6905              1081.7799              1086.6688
 Red. masses --      1.8243                 1.4037                 3.7333
 Frc consts  --      1.2093                 0.9679                 2.5974
 IR Inten    --      4.1352                 1.2215                21.5381

                     34                     35                     36
                      A                      A                      A
 Frequencies --   1153.5375              1158.1730              1175.3320
 Red. masses --      1.6967                 1.9576                 2.4750
 Frc consts  --      1.3302                 1.5471                 2.0144
 IR Inten    --      9.7037                33.8827                42.6144

                     37                     38                     39
                      A                      A                      A
 Frequencies --   1192.4727              1204.3891              1226.8473
 Red. masses --      1.7307                 1.8904                 2.2181
 Frc consts  --      1.4500                 1.6156                 1.9670
 IR Inten    --      4.3299                13.9990                17.0946

                     40                     41                     42
                      A                      A                      A
 Frequencies --   1256.1064              1291.7191              1305.4144
 Red. masses --      2.2986                 1.7767                 2.4321
 Frc consts  --      2.1368                 1.7466                 2.4419
 IR Inten    --      1.0249                26.9957                 4.7847

                     43                     44                     45
                      A                      A                      A
 Frequencies --   1321.6579              1375.1445              1404.2989
 Red. masses --      1.6187                 1.5329                 1.5585
 Frc consts  --      1.6659                 1.7079                 1.8109
 IR Inten    --      8.0496                 8.7128                22.9095

                     46                     47                     48
                      A                      A                      A
 Frequencies --   1424.4013              1449.5251              1464.6061
 Red. masses --      3.2940                 1.2687                 4.2120
 Frc consts  --      3.9376                 1.5706                 5.3233
 IR Inten    --     29.4389                 0.3013                44.4538

                     49                     50                     51
                      A                      A                      A
 Frequencies --   1484.9255              1492.4179              1507.7664
 Red. masses --      1.1796                 1.1908                 1.0422
 Frc consts  --      1.5325                 1.5627                 1.3960
 IR Inten    --      2.0172                 8.2556                 8.0376

                     52                     53                     54
                      A                      A                      A
 Frequencies --   1512.5690              1520.4976              1526.5318
 Red. masses --      1.1949                 1.0687                 1.2076
 Frc consts  --      1.6107                 1.4557                 1.6580
 IR Inten    --     34.4356                 3.2595                12.4946

                     55                     56                     57
                      A                      A                      A
 Frequencies --   1543.6195              1550.2108              1594.7965
 Red. masses --      1.0736                 1.0692                 4.7786
 Frc consts  --      1.5073                 1.5139                 7.1608
 IR Inten    --     21.1599                 1.1791                23.1313

                     58                     59                     60
                      A                      A                      A
 Frequencies --   1629.4125              1696.4136              2953.6260
 Red. masses --      8.7214                 7.7799                 1.0712
 Frc consts  --     13.6426                13.1914                 5.5058
 IR Inten    --    148.6854                64.5287                32.2333

                     61                     62                     63
                      A                      A                      A
 Frequencies --   2961.8771              3029.1768              3058.0419
 Red. masses --      1.0615                 1.0398                 1.0687
 Frc consts  --      5.4864                 5.6215                 5.8884
 IR Inten    --    116.2596                45.3229                 6.4421

                     64                     65                     66
                      A                      A                      A
 Frequencies --   3069.5111              3072.3119              3074.3475
 Red. masses --      1.0827                 1.1019                 1.0748
 Frc consts  --      6.0103                 6.1279                 5.9851
 IR Inten    --     49.6936                26.5371                57.5419

                     67                     68                     69
                      A                      A                      A
 Frequencies --   3116.8424              3122.0572              3134.5217
 Red. masses --      1.1009                 1.1020                 1.0967
 Frc consts  --      6.3010                 6.3287                 6.3486
 IR Inten    --     11.7557                29.9774                11.9760

                     70                     71                     72
                      A                      A                      A
 Frequencies --   3258.0015              3310.8466              3485.0117
 Red. masses --      1.0960                 1.0987                 1.0734
 Frc consts  --      6.8546                 7.0957                 7.6814
 IR Inten    --      7.6894                 4.7277                 0.6328

 - Thermochemistry -
 -------------------
 Temperature   298.150 Kelvin.  Pressure   1.00000 Atm.
 Atom     1 has atomic number  6 and mass  12.00000

 Molecular mass:   179.10586 amu.
 Principal axes and moments of inertia in atomic units:
                           1         2         3
     Eigenvalues --  1105.823464305.997004551.71911
           X            0.99983  -0.01526  -0.01049
           Y            0.01483   0.99906  -0.04061
           Z            0.01110   0.04045   0.99912
 This molecule is an asymmetric top.
 Rotational symmetry number  1.
 Warning -- assumption of classical behavior for rotation
           may cause significant error
 Rotational temperatures (Kelvin)      0.07833     0.02011     0.01903
 Rotational constants (GHZ):           1.63203     0.41912     0.39650
 Zero-point vibrational energy     574337.9 (Joules/Mol)
                                  137.27004 (Kcal/Mol)
 Warning -- explicit consideration of  17 degrees of freedom as
           vibrations may cause significant error
 Vibrational temperatures:     45.61    69.12   142.21   171.20   218.99
          (Kelvin)            242.63   283.40   305.85   365.08   380.17
                              451.78   507.45   523.22   722.77   805.18
                              818.57   883.68   910.40   960.84  1036.06
                             1068.39  1134.87  1160.65  1180.58  1208.64
                             1253.51  1368.39  1415.85  1458.91  1471.34
                             1526.10  1556.44  1563.47  1659.68  1666.35
                             1691.04  1715.70  1732.85  1765.16  1807.26
                             1858.50  1878.20  1901.57  1978.53  2020.47
                             2049.40  2085.54  2107.24  2136.48  2147.26
                             2169.34  2176.25  2187.66  2196.34  2220.92
                             2230.41  2294.56  2344.36  2440.76  4249.61
                             4261.48  4358.31  4399.84  4416.34  4420.37
                             4423.30  4484.44  4491.94  4509.88  4687.54
                             4763.57  5014.15

 Zero-point correction=                           0.218754 (Hartree/Particle)
 Thermal correction to Energy=                    0.231181
 Thermal correction to Enthalpy=                  0.232125
 Thermal correction to Gibbs Free Energy=         0.178990
 Sum of electronic and zero-point Energies=           -590.046711
 Sum of electronic and thermal Energies=              -590.034284
 Sum of electronic and thermal Enthalpies=            -590.033340
 Sum of electronic and thermal Free Energies=         -590.086475

                     E (Thermal)             CV                S
                      KCal/Mol        Cal/Mol-Kelvin    Cal/Mol-Kelvin
 Total                  145.068             45.969            111.832
 Electronic               0.000              0.000              0.000
 Translational            0.889              2.981             41.455
 Rotational               0.889              2.981             31.450
 Vibrational            143.291             40.007             38.927
 Vibration     1          0.594              1.983              5.720
 Vibration     2          0.595              1.978              4.897
 Vibration     3          0.604              1.950              3.477
 Vibration     4          0.609              1.933              3.117
 Vibration     5          0.619              1.900              2.644
 Vibration     6          0.625              1.881              2.451
 Vibration     7          0.636              1.844              2.161
 Vibration     8          0.644              1.822              2.021
 Vibration     9          0.665              1.756              1.704
 Vibration    10          0.671              1.739              1.634
 Vibration    11          0.702              1.647              1.341
 Vibration    12          0.729              1.570              1.154
 Vibration    13          0.737              1.547              1.106
 Vibration    14          0.858              1.245              0.652
 Vibration    15          0.915              1.119              0.525
 Vibration    16          0.925              1.098              0.506
 Vibration    17          0.974              1.002              0.426

                           ! Non-Optimized Parameters !
 Normal termination of Gaussian 16 at Wed Dec  9 23:34:28 2020.

 ----------------------------------------------------------------------
 # B3LYP/6-311++G(d,p) empiricaldispersion=gd3bj scf=xqc pop=npa geom=c
 heck
 ----------------------------------------------------------------------

 --------------------------------------
 CID_96743000_JID_3501_Energie_neutraal
 --------------------------------------
 Structure from the checkpoint file:  "JID_3501.chk"
 Charge =  0 Multiplicity = 1

 SCF Done:  E(RB3LYP) =  -590.427956538     A.U. after   15 cycles
 Normal termination of Gaussian 16 at Wed Dec  9 23:36:30 2020.

 ----------------------------------------------------------------------
 # B3LYP/6-311++G(d,p) empiricaldispersion=gd3bj scf=xqc pop=npa geom=c
 heck
 ----------------------------------------------------------------------

 ------------------------------------
 CID_96743000_JID_3501_Energie_kation
 ------------------------------------
 Structure from the checkpoint file:  "JID_3501.chk"
 Charge =  1 Multiplicity = 2

 SCF Done:  E(UB3LYP) =  -590.139540355     A.U. after   26 cycles
 Normal termination of Gaussian 16 at Wed Dec  9 23:41:12 2020.
 Gaussian 16:  ES64L-G16RevA.03 25-Dec-2016

 ----------------------------------------------------------------------
 # B3LYP/6-311++G(d,p) empiricaldispersion=gd3bj scf=xqc pop=npa geom=c
 heck
 ----------------------------------------------------------------------

 -----------------------------------
 CID_96743000_JID_3501_Energie_anion
 -----------------------------------
 Structure from the checkpoint file:  "JID_3501.chk"
 Charge = -1 Multiplicity = 2

                         Standard orientation:
 ---------------------------------------------------------------------
 Center     Atomic      Atomic             Coordinates (Angstroms)
 Number     Number       Type             X           Y           Z
 ---------------------------------------------------------------------
      1          6           0       -3.391798    1.836934    0.303014
      2          6           0       -2.729198    0.570539   -0.113296
      3          6           0       -3.125708   -0.487168   -0.908717
      4          7           0       -2.159454   -1.482617   -1.025676
      5          6           0       -1.191994   -1.005305   -0.295721
      6          7           0       -1.443343    0.209243    0.283643
      7          6           0       -0.316060    0.573639    1.023208
      8          6           0        0.579119   -0.433949    0.875425
      9          8           0        0.051671   -1.428202    0.050761
     10          6           0        1.968893   -0.633609    1.361808
     11          6           0        3.016937   -0.490804    0.244883
     12          7           0        3.025967    0.868660   -0.276512
     13          6           0        3.983002    1.050391   -1.361209
     14          1           0       -4.391161    1.889204   -0.138053
     15          1           0       -2.835697    2.724574   -0.027626
     16          1           0       -3.505534    1.906570    1.393237
     17          1           0       -4.076902   -0.586857   -1.414460
     18          1           0       -0.236754    1.488795    1.587189
     19          1           0        2.172876    0.112376    2.136447
     20          1           0        2.055477   -1.627646    1.817203
     21          1           0        4.008014   -0.702737    0.665296
     22          1           0        2.827217   -1.256518   -0.530512
     23          1           0        2.090735    1.092195   -0.613712
     24          1           0        3.856268    0.341961   -2.200665
     25          1           0        3.900239    2.068587   -1.754367
     26          1           0        5.000496    0.924101   -0.972625
 ---------------------------------------------------------------------

 SCF Done:  E(UB3LYP) =  -590.416571203     A.U. after   31 cycles

 The electronic state is 2-A.
 Alpha  occ. eigenvalues --  -19.10344 -14.28419 -14.20599 -14.20046 -10.18198
 Alpha  occ. eigenvalues --  -10.14992 -10.12457 -10.11177 -10.10462 -10.09502
 Alpha  occ. eigenvalues --  -10.09480 -10.09114 -10.07911  -1.04390  -0.91830
 Alpha  occ. eigenvalues --   -0.81722  -0.81383  -0.70901  -0.69313  -0.63958
 Alpha  occ. eigenvalues --   -0.60443  -0.57594  -0.53831  -0.52148  -0.51461
 Alpha  occ. eigenvalues --   -0.48304  -0.41290  -0.39928  -0.39807  -0.38844
 Alpha  occ. eigenvalues --   -0.37512  -0.36731  -0.33892  -0.33270  -0.33008
 Alpha  occ. eigenvalues --   -0.31953  -0.30883  -0.29804  -0.29752  -0.28823
 Alpha  occ. eigenvalues --   -0.27564  -0.27057  -0.26828  -0.23717  -0.19133
 Alpha  occ. eigenvalues --   -0.14144  -0.13256  -0.12195   0.04171
 Alpha virt. eigenvalues --    0.06000   0.06861   0.07740   0.08781   0.08941
 Alpha virt. eigenvalues --    0.09219   0.09922   0.10223   0.10812   0.11249
 Alpha virt. eigenvalues --    0.11658   0.12303   0.13172   0.13447   0.14348

  Beta  occ. eigenvalues --  -19.10328 -14.28419 -14.20582 -14.20044 -10.18196
  Beta  occ. eigenvalues --  -10.14981 -10.12416 -10.11176 -10.10442 -10.09484
  Beta  occ. eigenvalues --  -10.09452 -10.09107 -10.07855  -1.04366  -0.91816
  Beta  occ. eigenvalues --   -0.81699  -0.81366  -0.70859  -0.69281  -0.63916
  Beta  occ. eigenvalues --   -0.60383  -0.57536  -0.53768  -0.52120  -0.51411
  Beta  occ. eigenvalues --   -0.48268  -0.41242  -0.39901  -0.39736  -0.38808
  Beta  occ. eigenvalues --   -0.37473  -0.36689  -0.33856  -0.33229  -0.32959
  Beta  occ. eigenvalues --   -0.31924  -0.30837  -0.29761  -0.29711  -0.28785
  Beta  occ. eigenvalues --   -0.27531  -0.27009  -0.26785  -0.23677  -0.19120
  Beta  occ. eigenvalues --   -0.14098  -0.13205  -0.12164
  Beta virt. eigenvalues --    0.06393   0.06987   0.07439   0.08457   0.09119
  Beta virt. eigenvalues --    0.09369   0.09546   0.10473   0.10561   0.11292
  Beta virt. eigenvalues --    0.11755   0.12015   0.12619   0.13446   0.13630

 Mulliken charges and spin densities:
               1          2
     1  C    2.574490  -3.175421
     2  C   -0.906536   1.090466
     3  C   -0.512543   0.252947
     4  N   -0.246833   0.033664
     5  C    0.137685   0.107495
     6  N    0.101539   0.079581
     7  C    0.313056  -0.454153
     8  C   -0.609808   0.876853
     9  O   -0.094311   0.012586
    10  C    0.698893  -1.556495
    11  C    0.254342  -0.667318
    12  N   -0.260179   0.140317
    13  C    0.428942  -0.771287
    14  H   -0.204760   0.356410
    15  H   -0.393789   0.561218
    16  H   -0.454096   0.626568
    17  H   -0.082020   0.239553
    18  H   -0.960295   1.161997
    19  H   -0.172108   0.366094
    20  H   -0.169226   0.348283
    21  H   -0.221147   0.388915
    22  H    0.102330   0.024514
    23  H    0.223930   0.036846
    24  H   -0.054446   0.168877
    25  H   -0.265202   0.393421
    26  H   -0.227909   0.358070
 Sum of Mulliken charges =  -1.00000   1.00000

 Dipole moment (field-independent basis, Debye):
    X=              0.2393    Y=             -3.5045    Z=             -1.7918  Tot=              3.9432
 Quadrupole moment (field-independent basis, Debye-Ang):
   XX=           -152.8463   YY=           -125.8503   ZZ=           -114.7023
   XY=              2.7531   XZ=              1.9298   YZ=             -7.8556

 Summary of Natural Population Analysis:

                                       Natural Population
                Natural  -----------------------------------------------
    Atom  No    Charge         Core      Valence    Rydberg      Total
 -----------------------------------------------------------------------
      C    1   -0.29940      0.99964     2.29421    0.00555     3.29940
      C    2    0.04827      0.99954     1.93940    0.01279     2.95173
      C    3   -0.02726      0.99952     2.01472    0.01303     3.02726
      N    4   -0.27750      0.99967     2.76749    0.01034     3.77750
      C    5    0.33791      0.99949     1.64168    0.02091     2.66209
      N    6   -0.21051      0.99958     2.69954    0.01139     3.71051
      C    7   -0.03328      0.99945     2.02214    0.01169     3.03328
      C    8    0.14287      0.99946     1.84226    0.01541     2.85713
      O    9   -0.24242      0.99985     3.23558    0.00700     4.24242
      C   10   -0.21699      0.99958     2.20733    0.01008     3.21699
      C   11   -0.08149      0.99963     2.07005    0.01182     3.08149
      N   12   -0.33796      0.99975     2.82656    0.01165     3.83796
      C   13   -0.17538      0.99967     2.16890    0.00682     3.17538
      H   14    0.10853      0.00000     0.39035    0.00111     0.39147
      H   15    0.10669      0.00000     0.39127    0.00203     0.39331
      H   16    0.10805      0.00000     0.38924    0.00271     0.39195
      H   17    0.09534      0.00000     0.40363    0.00103     0.40466
      H   18    0.11888      0.00000     0.37836    0.00276     0.38112
      H   19    0.11509      0.00000     0.38304    0.00188     0.38491
      H   20    0.11016      0.00000     0.38854    0.00130     0.38984
      H   21    0.09412      0.00000     0.40425    0.00163     0.40588
      H   22    0.08083      0.00000     0.41753    0.00163     0.41917
      H   23    0.17267      0.00000     0.32328    0.00405     0.32733
      H   24    0.07697      0.00000     0.42110    0.00194     0.42303
      H   25    0.09533      0.00000     0.40352    0.00115     0.40467
      H   26    0.09048      0.00000     0.40787    0.00165     0.40952
 =======================================================================
   * Total *    0.00000     12.99482    34.83183    0.17335    48.00000

 Normal termination of Gaussian 16 at Wed Dec  9 23:46:49 2020.
