 Gaussian 16, Revision A.03,

 -----------------------------------------------------------
 # opt freq B3LYP/6-31G(d) empiricaldispersion=gd3bj scf=xqc
 -----------------------------------------------------------

 -------------------------------
 CID_122007480_JID_7662_neutraal
 -------------------------------
 Symbolic Z-matrix:
 Charge =  0 Multiplicity = 1

 SCF Done:  E(RB3LYP) =  -841.644511168     A.U. after   14 cycles
 SCF Done:  E(RB3LYP) =  -841.642990846     A.U. after   13 cycles
 SCF Done:  E(RB3LYP) =  -841.651316859     A.U. after   12 cycles
 SCF Done:  E(RB3LYP) =  -841.653446021     A.U. after   12 cycles
 SCF Done:  E(RB3LYP) =  -841.653929616     A.U. after   13 cycles
 SCF Done:  E(RB3LYP) =  -841.654939356     A.U. after   12 cycles
 SCF Done:  E(RB3LYP) =  -841.655406192     A.U. after   12 cycles
 SCF Done:  E(RB3LYP) =  -841.654483307     A.U. after   13 cycles
 SCF Done:  E(RB3LYP) =  -841.655519635     A.U. after   12 cycles
 SCF Done:  E(RB3LYP) =  -841.656037953     A.U. after   11 cycles
 SCF Done:  E(RB3LYP) =  -841.656233456     A.U. after    8 cycles
 SCF Done:  E(RB3LYP) =  -841.656233938     A.U. after    7 cycles
 SCF Done:  E(RB3LYP) =  -841.656234547     A.U. after    8 cycles
 SCF Done:  E(RB3LYP) =  -841.656234681     A.U. after    7 cycles
 Optimization completed.
    -- Stationary point found.
 Normal termination of Gaussian 16 at Fri Dec 11 13:09:26 2020.

 --------------------------------------------------------------------
 #N Geom=AllCheck Guess=TCheck SCRF=Check GenChk RB3LYP/6-31G(d) Freq
 --------------------------------------------------------------------

 Structure from the checkpoint file:  "JID_7662.chk"
 -------------------------------
 CID_122007480_JID_7662_neutraal
 -------------------------------
 Charge =  0 Multiplicity = 1

 SCF Done:  E(RB3LYP) =  -841.656234681     A.U. after    1 cycles

  Exact polarizability: 152.686   5.589 142.203   1.505  -2.267 117.701
 Approx polarizability: 197.728   7.395 202.899  -4.882  -1.232 174.133

                      1                      2                      3
                      A                      A                      A
 Frequencies --     30.9617                38.6767                50.2409
 Red. masses --      4.4462                 4.2281                 5.8066
 Frc consts  --      0.0025                 0.0037                 0.0086
 IR Inten    --      1.0931                 0.9369                 2.7712

                      4                      5                      6
                      A                      A                      A
 Frequencies --     56.6177                73.0280                85.9366
 Red. masses --      5.6229                 3.9508                 5.8229
 Frc consts  --      0.0106                 0.0124                 0.0253
 IR Inten    --      1.5991                 0.3596                 4.6679

                      7                      8                      9
                      A                      A                      A
 Frequencies --     92.4384               102.8555               116.4668
 Red. masses --      2.9737                 3.2744                 2.2337
 Frc consts  --      0.0150                 0.0204                 0.0179
 IR Inten    --      0.1122                 1.1480                 3.2947

                     10                     11                     12
                      A                      A                      A
 Frequencies --    127.2871               145.9584               164.6254
 Red. masses --      3.1672                 1.7047                 3.1850
 Frc consts  --      0.0302                 0.0214                 0.0509
 IR Inten    --      0.1592                 1.2415                 1.7062

                     13                     14                     15
                      A                      A                      A
 Frequencies --    191.6617               225.5005               231.1984
 Red. masses --      2.6038                 2.5895                 1.9423
 Frc consts  --      0.0564                 0.0776                 0.0612
 IR Inten    --      1.0329                 4.0704                 1.1189

                     16                     17                     18
                      A                      A                      A
 Frequencies --    255.9150               299.8023               344.8927
 Red. masses --      2.3089                 2.9297                 3.0466
 Frc consts  --      0.0891                 0.1551                 0.2135
 IR Inten    --      6.3974                 2.9940                 5.5520

                     19                     20                     21
                      A                      A                      A
 Frequencies --    362.5247               365.6020               392.5984
 Red. masses --      2.8463                 2.8822                 2.7887
 Frc consts  --      0.2204                 0.2270                 0.2532
 IR Inten    --      1.7051                 0.4778                 4.9345

                     22                     23                     24
                      A                      A                      A
 Frequencies --    400.1277               434.9970               451.8046
 Red. masses --      2.7897                 2.6666                 3.0920
 Frc consts  --      0.2632                 0.2973                 0.3719
 IR Inten    --      0.3388                 3.1863                12.2674

                     25                     26                     27
                      A                      A                      A
 Frequencies --    558.4093               566.0913               616.2220
 Red. masses --      3.1906                 3.5624                 4.1075
 Frc consts  --      0.5862                 0.6726                 0.9190
 IR Inten    --     40.6408                25.8054                24.9371

                     28                     29                     30
                      A                      A                      A
 Frequencies --    656.6016               675.3046               743.1519
 Red. masses --      1.8008                 2.6332                 2.1597
 Frc consts  --      0.4574                 0.7075                 0.7028
 IR Inten    --     40.3839                24.9852                62.1531

                     31                     32                     33
                      A                      A                      A
 Frequencies --    755.0882               764.3950               798.7728
 Red. masses --      2.6234                 3.3315                 1.3307
 Frc consts  --      0.8813                 1.1469                 0.5002
 IR Inten    --      9.0699                15.3261                 4.5867

                     34                     35                     36
                      A                      A                      A
 Frequencies --    823.0773               840.1993               846.8056
 Red. masses --      2.4495                 1.3759                 2.0801
 Frc consts  --      0.9777                 0.5723                 0.8788
 IR Inten    --      7.5054                10.6949                60.4216

                     37                     38                     39
                      A                      A                      A
 Frequencies --    872.8717               932.9527               947.1859
 Red. masses --      1.9211                 2.5185                 3.2427
 Frc consts  --      0.8624                 1.2915                 1.7141
 IR Inten    --     28.5370                 2.8973                 4.8985

                     40                     41                     42
                      A                      A                      A
 Frequencies --    954.7381               978.9092               997.4327
 Red. masses --      2.7040                 2.3513                 2.4542
 Frc consts  --      1.4522                 1.3275                 1.4386
 IR Inten    --      1.6839                17.5607                24.5452

                     43                     44                     45
                      A                      A                      A
 Frequencies --   1018.6890              1038.3229              1061.2885
 Red. masses --      1.7861                 1.9152                 1.6530
 Frc consts  --      1.0920                 1.2166                 1.0970
 IR Inten    --      5.3097                72.3049                10.5156

                     46                     47                     48
                      A                      A                      A
 Frequencies --   1068.5673              1074.9272              1092.1200
 Red. masses --      1.9541                 1.8973                 1.3976
 Frc consts  --      1.3146                 1.2916                 0.9821
 IR Inten    --     44.9946                 6.8890                 1.2821

                     49                     50                     51
                      A                      A                      A
 Frequencies --   1145.6869              1147.3945              1153.1365
 Red. masses --      1.7456                 2.3703                 1.2114
 Frc consts  --      1.3500                 1.8386                 0.9491
 IR Inten    --     76.3837                49.1287                13.8583

                     52                     53                     54
                      A                      A                      A
 Frequencies --   1169.3144              1169.6193              1192.1787
 Red. masses --      1.6610                 2.4934                 1.4701
 Frc consts  --      1.3381                 2.0097                 1.2311
 IR Inten    --     43.3328               109.0764                 4.3831

                     55                     56                     57
                      A                      A                      A
 Frequencies --   1211.3270              1216.0654              1217.7745
 Red. masses --      2.0909                 1.5708                 2.0746
 Frc consts  --      1.8077                 1.3687                 1.8127
 IR Inten    --     57.3545                32.4472                53.7354

                     58                     59                     60
                      A                      A                      A
 Frequencies --   1234.1992              1241.5439              1257.9973
 Red. masses --      1.6461                 1.8438                 1.5553
 Frc consts  --      1.4773                 1.6745                 1.4501
 IR Inten    --    102.1342                 5.8524                30.6859

                     61                     62                     63
                      A                      A                      A
 Frequencies --   1272.8853              1285.1274              1298.6684
 Red. masses --      2.0286                 1.2733                 1.6286
 Frc consts  --      1.9365                 1.2390                 1.6183
 IR Inten    --     38.3941                35.1446                73.4903

                     64                     65                     66
                      A                      A                      A
 Frequencies --   1323.6386              1339.3124              1360.1163
 Red. masses --      1.3293                 1.5848                 1.3331
 Frc consts  --      1.3722                 1.6749                 1.4530
 IR Inten    --      6.8643                39.4445                 6.2909

                     67                     68                     69
                      A                      A                      A
 Frequencies --   1409.9988              1418.9508              1428.6615
 Red. masses --      1.9052                 1.4577                 1.6690
 Frc consts  --      2.2317                 1.7292                 2.0071
 IR Inten    --    194.6129                94.1632                11.4669

                     70                     71                     72
                      A                      A                      A
 Frequencies --   1433.7896              1452.8239              1480.5107
 Red. masses --      1.7234                 1.5486                 1.2472
 Frc consts  --      2.0875                 1.9258                 1.6106
 IR Inten    --     83.1385                13.6427                54.6795

                     73                     74                     75
                      A                      A                      A
 Frequencies --   1489.3782              1496.0338              1503.9624
 Red. masses --      1.0948                 1.3036                 1.1639
 Frc consts  --      1.4309                 1.7191                 1.5511
 IR Inten    --      2.0946                15.0280                 1.3850

                     76                     77                     78
                      A                      A                      A
 Frequencies --   1509.9172              1515.4773              1526.7348
 Red. masses --      1.1022                 1.0490                 1.0690
 Frc consts  --      1.4806                 1.4194                 1.4682
 IR Inten    --     10.9855                 5.9038                 7.5690

                     79                     80                     81
                      A                      A                      A
 Frequencies --   1529.7256              1534.9292              1539.8633
 Red. masses --      1.0675                 1.3603                 1.0946
 Frc consts  --      1.4718                 1.8882                 1.5292
 IR Inten    --     16.4371                 6.3584                 9.4913

                     82                     83                     84
                      A                      A                      A
 Frequencies --   1541.3579              1551.2072              1778.1831
 Red. masses --      1.1148                 1.0926                 7.6487
 Frc consts  --      1.5604                 1.5490                14.2491
 IR Inten    --      7.0476                 2.7765               344.7508

                     85                     86                     87
                      A                      A                      A
 Frequencies --   1832.3707              2984.6529              2993.7550
 Red. masses --      9.2481                 1.0514                 1.0754
 Frc consts  --     18.2950                 5.5181                 5.6785
 IR Inten    --    324.5378                30.3159                58.4495

                     88                     89                     90
                      A                      A                      A
 Frequencies --   2998.8564              3018.4911              3025.7923
 Red. masses --      1.0412                 1.0552                 1.1060
 Frc consts  --      5.5171                 5.6646                 5.9658
 IR Inten    --     76.6318                71.5977                62.4879

                     91                     92                     93
                      A                      A                      A
 Frequencies --   3042.8248              3083.6570              3117.4748
 Red. masses --      1.1053                 1.0645                 1.0860
 Frc consts  --      6.0298                 5.9640                 6.2185
 IR Inten    --     48.4786                 8.2396                22.5817

                     94                     95                     96
                      A                      A                      A
 Frequencies --   3139.2471              3143.4869              3145.9881
 Red. masses --      1.0973                 1.0989                 1.0535
 Frc consts  --      6.3715                 6.3980                 6.1434
 IR Inten    --     31.9158                12.7129                16.2502

                     97                     98                     99
                      A                      A                      A
 Frequencies --   3153.0561              3156.2346              3173.4655
 Red. masses --      1.0681                 1.0721                 1.0887
 Frc consts  --      6.2567                 6.2927                 6.4601
 IR Inten    --     15.1982                 5.6920                 5.8578

                    100                    101                    102
                      A                      A                      A
 Frequencies --   3194.3252              3196.4241              3224.4996
 Red. masses --      1.0981                 1.0881                 1.1187
 Frc consts  --      6.6017                 6.5498                 6.8531
 IR Inten    --      2.9152                 1.9978                 4.3003

                    103                    104                    105
                      A                      A                      A
 Frequencies --   3241.9435              3545.7485              3675.6998
 Red. masses --      1.1156                 1.0737                 1.0638
 Frc consts  --      6.9082                 7.9532                 8.4683
 IR Inten    --     20.8552                34.2613                46.4025

 - Thermochemistry -
 -------------------
 Temperature   298.150 Kelvin.  Pressure   1.00000 Atm.
 Atom     1 has atomic number  6 and mass  12.00000

 Molecular mass:   244.14231 amu.
 Principal axes and moments of inertia in atomic units:
                           1         2         3
     Eigenvalues --  3215.114245200.225626711.37989
           X            0.99949   0.02431   0.02084
           Y           -0.02363   0.99920  -0.03223
           Z           -0.02161   0.03172   0.99926
 This molecule is an asymmetric top.
 Rotational symmetry number  1.
 Warning -- assumption of classical behavior for rotation
           may cause significant error
 Rotational temperatures (Kelvin)      0.02694     0.01666     0.01291
 Rotational constants (GHZ):           0.56133     0.34705     0.26891
 Zero-point vibrational energy     838518.4 (Joules/Mol)
                                  200.41070 (Kcal/Mol)
 Warning -- explicit consideration of  27 degrees of freedom as
           vibrations may cause significant error
 Vibrational temperatures:     44.55    55.65    72.29    81.46   105.07
          (Kelvin)            123.64   133.00   147.99   167.57   183.14
                              210.00   236.86   275.76   324.44   332.64
                              368.20   431.35   496.22   521.59   526.02
                              564.86   575.69   625.86   650.05   803.43
                              814.48   886.61   944.70   971.61  1069.23
                             1086.40  1099.79  1149.26  1184.22  1208.86
                             1218.36  1255.87  1342.31  1362.79  1373.66
                             1408.43  1435.08  1465.67  1493.92  1526.96
                             1537.43  1546.58  1571.32  1648.39  1650.84
                             1659.11  1682.38  1682.82  1715.28  1742.83
                             1749.65  1752.11  1775.74  1786.30  1809.98
                             1831.40  1849.01  1868.49  1904.42  1926.97
                             1956.90  2028.67  2041.55  2055.53  2062.90
                             2090.29  2130.12  2142.88  2152.46  2163.87
                             2172.43  2180.43  2196.63  2200.93  2208.42
                             2215.52  2217.67  2231.84  2558.41  2636.37
                             4294.25  4307.35  4314.69  4342.94  4353.44
                             4377.95  4436.69  4485.35  4516.68  4522.78
                             4526.38  4536.54  4541.12  4565.91  4595.92
                             4598.94  4639.34  4664.43  5101.54  5288.51

 Zero-point correction=                           0.319375 (Hartree/Particle)
 Thermal correction to Energy=                    0.338156
 Thermal correction to Enthalpy=                  0.339100
 Thermal correction to Gibbs Free Energy=         0.270730
 Sum of electronic and zero-point Energies=           -841.336860
 Sum of electronic and thermal Energies=              -841.318079
 Sum of electronic and thermal Enthalpies=            -841.317135
 Sum of electronic and thermal Free Energies=         -841.385504

                     E (Thermal)             CV                S
                      KCal/Mol        Cal/Mol-Kelvin    Cal/Mol-Kelvin
 Total                  212.196             67.536            143.896
 Electronic               0.000              0.000              0.000
 Translational            0.889              2.981             42.379
 Rotational               0.889              2.981             33.084
 Vibrational            210.418             61.574             68.433
 Vibration     1          0.594              1.984              5.767
 Vibration     2          0.594              1.981              5.326
 Vibration     3          0.595              1.977              4.808
 Vibration     4          0.596              1.975              4.572
 Vibration     5          0.599              1.967              4.070
 Vibration     6          0.601              1.959              3.751
 Vibration     7          0.602              1.955              3.608
 Vibration     8          0.605              1.947              3.399
 Vibration     9          0.608              1.936              3.158
 Vibration    10          0.611              1.926              2.987
 Vibration    11          0.617              1.907              2.724
 Vibration    12          0.623              1.886              2.496
 Vibration    13          0.634              1.851              2.212
 Vibration    14          0.650              1.802              1.914
 Vibration    15          0.653              1.793              1.870
 Vibration    16          0.666              1.753              1.689
 Vibration    17          0.692              1.674              1.418
 Vibration    18          0.723              1.586              1.189
 Vibration    19          0.736              1.549              1.111
 Vibration    20          0.739              1.543              1.098
 Vibration    21          0.760              1.486              0.990
 Vibration    22          0.766              1.470              0.962
 Vibration    23          0.796              1.394              0.842
 Vibration    24          0.810              1.357              0.790
 Vibration    25          0.914              1.121              0.527
 Vibration    26          0.922              1.105              0.512
 Vibration    27          0.976              0.998              0.423

                           ! Non-Optimized Parameters !
 Normal termination of Gaussian 16 at Fri Dec 11 13:24:31 2020.

 ----------------------------------------------------------------------
 # B3LYP/6-311++G(d,p) empiricaldispersion=gd3bj scf=xqc pop=npa geom=c
 heck
 ----------------------------------------------------------------------

 ---------------------------------------
 CID_122007480_JID_7662_Energie_neutraal
 ---------------------------------------
 Structure from the checkpoint file:  "JID_7662.chk"
 Charge =  0 Multiplicity = 1

 SCF Done:  E(RB3LYP) =  -841.913772580     A.U. after   14 cycles
 Normal termination of Gaussian 16 at Fri Dec 11 13:30:18 2020.

 ----------------------------------------------------------------------
 # B3LYP/6-311++G(d,p) empiricaldispersion=gd3bj scf=xqc pop=npa geom=c
 heck
 ----------------------------------------------------------------------

 -------------------------------------
 CID_122007480_JID_7662_Energie_kation
 -------------------------------------
 Structure from the checkpoint file:  "JID_7662.chk"
 Charge =  1 Multiplicity = 2

 SCF Done:  E(UB3LYP) =  -841.600648300     A.U. after   33 cycles
 SCF Done:  E(UB3LYP) =  -841.600648300     a.u. after    2 cycles
 Normal termination of Gaussian 16 at Fri Dec 11 14:01:45 2020.
 Gaussian 16:  ES64L-G16RevA.03 25-Dec-2016

 ----------------------------------------------------------------------
 # B3LYP/6-311++G(d,p) empiricaldispersion=gd3bj scf=xqc pop=npa geom=c
 heck
 ----------------------------------------------------------------------

 ------------------------------------
 CID_122007480_JID_7662_Energie_anion
 ------------------------------------
 Structure from the checkpoint file:  "JID_7662.chk"
 Charge = -1 Multiplicity = 2

                         Standard orientation:
 ---------------------------------------------------------------------
 Center     Atomic      Atomic             Coordinates (Angstroms)
 Number     Number       Type             X           Y           Z
 ---------------------------------------------------------------------
      1          6           0       -2.318706   -2.358486    0.040385
      2          7           0       -1.362315   -1.326062   -0.348073
      3          6           0       -1.920978   -0.262673   -1.184537
      4          6           0       -3.016072    0.549244   -0.473054
      5          6           0       -2.529130    1.094493    0.848522
      6          8           0       -1.616872    1.883389    0.989794
      7          8           0       -3.220923    0.595089    1.896957
      8          6           0       -0.074209   -1.798445   -0.642148
      9          8           0        0.203664   -2.992234   -0.625418
     10          7           0        0.865321   -0.826948   -0.975191
     11          6           0        1.122413    0.334940   -0.098382
     12          6           0        2.113311   -0.076817    0.992933
     13          8           0        3.298409   -0.517541    0.353107
     14          6           0        4.245269   -1.050918    1.252699
     15          6           0        1.639297    1.512610   -0.898919
     16          6           0        0.700740    2.540710   -1.477477
     17          6           0        1.582001    2.896841   -0.304390
     18          1           0       -2.803029   -2.816635   -0.835360
     19          1           0       -3.085222   -1.924439    0.687581
     20          1           0       -1.789141   -3.140784    0.580872
     21          1           0       -1.112944    0.394246   -1.496768
     22          1           0       -2.363069   -0.692815   -2.098442
     23          1           0       -3.279486    1.400021   -1.111150
     24          1           0       -3.918027   -0.045488   -0.316906
     25          1           0       -2.822269    0.983891    2.699092
     26          1           0        1.740194   -1.299906   -1.185507
     27          1           0        0.190298    0.615722    0.392131
     28          1           0        2.325559    0.775226    1.658028
     29          1           0        1.684122   -0.890996    1.600183
     30          1           0        4.569868   -0.299621    1.989862
     31          1           0        3.841193   -1.919860    1.795115
     32          1           0        5.109123   -1.368011    0.663136
     33          1           0        2.525497    1.283935   -1.485720
     34          1           0        0.934057    2.956127   -2.453769
     35          1           0       -0.359022    2.445895   -1.264059
     36          1           0        1.086819    3.014249    0.656056
     37          1           0        2.426583    3.561699   -0.460837
 ---------------------------------------------------------------------

 SCF Done:  E(UB3LYP) =  -841.904150805     A.U. after   33 cycles
 SCF Done:  E(UB3LYP) =  -841.904150805     a.u. after    1 cycles

 The electronic state is 2-A.
 Alpha  occ. eigenvalues --  -19.07131 -19.04643 -19.01688 -18.99115 -14.24039
 Alpha  occ. eigenvalues --  -14.22604 -10.20750 -10.19537 -10.13171 -10.12839
 Alpha  occ. eigenvalues --  -10.11803 -10.11727 -10.09495 -10.09003 -10.08641
 Alpha  occ. eigenvalues --  -10.07912 -10.07739  -1.01237  -0.96107  -0.95346
 Alpha  occ. eigenvalues --   -0.92280  -0.84345  -0.81943  -0.76583  -0.69087
 Alpha  occ. eigenvalues --   -0.67048  -0.61238  -0.59881  -0.57488  -0.54361
 Alpha  occ. eigenvalues --   -0.50913  -0.50483  -0.48313  -0.46989  -0.43464
 Alpha  occ. eigenvalues --   -0.41569  -0.40972  -0.40055  -0.40000  -0.39238
 Alpha  occ. eigenvalues --   -0.38835  -0.38007  -0.36858  -0.35593  -0.35374
 Alpha  occ. eigenvalues --   -0.33449  -0.33001  -0.32215  -0.31612  -0.30763
 Alpha  occ. eigenvalues --   -0.29996  -0.28798  -0.28471  -0.27973  -0.27560
 Alpha  occ. eigenvalues --   -0.26991  -0.26334  -0.24491  -0.22700  -0.20858
 Alpha  occ. eigenvalues --   -0.20203  -0.18892  -0.18591  -0.18305  -0.15387
 Alpha  occ. eigenvalues --   -0.15010   0.04107
 Alpha virt. eigenvalues --    0.05627   0.06506   0.07251   0.08192   0.08304
 Alpha virt. eigenvalues --    0.08972   0.09077   0.09727   0.10157   0.10487
 Alpha virt. eigenvalues --    0.10752   0.11500   0.11585   0.12042   0.12556

  Beta  occ. eigenvalues --  -19.07065 -19.04639 -19.01653 -18.99104 -14.24040
  Beta  occ. eigenvalues --  -14.22603 -10.20686 -10.19525 -10.13147 -10.12828
  Beta  occ. eigenvalues --  -10.11800 -10.11707 -10.09476 -10.08967 -10.08641
  Beta  occ. eigenvalues --  -10.07907 -10.07732  -1.01119  -0.96099  -0.95327
  Beta  occ. eigenvalues --   -0.92186  -0.84332  -0.81936  -0.76578  -0.69005
  Beta  occ. eigenvalues --   -0.67031  -0.61192  -0.59842  -0.57394  -0.54330
  Beta  occ. eigenvalues --   -0.50894  -0.50356  -0.48299  -0.46955  -0.43437
  Beta  occ. eigenvalues --   -0.41508  -0.40939  -0.40022  -0.39977  -0.39215
  Beta  occ. eigenvalues --   -0.38790  -0.37907  -0.36829  -0.35549  -0.35270
  Beta  occ. eigenvalues --   -0.33419  -0.32966  -0.32174  -0.31593  -0.30721
  Beta  occ. eigenvalues --   -0.29947  -0.28730  -0.28423  -0.27931  -0.27546
  Beta  occ. eigenvalues --   -0.26970  -0.26313  -0.24465  -0.22553  -0.20848
  Beta  occ. eigenvalues --   -0.20193  -0.18849  -0.18558  -0.18291  -0.15373
  Beta  occ. eigenvalues --   -0.14985
  Beta virt. eigenvalues --    0.05964   0.06786   0.07171   0.07689   0.08518
  Beta virt. eigenvalues --    0.08698   0.09234   0.09571   0.09946   0.10428
  Beta virt. eigenvalues --    0.10765   0.11025   0.11613   0.11839   0.12259

 Mulliken charges and spin densities:
               1          2
     1  C    0.210708  -0.535834
     2  N    0.052952   0.007136
     3  C   -1.358615   0.996561
     4  C    2.656458  -3.134864
     5  C   -0.621897   0.510571
     6  O   -0.275987   0.036305
     7  O   -0.130599   0.056554
     8  C    0.272134  -0.138079
     9  O   -0.320214   0.011795
    10  N    0.006931   0.031099
    11  C   -0.527632  -0.080690
    12  C    0.113567  -0.642056
    13  O   -0.131936   0.026953
    14  C    0.337828  -0.570338
    15  C   -0.454794   0.861418
    16  C   -0.052581  -0.312315
    17  C   -0.306688  -0.289792
    18  H   -0.018993   0.175524
    19  H    0.059095   0.104650
    20  H    0.076078   0.095251
    21  H    0.041166   0.088703
    22  H   -0.420601   0.605650
    23  H   -0.765209   0.967241
    24  H    0.079257   0.136922
    25  H   -0.550715   0.854003
    26  H    0.324089  -0.000411
    27  H    0.059584   0.165807
    28  H    0.029665   0.137617
    29  H    0.093813   0.092718
    30  H   -0.152360   0.275653
    31  H   -0.033441   0.171658
    32  H   -0.028223   0.160745
    33  H    0.194019   0.044499
    34  H   -0.006605   0.158136
    35  H    0.435001  -0.271112
    36  H    0.007372   0.166308
    37  H    0.107372   0.036013
 Sum of Mulliken charges =  -1.00000   1.00000

 Dipole moment (field-independent basis, Debye):
    X=              5.2127    Y=             -0.0678    Z=             -2.3006  Tot=              5.6982
 Quadrupole moment (field-independent basis, Debye-Ang):
   XX=           -171.8483   YY=           -150.6469   ZZ=           -147.5690
   XY=              9.8566   XZ=             -0.8639   YZ=             -5.8232

 Summary of Natural Population Analysis:

                                       Natural Population
                Natural  -----------------------------------------------
    Atom  No    Charge         Core      Valence    Rydberg      Total
 -----------------------------------------------------------------------
      C    1   -0.17959      0.99964     2.17256    0.00739     3.17959
      N    2   -0.27649      0.99965     2.76742    0.00942     3.77649
      C    3   -0.08289      0.99959     2.07118    0.01211     3.08289
      C    4   -0.24386      0.99957     2.23403    0.01026     3.24386
      C    5    0.41870      0.99971     1.55624    0.02535     2.58130
      O    6   -0.31735      0.99987     3.31062    0.00686     4.31735
      O    7   -0.34066      0.99988     3.33365    0.00713     4.34066
      C    8    0.41783      0.99967     1.55892    0.02358     2.58217
      O    9   -0.33126      0.99987     3.32632    0.00507     4.33126
      N   10   -0.33806      0.99967     2.82870    0.00968     3.83806
      C   11   -0.03692      0.99953     2.02227    0.01513     3.03692
      C   12   -0.00899      0.99956     1.99708    0.01234     3.00899
      O   13   -0.30548      0.99988     3.29638    0.00922     4.30548
      C   14   -0.09638      0.99962     2.08758    0.00917     3.09638
      C   15   -0.11530      0.99956     2.10505    0.01068     3.11530
      C   16   -0.19755      0.99962     2.19110    0.00684     3.19755
      C   17   -0.19815      0.99962     2.19224    0.00630     3.19815
      H   18    0.08754      0.00000     0.41115    0.00131     0.41246
      H   19    0.09890      0.00000     0.39971    0.00139     0.40110
      H   20    0.11098      0.00000     0.38805    0.00097     0.38902
      H   21    0.11088      0.00000     0.38674    0.00238     0.38912
      H   22    0.09201      0.00000     0.40641    0.00158     0.40799
      H   23    0.12031      0.00000     0.37664    0.00305     0.37969
      H   24    0.11075      0.00000     0.38727    0.00198     0.38925
      H   25    0.24531      0.00000     0.23717    0.01753     0.25469
      H   26    0.19495      0.00000     0.30239    0.00266     0.30505
      H   27    0.11997      0.00000     0.37618    0.00386     0.38003
      H   28    0.08611      0.00000     0.41250    0.00138     0.41389
      H   29    0.08440      0.00000     0.41421    0.00139     0.41560
      H   30    0.07920      0.00000     0.41938    0.00142     0.42080
      H   31    0.08073      0.00000     0.41803    0.00124     0.41927
      H   32    0.08913      0.00000     0.40999    0.00088     0.41087
      H   33    0.10623      0.00000     0.39247    0.00130     0.39377
      H   34    0.09787      0.00000     0.40119    0.00094     0.40213
      H   35    0.11071      0.00000     0.38798    0.00131     0.38929
      H   36    0.10832      0.00000     0.39048    0.00120     0.39168
      H   37    0.09808      0.00000     0.40103    0.00089     0.40192
 =======================================================================
   * Total *   -0.00000     16.99453    48.77032    0.23516    66.00000

 Normal termination of Gaussian 16 at Fri Dec 11 14:20:16 2020.
