 Gaussian 16, Revision A.03,

 -----------------------------------------------------------
 # opt freq B3LYP/6-31G(d) empiricaldispersion=gd3bj scf=xqc
 -----------------------------------------------------------

 -------------------------------
 CID_133519376_JID_9108_neutraal
 -------------------------------
 Symbolic Z-matrix:
 Charge =  0 Multiplicity = 1

 SCF Done:  E(RB3LYP) =  -1881.77282446     A.U. after   15 cycles
 SCF Done:  E(RB3LYP) =  -1881.77843244     A.U. after   13 cycles
 SCF Done:  E(RB3LYP) =  -1881.77668850     A.U. after   15 cycles
 SCF Done:  E(RB3LYP) =  -1881.69828959     A.U. after   14 cycles
 SCF Done:  E(RB3LYP) =  -1881.67052135     A.U. after   14 cycles
 SCF Done:  E(RB3LYP) =  -1881.77854302     A.U. after   11 cycles
 SCF Done:  E(RB3LYP) =  -1881.77916208     A.U. after   13 cycles
 SCF Done:  E(RB3LYP) =  -1881.77991918     A.U. after   13 cycles
 SCF Done:  E(RB3LYP) =  -1881.78012326     A.U. after   12 cycles
 SCF Done:  E(RB3LYP) =  -1881.78019265     A.U. after   11 cycles
 SCF Done:  E(RB3LYP) =  -1881.78021177     A.U. after    8 cycles
 SCF Done:  E(RB3LYP) =  -1881.78021186     A.U. after    7 cycles
 SCF Done:  E(RB3LYP) =  -1881.78021195     A.U. after    7 cycles
 SCF Done:  E(RB3LYP) =  -1881.78021199     A.U. after    7 cycles
 SCF Done:  E(RB3LYP) =  -1881.78021200     A.U. after    7 cycles
 Optimization completed.
    -- Stationary point found.
 Normal termination of Gaussian 16 at Sun Dec 13 12:42:04 2020.

 --------------------------------------------------------------------
 #N Geom=AllCheck Guess=TCheck SCRF=Check GenChk RB3LYP/6-31G(d) Freq
 --------------------------------------------------------------------

 Structure from the checkpoint file:  "JID_9108.chk"
 -------------------------------
 CID_133519376_JID_9108_neutraal
 -------------------------------
 Charge =  0 Multiplicity = 1

 SCF Done:  E(RB3LYP) =  -1881.78021200     A.U. after    1 cycles

  Exact polarizability: 234.510  27.932 211.438   5.324  -4.258 148.154
 Approx polarizability: 334.279  42.157 333.446  11.418  -2.699 270.798

                      1                      2                      3
                      A                      A                      A
 Frequencies --     14.1021                14.9080                29.7063
 Red. masses --      5.8911                 5.6202                 4.3101
 Frc consts  --      0.0007                 0.0007                 0.0022
 IR Inten    --      0.0803                 0.5688                 0.7328

                      4                      5                      6
                      A                      A                      A
 Frequencies --     49.4525                58.3154                76.3039
 Red. masses --      5.3957                 6.9520                 4.8688
 Frc consts  --      0.0078                 0.0139                 0.0167
 IR Inten    --      1.3494                 0.0972                 0.7433

                      7                      8                      9
                      A                      A                      A
 Frequencies --    110.2240               130.5885               155.7869
 Red. masses --      4.7867                 5.0898                 4.0767
 Frc consts  --      0.0343                 0.0511                 0.0583
 IR Inten    --      0.6084                 0.8997                 2.5787

                     10                     11                     12
                      A                      A                      A
 Frequencies --    191.5124               209.3935               220.8075
 Red. masses --      3.6887                 3.6075                 1.0478
 Frc consts  --      0.0797                 0.0932                 0.0301
 IR Inten    --      2.8484                 0.9173                 0.2321

                     13                     14                     15
                      A                      A                      A
 Frequencies --    226.5690               239.1499               270.8042
 Red. masses --      5.3997                 3.5287                 1.1283
 Frc consts  --      0.1633                 0.1189                 0.0488
 IR Inten    --      3.1661                 4.7836                 0.1911

                     16                     17                     18
                      A                      A                      A
 Frequencies --    277.1635               290.7758               293.4638
 Red. masses --      1.1163                 3.2231                 3.5062
 Frc consts  --      0.0505                 0.1606                 0.1779
 IR Inten    --      0.7749                 1.3433                 5.4677

                     19                     20                     21
                      A                      A                      A
 Frequencies --    300.5594               319.7425               330.6633
 Red. masses --      3.4141                 2.8545                 3.2973
 Frc consts  --      0.1817                 0.1719                 0.2124
 IR Inten    --      6.1638                 1.2318                 2.4361

                     22                     23                     24
                      A                      A                      A
 Frequencies --    358.8281               410.9588               416.1978
 Red. masses --      2.7100                 3.0543                 3.1937
 Frc consts  --      0.2056                 0.3039                 0.3259
 IR Inten    --      3.6578                 3.9842                 0.8695

                     25                     26                     27
                      A                      A                      A
 Frequencies --    450.8759               474.9603               500.0688
 Red. masses --      5.5212                 3.8065                 5.1421
 Frc consts  --      0.6613                 0.5059                 0.7576
 IR Inten    --      4.6410                 2.0752                 4.2652

                     28                     29                     30
                      A                      A                      A
 Frequencies --    515.0498               562.1261               599.4326
 Red. masses --      4.1191                 3.5175                 5.2219
 Frc consts  --      0.6438                 0.6549                 1.1055
 IR Inten    --      4.8216                 0.8773                 7.6323

                     31                     32                     33
                      A                      A                      A
 Frequencies --    606.6059               637.3913               649.7461
 Red. masses --      4.3948                 4.9157                 8.2254
 Frc consts  --      0.9528                 1.1766                 2.0460
 IR Inten    --     25.3282                14.9996                 1.1214

                     34                     35                     36
                      A                      A                      A
 Frequencies --    670.6578               693.7092               718.8951
 Red. masses --      5.5585                 7.2906                 1.2949
 Frc consts  --      1.4730                 2.0671                 0.3943
 IR Inten    --      2.3005                12.5944                35.1217

                     37                     38                     39
                      A                      A                      A
 Frequencies --    746.5938               762.4916               765.4281
 Red. masses --      7.4378                 5.9561                 6.3094
 Frc consts  --      2.4427                 2.0402                 2.1779
 IR Inten    --      4.5409                 2.6851                 6.9257

                     40                     41                     42
                      A                      A                      A
 Frequencies --    782.1869               830.0649               842.4202
 Red. masses --      1.9465                 1.7057                 2.0565
 Frc consts  --      0.7017                 0.6924                 0.8599
 IR Inten    --     27.7555                78.0290                39.8890

                     43                     44                     45
                      A                      A                      A
 Frequencies --    879.3028               885.1879               900.6133
 Red. masses --      3.7118                 1.4347                 2.5260
 Frc consts  --      1.6909                 0.6624                 1.2071
 IR Inten    --      2.5139                 6.0922                12.0309

                     46                     47                     48
                      A                      A                      A
 Frequencies --    947.6958               954.9757               958.5858
 Red. masses --      1.7755                 2.1337                 1.7227
 Frc consts  --      0.9395                 1.1465                 0.9326
 IR Inten    --      0.7413                 3.3332                 1.2180

                     49                     50                     51
                      A                      A                      A
 Frequencies --    978.7952               996.7903              1039.2452
 Red. masses --      1.1994                 3.1869                 5.9093
 Frc consts  --      0.6770                 1.8657                 3.7603
 IR Inten    --      0.0538                15.2230               137.6683

                     52                     53                     54
                      A                      A                      A
 Frequencies --   1047.6092              1060.2860              1063.0975
 Red. masses --      1.7154                 1.4091                 1.4126
 Frc consts  --      1.1092                 0.9333                 0.9406
 IR Inten    --     15.3945                 0.0539                 4.4349

                     55                     56                     57
                      A                      A                      A
 Frequencies --   1094.0781              1103.3951              1138.6269
 Red. masses --      1.5685                 2.3254                 2.6600
 Frc consts  --      1.1062                 1.6680                 2.0319
 IR Inten    --     18.4691                 4.6588                26.4898

                     58                     59                     60
                      A                      A                      A
 Frequencies --   1198.9635              1216.5982              1227.2715
 Red. masses --      1.8590                 1.6403                 1.3152
 Frc consts  --      1.5745                 1.4305                 1.1672
 IR Inten    --      8.8563                95.0936                71.6175

                     61                     62                     63
                      A                      A                      A
 Frequencies --   1244.8263              1252.8189              1262.7018
 Red. masses --      2.6491                 1.8281                 2.7872
 Frc consts  --      2.4186                 1.6906                 2.6183
 IR Inten    --      4.1327                11.9282                 5.9903

                     64                     65                     66
                      A                      A                      A
 Frequencies --   1307.8344              1329.9728              1343.8187
 Red. masses --      1.9232                 1.7277                 1.9553
 Frc consts  --      1.9382                 1.8006                 2.0804
 IR Inten    --     30.7660                15.2365                 4.5787

                     67                     68                     69
                      A                      A                      A
 Frequencies --   1347.9042              1371.5318              1406.3556
 Red. masses --      1.4101                 3.9100                 1.3268
 Frc consts  --      1.5094                 4.3335                 1.5461
 IR Inten    --     38.9235                70.9024                41.8579

                     70                     71                     72
                      A                      A                      A
 Frequencies --   1415.5470              1417.6534              1426.9327
 Red. masses --      1.5075                 1.2209                 1.2598
 Frc consts  --      1.7798                 1.4457                 1.5114
 IR Inten    --     41.9687                 3.3415                 3.4702

                     73                     74                     75
                      A                      A                      A
 Frequencies --   1453.5373              1466.8755              1494.6602
 Red. masses --      1.2585                 6.4513                 1.1623
 Frc consts  --      1.5666                 8.1787                 1.5299
 IR Inten    --     18.4296                78.5679                 2.9975

                     76                     77                     78
                      A                      A                      A
 Frequencies --   1502.6717              1505.3840              1513.2561
 Red. masses --      1.1031                 1.0490                 1.1957
 Frc consts  --      1.4676                 1.4006                 1.6133
 IR Inten    --     13.5370                 0.0373                13.2183

                     79                     80                     81
                      A                      A                      A
 Frequencies --   1519.5868              1521.0129              1527.5771
 Red. masses --      1.1046                 1.4088                 1.2435
 Frc consts  --      1.5028                 1.9203                 1.7096
 IR Inten    --     17.2743               117.6745                 8.9567

                     82                     83                     84
                      A                      A                      A
 Frequencies --   1528.8276              1529.9263              1542.1463
 Red. masses --      1.5312                 1.0676                 1.4734
 Frc consts  --      2.1086                 1.4724                 2.0645
 IR Inten    --     12.2848                12.5854                33.0671

                     85                     86                     87
                      A                      A                      A
 Frequencies --   1552.9570              1555.0301              1635.3620
 Red. masses --      3.9632                 1.2648                 2.5873
 Frc consts  --      5.6315                 1.8020                 4.0769
 IR Inten    --     11.0185                26.8420               328.0199

                     88                     89                     90
                      A                      A                      A
 Frequencies --   3013.0355              3046.9865              3049.4984
 Red. masses --      1.0689                 1.0351                 1.0360
 Frc consts  --      5.7175                 5.6621                 5.6761
 IR Inten    --     22.4835                27.1810                15.9952

                     91                     92                     93
                      A                      A                      A
 Frequencies --   3051.6908              3058.5187              3086.0872
 Red. masses --      1.0620                 1.0373                 1.0935
 Frc consts  --      5.8273                 5.7170                 6.1360
 IR Inten    --     21.0712                40.1839                32.1431

                     94                     95                     96
                      A                      A                      A
 Frequencies --   3095.2494              3100.9401              3112.8015
 Red. masses --      1.0791                 1.0848                 1.1027
 Frc consts  --      6.0912                 6.1461                 6.2954
 IR Inten    --     14.1496                19.0558                13.3795

                     97                     98                     99
                      A                      A                      A
 Frequencies --   3114.9243              3126.0948              3133.1722
 Red. masses --      1.1021                 1.1003                 1.1016
 Frc consts  --      6.3004                 6.3352                 6.3713
 IR Inten    --     25.0976                49.9534                14.4361

                    100                    101                    102
                      A                      A                      A
 Frequencies --   3139.1753              3140.7124              3154.1103
 Red. masses --      1.1011                 1.1023                 1.1046
 Frc consts  --      6.3932                 6.4064                 6.4747
 IR Inten    --     38.6275                26.3770                 1.7824

                    103                    104                    105
                      A                      A                      A
 Frequencies --   3257.9475              3289.6731              3397.2420
 Red. masses --      1.0906                 1.0997                 1.0759
 Frc consts  --      6.8204                 7.0119                 7.3162
 IR Inten    --      3.1995                 1.1140               458.5388

 - Thermochemistry -
 -------------------
 Temperature   298.150 Kelvin.  Pressure   1.00000 Atm.
 Atom     1 has atomic number  6 and mass  12.00000

 Molecular mass:   314.06936 amu.
 Principal axes and moments of inertia in atomic units:
                           1         2         3
     Eigenvalues --  4023.73524********************
           X            0.99914   0.04134   0.00126
           Y           -0.04133   0.99914  -0.00339
           Z           -0.00140   0.00334   0.99999
 This molecule is an asymmetric top.
 Rotational symmetry number  1.
 Warning -- assumption of classical behavior for rotation
           may cause significant error
 Rotational temperatures (Kelvin)      0.02153     0.00849     0.00678
 Rotational constants (GHZ):           0.44852     0.17695     0.14129
 Zero-point vibrational energy     782599.2 (Joules/Mol)
                                  187.04570 (Kcal/Mol)
 Warning -- explicit consideration of  31 degrees of freedom as
           vibrations may cause significant error
 Vibrational temperatures:     20.29    21.45    42.74    71.15    83.90
          (Kelvin)            109.78   158.59   187.89   224.14   275.54
                              301.27   317.69   325.98   344.08   389.63
                              398.78   418.36   422.23   432.44   460.04
                              475.75   516.27   591.28   598.82   648.71
                              683.36   719.49   741.04   808.77   862.45
                              872.77   917.06   934.84   964.93   998.09
                             1034.33  1074.18  1097.06  1101.28  1125.39
                             1194.28  1212.05  1265.12  1273.59  1295.78
                             1363.52  1374.00  1379.19  1408.27  1434.16
                             1495.24  1507.28  1525.52  1529.56  1574.13
                             1587.54  1638.23  1725.04  1750.41  1765.77
                             1791.03  1802.53  1816.75  1881.68  1913.53
                             1933.46  1939.33  1973.33  2023.43  2036.66
                             2039.69  2053.04  2091.32  2110.51  2150.48
                             2162.01  2165.91  2177.24  2186.35  2188.40
                             2197.84  2199.64  2201.22  2218.80  2234.36
                             2237.34  2352.92  4335.09  4383.93  4387.55
                             4390.70  4400.53  4440.19  4453.37  4461.56
                             4478.63  4481.68  4497.75  4507.94  4516.57
                             4518.78  4538.06  4687.46  4733.11  4887.87

 Zero-point correction=                           0.298076 (Hartree/Particle)
 Thermal correction to Energy=                    0.318013
 Thermal correction to Enthalpy=                  0.318957
 Thermal correction to Gibbs Free Energy=         0.246523
 Sum of electronic and zero-point Energies=          -1881.482136
 Sum of electronic and thermal Energies=             -1881.462199
 Sum of electronic and thermal Enthalpies=           -1881.461255
 Sum of electronic and thermal Free Energies=        -1881.533689

                     E (Thermal)             CV                S
                      KCal/Mol        Cal/Mol-Kelvin    Cal/Mol-Kelvin
 Total                  199.556             74.503            152.450
 Electronic               0.000              0.000              0.000
 Translational            0.889              2.981             43.129
 Rotational               0.889              2.981             34.615
 Vibrational            197.779             68.542             74.705
 Vibration     1          0.593              1.986              7.328
 Vibration     2          0.593              1.986              7.218
 Vibration     3          0.593              1.984              5.849
 Vibration     4          0.595              1.978              4.839
 Vibration     5          0.596              1.974              4.513
 Vibration     6          0.599              1.965              3.984
 Vibration     7          0.606              1.941              3.265
 Vibration     8          0.612              1.923              2.937
 Vibration     9          0.620              1.896              2.600
 Vibration    10          0.634              1.852              2.213
 Vibration    11          0.642              1.826              2.049
 Vibration    12          0.648              1.809              1.952
 Vibration    13          0.650              1.801              1.906
 Vibration    14          0.657              1.781              1.809
 Vibration    15          0.674              1.727              1.591
 Vibration    16          0.678              1.716              1.551
 Vibration    17          0.687              1.691              1.469
 Vibration    18          0.688              1.686              1.454
 Vibration    19          0.693              1.673              1.414
 Vibration    20          0.706              1.636              1.311
 Vibration    21          0.713              1.614              1.257
 Vibration    22          0.734              1.557              1.127
 Vibration    23          0.775              1.446              0.923
 Vibration    24          0.779              1.435              0.905
 Vibration    25          0.810              1.359              0.793
 Vibration    26          0.832              1.306              0.724
 Vibration    27          0.855              1.250              0.658
 Vibration    28          0.870              1.217              0.622
 Vibration    29          0.918              1.113              0.520
 Vibration    30          0.958              1.033              0.451
 Vibration    31          0.965              1.018              0.438

                           ! Non-Optimized Parameters !
 Normal termination of Gaussian 16 at Sun Dec 13 13:01:24 2020.

 ----------------------------------------------------------------------
 # B3LYP/6-311++G(d,p) empiricaldispersion=gd3bj scf=xqc pop=npa geom=c
 heck
 ----------------------------------------------------------------------

 ---------------------------------------
 CID_133519376_JID_9108_Energie_neutraal
 ---------------------------------------
 Structure from the checkpoint file:  "JID_9108.chk"
 Charge =  0 Multiplicity = 1

 SCF Done:  E(RB3LYP) =  -1882.04456114     A.U. after   17 cycles
 Normal termination of Gaussian 16 at Sun Dec 13 13:11:47 2020.

 ----------------------------------------------------------------------
 # B3LYP/6-311++G(d,p) empiricaldispersion=gd3bj scf=xqc pop=npa geom=c
 heck
 ----------------------------------------------------------------------

 -------------------------------------
 CID_133519376_JID_9108_Energie_kation
 -------------------------------------
 Structure from the checkpoint file:  "JID_9108.chk"
 Charge =  1 Multiplicity = 2

 SCF Done:  E(UB3LYP) =  -1881.76178892     A.U. after   26 cycles
 Normal termination of Gaussian 16 at Sun Dec 13 13:35:30 2020.
 Gaussian 16:  ES64L-G16RevA.03 25-Dec-2016

 ----------------------------------------------------------------------
 # B3LYP/6-311++G(d,p) empiricaldispersion=gd3bj scf=xqc pop=npa geom=c
 heck
 ----------------------------------------------------------------------

 ------------------------------------
 CID_133519376_JID_9108_Energie_anion
 ------------------------------------
 Structure from the checkpoint file:  "JID_9108.chk"
 Charge = -1 Multiplicity = 2

                         Standard orientation:
 ---------------------------------------------------------------------
 Center     Atomic      Atomic             Coordinates (Angstroms)
 Number     Number       Type             X           Y           Z
 ---------------------------------------------------------------------
      1          6           0        5.172176    0.562179   -0.470195
      2          6           0        3.857353    0.782604    0.289202
      3          6           0        4.110774    0.727607    1.809181
      4          6           0        3.263224    2.157130   -0.083857
      5          6           0        2.839185   -0.284982   -0.070118
      6          7           0        3.102074   -1.198573   -0.976012
      7         16           0        1.728529   -2.187549   -1.125868
      8          6           0        0.876898   -1.255167    0.105888
      9          7           0        1.614782   -0.266393    0.559130
     10          7           0       -0.375789   -1.528972    0.553856
     11          6           0       -1.322179   -2.249933   -0.290334
     12          6           0       -2.565736   -2.669338    0.491640
     13          6           0       -3.377426   -1.536080    1.131813
     14         16           0       -4.060452   -0.296843   -0.049875
     15          6           0       -2.829377    0.964435    0.034391
     16          7           0       -1.784419    0.962830    0.814956
     17          6           0       -1.008928    2.090273    0.625727
     18          6           0       -1.474353    2.974873   -0.295868
     19         16           0       -2.958340    2.383646   -0.996826
     20          1           0        5.890692    1.343860   -0.197910
     21          1           0        5.014815    0.593775   -1.552017
     22          1           0        5.608753   -0.411282   -0.228496
     23          1           0        4.811379    1.518327    2.102253
     24          1           0        3.177950    0.860651    2.364206
     25          1           0        4.544908   -0.236335    2.097160
     26          1           0        3.077286    2.221969   -1.161737
     27          1           0        2.316054    2.326235    0.436783
     28          1           0        3.961001    2.956357    0.192257
     29          1           0       -0.784361   -0.708129    1.009319
     30          1           0       -1.611717   -1.646758   -1.164637
     31          1           0       -0.832132   -3.153934   -0.668606
     32          1           0       -3.214186   -3.238769   -0.183871
     33          1           0       -2.264945   -3.346650    1.301397
     34          1           0       -4.257449   -1.949872    1.631570
     35          1           0       -2.804719   -0.979952    1.876787
     36          1           0       -0.090088    2.183682    1.189882
     37          1           0       -1.045235    3.914916   -0.611552
 ---------------------------------------------------------------------

 SCF Done:  E(UB3LYP) =  -1882.03856857     A.U. after   33 cycles
 SCF Done:  E(UB3LYP) =  -1882.03856857     a.u. after    1 cycles

 The electronic state is 2-A.
 Alpha  occ. eigenvalues --  -88.79468 -88.76026 -88.75111 -14.23271 -14.22455
 Alpha  occ. eigenvalues --  -14.20625 -14.19351 -10.17455 -10.14123 -10.12519
 Alpha  occ. eigenvalues --  -10.10993 -10.10907 -10.10226 -10.08629 -10.07874
 Alpha  occ. eigenvalues --  -10.07772 -10.07608 -10.07607 -10.07596  -7.87948
 Alpha  occ. eigenvalues --   -7.84661  -7.83692  -5.84338  -5.83893  -5.83421
 Alpha  occ. eigenvalues --   -5.80966  -5.80609  -5.80236  -5.80086  -5.79680
 Alpha  occ. eigenvalues --   -5.79106  -0.91078  -0.85072  -0.84312  -0.76592
 Alpha  occ. eigenvalues --   -0.74187  -0.71422  -0.68028  -0.66702  -0.64626
 Alpha  occ. eigenvalues --   -0.61340  -0.60596  -0.60443  -0.56717  -0.52699
 Alpha  occ. eigenvalues --   -0.50451  -0.48456  -0.47638  -0.44620  -0.42105
 Alpha  occ. eigenvalues --   -0.41234  -0.39643  -0.38864  -0.37829  -0.36503
 Alpha  occ. eigenvalues --   -0.35279  -0.35053  -0.34531  -0.33567  -0.32553
 Alpha  occ. eigenvalues --   -0.31790  -0.30895  -0.30485  -0.30124  -0.29531
 Alpha  occ. eigenvalues --   -0.28430  -0.27502  -0.26874  -0.25969  -0.25607
 Alpha  occ. eigenvalues --   -0.25364  -0.24920  -0.24518  -0.22771  -0.22043
 Alpha  occ. eigenvalues --   -0.21605  -0.18431  -0.18089  -0.17929  -0.17195
 Alpha  occ. eigenvalues --   -0.16893  -0.13091  -0.10734   0.04667
 Alpha virt. eigenvalues --    0.06001   0.06504   0.07303   0.08030   0.08252
 Alpha virt. eigenvalues --    0.08416   0.08739   0.09374   0.09428   0.10136
 Alpha virt. eigenvalues --    0.10369   0.10660   0.10847   0.11057   0.11579

  Beta  occ. eigenvalues --  -88.79465 -88.75989 -88.75115 -14.23265 -14.22434
  Beta  occ. eigenvalues --  -14.20628 -14.19288 -10.17439 -10.14110 -10.12093
  Beta  occ. eigenvalues --  -10.10981 -10.10908 -10.10216 -10.08633 -10.07871
  Beta  occ. eigenvalues --  -10.07772 -10.07608 -10.07556 -10.07378  -7.87944
  Beta  occ. eigenvalues --   -7.84627  -7.83694  -5.84336  -5.83891  -5.83416
  Beta  occ. eigenvalues --   -5.80957  -5.80599  -5.80099  -5.80097  -5.79687
  Beta  occ. eigenvalues --   -5.79102  -0.91056  -0.84862  -0.84177  -0.76573
  Beta  occ. eigenvalues --   -0.74179  -0.71330  -0.67758  -0.66539  -0.64533
  Beta  occ. eigenvalues --   -0.61180  -0.60589  -0.60416  -0.56632  -0.52671
  Beta  occ. eigenvalues --   -0.50388  -0.48386  -0.47291  -0.44575  -0.41834
  Beta  occ. eigenvalues --   -0.41186  -0.39606  -0.38747  -0.37789  -0.36481
  Beta  occ. eigenvalues --   -0.35242  -0.35020  -0.34503  -0.33524  -0.32430
  Beta  occ. eigenvalues --   -0.31770  -0.30828  -0.30180  -0.29580  -0.29310
  Beta  occ. eigenvalues --   -0.28426  -0.27415  -0.26783  -0.25896  -0.25566
  Beta  occ. eigenvalues --   -0.25243  -0.24771  -0.24498  -0.22688  -0.21990
  Beta  occ. eigenvalues --   -0.21564  -0.18069  -0.17912  -0.17521  -0.17038
  Beta  occ. eigenvalues --   -0.16283  -0.13022  -0.10002
  Beta virt. eigenvalues --    0.05949   0.07253   0.07639   0.08101   0.08212
  Beta virt. eigenvalues --    0.08663   0.08816   0.09290   0.09529   0.09910
  Beta virt. eigenvalues --    0.10294   0.10474   0.10759   0.10936   0.11196

 Mulliken charges and spin densities:
               1          2
     1  C   -0.648008  -0.036679
     2  C    1.028192   0.031285
     3  C   -0.516856  -0.022853
     4  C   -0.544365   0.009666
     5  C   -1.537919  -0.141127
     6  N    0.057868   0.010352
     7  S    0.199907   0.026252
     8  C    0.063535  -0.023102
     9  N    0.087813  -0.044871
    10  N    0.180326   0.035331
    11  C   -0.700081   0.477831
    12  C    1.629647  -2.031657
    13  C   -0.421711   0.194725
    14  S    0.374152  -0.373033
    15  C   -0.199565   0.262522
    16  N    0.036174   0.028635
    17  C   -0.329290  -0.047178
    18  C   -0.133808   0.178631
    19  S   -0.316869   0.098790
    20  H    0.132299   0.001723
    21  H    0.154563   0.004049
    22  H    0.158657   0.001487
    23  H    0.132627   0.013482
    24  H    0.138203   0.001818
    25  H    0.132071   0.015737
    26  H    0.155462   0.001115
    27  H    0.094584  -0.003670
    28  H    0.141121   0.001838
    29  H    0.368717  -0.069474
    30  H    0.001458   0.165040
    31  H   -0.148478   0.290333
    32  H   -0.480368   0.655235
    33  H   -0.444655   0.624005
    34  H   -0.450014   0.726137
    35  H    0.257176  -0.060143
    36  H    0.143559  -0.000499
    37  H    0.203875  -0.001730
 Sum of Mulliken charges =  -1.00000   1.00000

 Dipole moment (field-independent basis, Debye):
    X=              7.3782    Y=              5.5280    Z=             -0.1220  Tot=              9.2201
 Quadrupole moment (field-independent basis, Debye-Ang):
   XX=           -208.9101   YY=           -186.8362   ZZ=           -160.3348
   XY=             -9.6059   XZ=              5.4259   YZ=              2.8738

 Summary of Natural Population Analysis:

                                       Natural Population
                Natural  -----------------------------------------------
    Atom  No    Charge         Core      Valence    Rydberg      Total
 -----------------------------------------------------------------------
      C    1   -0.28221      0.99964     2.27638    0.00618     3.28221
      C    2   -0.05997      0.99954     2.05216    0.00827     3.05997
      C    3   -0.28034      0.99964     2.27527    0.00542     3.28034
      C    4   -0.27937      0.99964     2.27417    0.00556     3.27937
      C    5    0.21088      0.99957     1.76899    0.02056     2.78912
      N    6   -0.33214      0.99968     2.82182    0.01064     3.83214
      S    7    0.23423      4.99946     2.74129    0.02502     7.76577
      C    8    0.14980      0.99960     1.82928    0.02132     2.85020
      N    9   -0.29278      0.99962     2.78250    0.01066     3.79278
      N   10   -0.32563      0.99962     2.81469    0.01132     3.82563
      C   11   -0.09071      0.99960     2.07911    0.01199     3.09071
      C   12   -0.19834      0.99961     2.18675    0.01199     3.19834
      C   13   -0.25164      0.99958     2.23991    0.01215     3.25164
      S   14    0.12770      4.99947     2.85346    0.01937     7.87230
      C   15    0.01231      0.99959     1.96752    0.02058     2.98769
      N   16   -0.29081      0.99960     2.77823    0.01297     3.79081
      C   17   -0.01881      0.99953     2.00618    0.01310     3.01881
      C   18   -0.17996      0.99954     2.17140    0.00903     3.17996
      S   19    0.18831      4.99941     2.79239    0.01989     7.81169
      H   20    0.09263      0.00000     0.40660    0.00077     0.40737
      H   21    0.10566      0.00000     0.39356    0.00078     0.39434
      H   22    0.10406      0.00000     0.39517    0.00077     0.39594
      H   23    0.09368      0.00000     0.40556    0.00076     0.40632
      H   24    0.10941      0.00000     0.38975    0.00084     0.39059
      H   25    0.09952      0.00000     0.39966    0.00082     0.40048
      H   26    0.10129      0.00000     0.39799    0.00072     0.39871
      H   27    0.10828      0.00000     0.39079    0.00093     0.39172
      H   28    0.09329      0.00000     0.40592    0.00078     0.40671
      H   29    0.21750      0.00000     0.27861    0.00389     0.28250
      H   30    0.09674      0.00000     0.40171    0.00155     0.40326
      H   31    0.09831      0.00000     0.40009    0.00161     0.40169
      H   32    0.10667      0.00000     0.39004    0.00328     0.39333
      H   33    0.10503      0.00000     0.39218    0.00279     0.39497
      H   34    0.11006      0.00000     0.38857    0.00137     0.38994
      H   35    0.11390      0.00000     0.38414    0.00195     0.38610
      H   36    0.09968      0.00000     0.39916    0.00115     0.40032
      H   37    0.10376      0.00000     0.39535    0.00089     0.39624
 =======================================================================
   * Total *   -0.00000     30.99195    51.72638    0.28168    83.00000

 Normal termination of Gaussian 16 at Sun Dec 13 14:06:12 2020.
