 Gaussian 16, Revision A.03,

 -----------------------------------------------------------
 # opt freq B3LYP/6-31G(d) empiricaldispersion=gd3bj scf=xqc
 -----------------------------------------------------------

 ------------------------------
 CID_43245359_JID_7542_neutraal
 ------------------------------
 Symbolic Z-matrix:
 Charge =  0 Multiplicity = 1

 SCF Done:  E(RB3LYP) =  -1086.78329096     A.U. after   15 cycles
 SCF Done:  E(RB3LYP) =  -1086.78667435     A.U. after   12 cycles
 SCF Done:  E(RB3LYP) =  -1086.78703086     A.U. after   12 cycles
 SCF Done:  E(RB3LYP) =  -1086.78770363     A.U. after   12 cycles
 SCF Done:  E(RB3LYP) =  -1086.78800124     A.U. after   12 cycles
 SCF Done:  E(RB3LYP) =  -1086.78824898     A.U. after   12 cycles
 SCF Done:  E(RB3LYP) =  -1086.78842975     A.U. after   12 cycles
 SCF Done:  E(RB3LYP) =  -1086.78867863     A.U. after   13 cycles
 SCF Done:  E(RB3LYP) =  -1086.78872391     A.U. after   12 cycles
 SCF Done:  E(RB3LYP) =  -1086.78875714     A.U. after   11 cycles
 SCF Done:  E(RB3LYP) =  -1086.78878349     A.U. after    8 cycles
 SCF Done:  E(RB3LYP) =  -1086.78878356     A.U. after    7 cycles
 SCF Done:  E(RB3LYP) =  -1086.78878359     A.U. after    7 cycles
 SCF Done:  E(RB3LYP) =  -1086.78878359     A.U. after    6 cycles
 Optimization completed.
    -- Stationary point found.
 Normal termination of Gaussian 16 at Mon Dec 14 16:43:44 2020.

 --------------------------------------------------------------------
 #N Geom=AllCheck Guess=TCheck SCRF=Check GenChk RB3LYP/6-31G(d) Freq
 --------------------------------------------------------------------

 Structure from the checkpoint file:  "JID_7542.chk"
 ------------------------------
 CID_43245359_JID_7542_neutraal
 ------------------------------
 Charge =  0 Multiplicity = 1

 SCF Done:  E(RB3LYP) =  -1086.78878359     A.U. after    1 cycles

  Exact polarizability: 200.605   9.024 173.203  -0.588  -8.966 112.501
 Approx polarizability: 266.569  21.851 299.554  -0.809 -27.022 198.810

                      1                      2                      3
                      A                      A                      A
 Frequencies --     14.1184                23.3696                33.8195
 Red. masses --      5.6922                 5.1379                 5.2783
 Frc consts  --      0.0007                 0.0017                 0.0036
 IR Inten    --      0.5381                 0.7942                 0.5434

                      4                      5                      6
                      A                      A                      A
 Frequencies --     50.5098                74.7376               109.8905
 Red. masses --      5.3491                 4.2843                 5.7222
 Frc consts  --      0.0080                 0.0141                 0.0407
 IR Inten    --      4.6037                 4.0412                 1.2326

                      7                      8                      9
                      A                      A                      A
 Frequencies --    155.3927               162.2977               184.7525
 Red. masses --      4.4243                 3.4652                 4.5793
 Frc consts  --      0.0629                 0.0538                 0.0921
 IR Inten    --      2.7795                 1.5576                 2.7971

                     10                     11                     12
                      A                      A                      A
 Frequencies --    224.8954               255.6651               316.2068
 Red. masses --      4.8914                 3.9859                 2.6686
 Frc consts  --      0.1458                 0.1535                 0.1572
 IR Inten    --      1.8481                 3.1690                 1.9387

                     13                     14                     15
                      A                      A                      A
 Frequencies --    340.5279               396.8762               404.7149
 Red. masses --      3.1527                 4.2371                 3.3037
 Frc consts  --      0.2154                 0.3932                 0.3188
 IR Inten    --      2.6002                 6.6863                24.2224

                     16                     17                     18
                      A                      A                      A
 Frequencies --    425.9374               432.3326               475.4873
 Red. masses --      2.2995                 1.6607                 2.7506
 Frc consts  --      0.2458                 0.1829                 0.3664
 IR Inten    --     40.2267               122.8130                15.7968

                     19                     20                     21
                      A                      A                      A
 Frequencies --    506.4692               539.0492               568.2252
 Red. masses --      5.1632                 2.6646                 3.3840
 Frc consts  --      0.7803                 0.4562                 0.6438
 IR Inten    --      5.6999                 2.7313                 4.7213

                     22                     23                     24
                      A                      A                      A
 Frequencies --    575.9348               609.8848               626.2347
 Red. masses --      1.6486                 4.7528                 4.1662
 Frc consts  --      0.3222                 1.0416                 0.9627
 IR Inten    --     47.9011                22.5056                16.5531

                     25                     26                     27
                      A                      A                      A
 Frequencies --    648.4573               684.4440               705.2196
 Red. masses --      4.3583                 3.1479                 2.7940
 Frc consts  --      1.0798                 0.8689                 0.8187
 IR Inten    --      5.3556                 0.4195                 1.1498

                     28                     29                     30
                      A                      A                      A
 Frequencies --    709.1364               743.3318               750.2357
 Red. masses --      1.2914                 3.6774                 4.7871
 Frc consts  --      0.3826                 1.1972                 1.5875
 IR Inten    --     69.4370                21.2884                 7.7310

                     31                     32                     33
                      A                      A                      A
 Frequencies --    763.3276               809.0822               828.6043
 Red. masses --      2.8160                 1.6055                 1.8372
 Frc consts  --      0.9667                 0.6192                 0.7432
 IR Inten    --     47.5454               114.2311                 5.3864

                     34                     35                     36
                      A                      A                      A
 Frequencies --    841.2798               866.4977               895.3937
 Red. masses --      1.4089                 3.7499                 2.8374
 Frc consts  --      0.5875                 1.6589                 1.3403
 IR Inten    --     11.8974                 6.5148                 3.9492

                     37                     38                     39
                      A                      A                      A
 Frequencies --    909.3084               932.3580               946.8712
 Red. masses --      1.3245                 1.4119                 2.1880
 Frc consts  --      0.6453                 0.7232                 1.1558
 IR Inten    --      0.3214                 9.4336                 2.7268

                     40                     41                     42
                      A                      A                      A
 Frequencies --    954.0362               990.1141               994.2727
 Red. masses --      1.4558                 1.3033                 2.1329
 Frc consts  --      0.7807                 0.7528                 1.2423
 IR Inten    --      4.5886                 1.9700                16.9039

                     43                     44                     45
                      A                      A                      A
 Frequencies --   1022.7870              1061.4583              1094.8296
 Red. masses --      6.1755                 1.7610                 1.6951
 Frc consts  --      3.8062                 1.1690                 1.1971
 IR Inten    --      0.2285                16.0117                 6.2978

                     46                     47                     48
                      A                      A                      A
 Frequencies --   1104.4013              1117.9005              1128.9871
 Red. masses --      1.7827                 1.2382                 1.8090
 Frc consts  --      1.2811                 0.9117                 1.3585
 IR Inten    --      4.9454                 2.6372                 3.5254

                     49                     50                     51
                      A                      A                      A
 Frequencies --   1140.4323              1147.7301              1171.8643
 Red. masses --      4.2032                 1.6250                 2.8955
 Frc consts  --      3.2209                 1.2612                 2.3428
 IR Inten    --     57.7465                 3.5720                10.7636

                     52                     53                     54
                      A                      A                      A
 Frequencies --   1205.7080              1234.9289              1244.2004
 Red. masses --      1.1280                 1.2805                 2.8456
 Frc consts  --      0.9662                 1.1506                 2.5954
 IR Inten    --      6.8228                 3.8612                17.0943

                     55                     56                     57
                      A                      A                      A
 Frequencies --   1275.8507              1317.5361              1345.6127
 Red. masses --      1.3777                 1.4776                 1.3061
 Frc consts  --      1.3213                 1.5113                 1.3933
 IR Inten    --     17.2624                 1.7594                 2.0136

                     58                     59                     60
                      A                      A                      A
 Frequencies --   1366.6869              1378.8432              1379.7424
 Red. masses --      3.4210                 3.3311                 1.3569
 Frc consts  --      3.7648                 3.7313                 1.5219
 IR Inten    --     78.4087               170.5342                34.7812

                     61                     62                     63
                      A                      A                      A
 Frequencies --   1407.5181              1413.4076              1489.5177
 Red. masses --      2.0819                 1.5076                 2.9646
 Frc consts  --      2.4300                 1.7745                 3.8753
 IR Inten    --      2.0282                29.0181                21.7121

                     64                     65                     66
                      A                      A                      A
 Frequencies --   1495.3090              1496.2476              1514.7759
 Red. masses --      1.3369                 2.9979                 1.2321
 Frc consts  --      1.7612                 3.9544                 1.6657
 IR Inten    --      5.5616                 3.3506                29.0683

                     67                     68                     69
                      A                      A                      A
 Frequencies --   1532.5527              1542.6096              1597.9831
 Red. masses --      1.7642                 1.2814                 5.1748
 Frc consts  --      2.4414                 1.7966                 7.7856
 IR Inten    --     14.6740                 3.3235                 0.3309

                     70                     71                     72
                      A                      A                      A
 Frequencies --   1643.7951              1647.7860              1668.0205
 Red. masses --      2.9275                 1.5580                 5.9228
 Frc consts  --      4.6607                 2.4923                 9.7091
 IR Inten    --     28.8051               134.5719                12.7297

                     73                     74                     75
                      A                      A                      A
 Frequencies --   1788.2381              2995.7378              3032.7295
 Red. masses --      8.3445                 1.0623                 1.0979
 Frc consts  --     15.7217                 5.6170                 5.9496
 IR Inten    --    229.3539                29.6880                24.8170

                     76                     77                     78
                      A                      A                      A
 Frequencies --   3053.3465              3096.3608              3187.1595
 Red. masses --      1.0594                 1.1057                 1.0863
 Frc consts  --      5.8190                 6.2458                 6.5014
 IR Inten    --     37.6049                17.8253                 7.0356

                     79                     80                     81
                      A                      A                      A
 Frequencies --   3203.4444              3205.7560              3212.3402
 Red. masses --      1.0923                 1.0900                 1.0901
 Frc consts  --      6.6042                 6.5997                 6.6279
 IR Inten    --     21.7820                 7.8182                 1.2333

                     82                     83                     84
                      A                      A                      A
 Frequencies --   3218.6931              3226.6054              3271.6650
 Red. masses --      1.0937                 1.0937                 1.0970
 Frc consts  --      6.6759                 6.7087                 6.9183
 IR Inten    --      8.9851                 9.4902                 1.3276

                     85                     86                     87
                      A                      A                      A
 Frequencies --   3484.9356              3579.3419              3698.2000
 Red. masses --      1.0739                 1.0460                 1.1022
 Frc consts  --      7.6845                 7.8958                 8.8818
 IR Inten    --      0.0899                33.4891                24.5948

 - Thermochemistry -
 -------------------
 Temperature   298.150 Kelvin.  Pressure   1.00000 Atm.
 Atom     1 has atomic number  6 and mass  12.00000

 Molecular mass:   246.08268 amu.
 Principal axes and moments of inertia in atomic units:
                           1         2         3
     Eigenvalues --  2198.62472********************
           X            1.00000   0.00180   0.00078
           Y           -0.00180   0.99995   0.00952
           Z           -0.00077  -0.00952   0.99995
 This molecule is an asymmetric top.
 Rotational symmetry number  1.
 Warning -- assumption of classical behavior for rotation
           may cause significant error
 Rotational temperatures (Kelvin)      0.03939     0.00829     0.00730
 Rotational constants (GHZ):           0.82085     0.17277     0.15205
 Zero-point vibrational energy     657484.8 (Joules/Mol)
                                  157.14264 (Kcal/Mol)
 Warning -- explicit consideration of  23 degrees of freedom as
           vibrations may cause significant error
 Vibrational temperatures:     20.31    33.62    48.66    72.67   107.53
          (Kelvin)            158.11   223.58   233.51   265.82   323.57
                              367.85   454.95   489.94   571.02   582.29
                              612.83   622.03   684.12   728.70   775.57
                              817.55   828.64   877.49   901.01   932.99
                              984.76  1014.65  1020.29  1069.49  1079.42
                             1098.26  1164.09  1192.18  1210.41  1246.70
                             1288.27  1308.29  1341.46  1362.34  1372.65
                             1424.55  1430.54  1471.56  1527.20  1575.22
                             1588.99  1608.41  1624.36  1640.83  1651.33
                             1686.05  1734.74  1776.79  1790.13  1835.66
                             1895.64  1936.04  1966.36  1983.85  1985.14
                             2025.10  2033.58  2143.08  2151.42  2152.77
                             2179.42  2205.00  2219.47  2299.14  2365.05
                             2370.80  2399.91  2572.88  4310.20  4363.42
                             4393.08  4454.97  4585.61  4609.04  4612.37
                             4621.84  4630.98  4642.37  4707.20  5014.05
                             5149.87  5320.88

 Zero-point correction=                           0.250423 (Hartree/Particle)
 Thermal correction to Energy=                    0.266095
 Thermal correction to Enthalpy=                  0.267039
 Thermal correction to Gibbs Free Energy=         0.203757
 Sum of electronic and zero-point Energies=          -1086.538361
 Sum of electronic and thermal Energies=             -1086.522689
 Sum of electronic and thermal Enthalpies=           -1086.521745
 Sum of electronic and thermal Free Energies=        -1086.585027

                     E (Thermal)             CV                S
                      KCal/Mol        Cal/Mol-Kelvin    Cal/Mol-Kelvin
 Total                  166.977             59.594            133.188
 Electronic               0.000              0.000              0.000
 Translational            0.889              2.981             42.402
 Rotational               0.889              2.981             33.966
 Vibrational            165.200             53.632             56.821
 Vibration     1          0.593              1.986              7.326
 Vibration     2          0.593              1.985              6.325
 Vibration     3          0.594              1.983              5.592
 Vibration     4          0.595              1.977              4.797
 Vibration     5          0.599              1.966              4.025
 Vibration     6          0.606              1.941              3.271
 Vibration     7          0.620              1.897              2.605
 Vibration     8          0.622              1.889              2.523
 Vibration     9          0.631              1.861              2.280
 Vibration    10          0.650              1.803              1.919
 Vibration    11          0.666              1.753              1.691
 Vibration    12          0.703              1.643              1.330
 Vibration    13          0.720              1.594              1.210
 Vibration    14          0.763              1.477              0.974
 Vibration    15          0.770              1.460              0.945
 Vibration    16          0.788              1.414              0.872
 Vibration    17          0.793              1.400              0.851
 Vibration    18          0.832              1.304              0.722
 Vibration    19          0.862              1.236              0.642
 Vibration    20          0.894              1.164              0.567
 Vibration    21          0.924              1.100              0.508
 Vibration    22          0.932              1.083              0.493
 Vibration    23          0.969              1.011              0.433

 Optimization completed.
    -- Stationary point found.
 Normal termination of Gaussian 16 at Mon Dec 14 16:53:09 2020.

 ----------------------------------------------------------------------
 # B3LYP/6-311++G(d,p) empiricaldispersion=gd3bj scf=xqc pop=npa geom=c
 heck
 ----------------------------------------------------------------------

 --------------------------------------
 CID_43245359_JID_7542_Energie_neutraal
 --------------------------------------
 Structure from the checkpoint file:  "JID_7542.chk"
 Charge =  0 Multiplicity = 1

 SCF Done:  E(RB3LYP) =  -1087.01217324     A.U. after   16 cycles
 Normal termination of Gaussian 16 at Mon Dec 14 16:58:20 2020.

 ----------------------------------------------------------------------
 # B3LYP/6-311++G(d,p) empiricaldispersion=gd3bj scf=xqc pop=npa geom=c
 heck
 ----------------------------------------------------------------------

 ------------------------------------
 CID_43245359_JID_7542_Energie_kation
 ------------------------------------
 Structure from the checkpoint file:  "JID_7542.chk"
 Charge =  1 Multiplicity = 2

 SCF Done:  E(UB3LYP) =  -1086.71966190     A.U. after   33 cycles
 SCF Done:  E(UB3LYP) =  -1086.71966190     a.u. after    1 cycles
 Normal termination of Gaussian 16 at Mon Dec 14 17:14:27 2020.
 Gaussian 16:  ES64L-G16RevA.03 25-Dec-2016

 ----------------------------------------------------------------------
 # B3LYP/6-311++G(d,p) empiricaldispersion=gd3bj scf=xqc pop=npa geom=c
 heck
 ----------------------------------------------------------------------

 -----------------------------------
 CID_43245359_JID_7542_Energie_anion
 -----------------------------------
 Structure from the checkpoint file:  "JID_7542.chk"
 Charge = -1 Multiplicity = 2

                         Standard orientation:
 ---------------------------------------------------------------------
 Center     Atomic      Atomic             Coordinates (Angstroms)
 Number     Number       Type             X           Y           Z
 ---------------------------------------------------------------------
      1          6           0       -3.076814   -2.202399    0.133923
      2          6           0       -1.712728   -2.105618   -0.133421
      3          6           0       -1.118062   -0.855122   -0.350558
      4          6           0       -1.911205    0.289001   -0.279867
      5          6           0       -3.279725    0.204159    0.002067
      6          6           0       -3.863646   -1.052482    0.200636
      7          6           0       -4.049852    1.489124    0.066701
      8          8           0       -3.627938    2.528893   -0.423823
      9          7           0       -5.277589    1.429308    0.688440
     10          6           0        0.355720   -0.750428   -0.677281
     11          7           0        1.144498   -1.662346    0.151239
     12          6           0        2.573672   -1.710287   -0.175369
     13          6           0        3.369872   -0.464002    0.121917
     14          6           0        4.050569   -0.165810    1.275213
     15          6           0        4.655738    1.127324    1.266333
     16          6           0        4.431643    1.806264    0.100656
     17         16           0        3.473935    0.870343   -1.003133
     18          1           0       -3.532072   -3.177520    0.283079
     19          1           0       -1.089675   -2.993419   -0.171771
     20          1           0       -1.483206    1.273513   -0.441696
     21          1           0       -4.932100   -1.142445    0.373431
     22          1           0       -5.453926    0.716412    1.381411
     23          1           0       -5.717376    2.326061    0.848448
     24          1           0        0.522192   -1.045413   -1.723918
     25          1           0        0.667873    0.303459   -0.602228
     26          1           0        1.036179   -1.394703    1.128798
     27          1           0        3.014856   -2.533611    0.398203
     28          1           0        2.658888   -1.980194   -1.234620
     29          1           0        4.121933   -0.860503    2.106499
     30          1           0        5.236572    1.529899    2.088897
     31          1           0        4.770946    2.794751   -0.177282
 ---------------------------------------------------------------------

 SCF Done:  E(UB3LYP) =  -1087.01131295     A.U. after   33 cycles
 SCF Done:  E(UB3LYP) =  -1087.01131295     a.u. after    1 cycles

 The electronic state is 2-A.
 Alpha  occ. eigenvalues --  -88.77282 -18.95390 -14.20841 -14.19498 -10.13487
 Alpha  occ. eigenvalues --  -10.10559 -10.09716 -10.09578 -10.08246 -10.07983
 Alpha  occ. eigenvalues --  -10.07474 -10.05174 -10.05140 -10.04641 -10.04358
 Alpha  occ. eigenvalues --  -10.04304 -10.03593  -7.85912  -5.82194  -5.81829
 Alpha  occ. eigenvalues --   -5.81528  -0.90659  -0.80892  -0.78096  -0.77646
 Alpha  occ. eigenvalues --   -0.73042  -0.66084  -0.63575  -0.63153  -0.62645
 Alpha  occ. eigenvalues --   -0.57638  -0.53363  -0.51289  -0.47270  -0.46492
 Alpha  occ. eigenvalues --   -0.44839  -0.44175  -0.42308  -0.41183  -0.38570
 Alpha  occ. eigenvalues --   -0.37076  -0.35592  -0.34047  -0.33018  -0.32011
 Alpha  occ. eigenvalues --   -0.31117  -0.30234  -0.29746  -0.29289  -0.28922
 Alpha  occ. eigenvalues --   -0.28100  -0.27853  -0.26806  -0.26046  -0.24338
 Alpha  occ. eigenvalues --   -0.23189  -0.22611  -0.21735  -0.15924  -0.15837
 Alpha  occ. eigenvalues --   -0.14549  -0.13618  -0.13303  -0.12683  -0.11912
 Alpha  occ. eigenvalues --    0.04417
 Alpha virt. eigenvalues --    0.06106   0.06807   0.07154   0.07794   0.08426
 Alpha virt. eigenvalues --    0.09011   0.09123   0.10461   0.10729   0.10806
 Alpha virt. eigenvalues --    0.11384   0.12144   0.12359   0.12507   0.12985

  Beta  occ. eigenvalues --  -88.77266 -18.95205 -14.20802 -14.19468 -10.13339
  Beta  occ. eigenvalues --  -10.10555 -10.09611 -10.09466 -10.08246 -10.07981
  Beta  occ. eigenvalues --  -10.07455 -10.05200 -10.05160 -10.04501 -10.04321
  Beta  occ. eigenvalues --  -10.04165 -10.03352  -7.85898  -5.82189  -5.81824
  Beta  occ. eigenvalues --   -5.81475  -0.90327  -0.80811  -0.77945  -0.77537
  Beta  occ. eigenvalues --   -0.72812  -0.65916  -0.63486  -0.62912  -0.62351
  Beta  occ. eigenvalues --   -0.57502  -0.53226  -0.50847  -0.47177  -0.46366
  Beta  occ. eigenvalues --   -0.44614  -0.44050  -0.42223  -0.41120  -0.38468
  Beta  occ. eigenvalues --   -0.37000  -0.35412  -0.33886  -0.32915  -0.31880
  Beta  occ. eigenvalues --   -0.31029  -0.30105  -0.29669  -0.28857  -0.28577
  Beta  occ. eigenvalues --   -0.27918  -0.27514  -0.26590  -0.25992  -0.24236
  Beta  occ. eigenvalues --   -0.22607  -0.22479  -0.21651  -0.15575  -0.15314
  Beta  occ. eigenvalues --   -0.14151  -0.13163  -0.12718  -0.12183  -0.11293
  Beta virt. eigenvalues --    0.06478   0.07153   0.07287   0.08019   0.08519
  Beta virt. eigenvalues --    0.08797   0.08968   0.09310   0.10471   0.10727
  Beta virt. eigenvalues --    0.10915   0.11414   0.12177   0.12322   0.12569

 Mulliken charges and spin densities:
               1          2
     1  C   -0.169567  -0.341016
     2  C   -0.571938   0.423801
     3  C    0.209934   0.075349
     4  C   -0.694639   0.190661
     5  C    0.854345   0.067738
     6  C   -0.913386   0.222388
     7  C   -0.028948   0.021545
     8  O   -0.384831   0.064825
     9  N   -0.327323  -0.032934
    10  C    0.355925  -0.516145
    11  N    0.121247   0.040376
    12  C   -0.196397  -0.882742
    13  C   -0.010477   0.528745
    14  C   -0.025322   0.048874
    15  C   -0.202900  -0.271371
    16  C   -0.180438   0.084453
    17  S    0.039099   0.185705
    18  H    0.057085   0.068878
    19  H    0.099216   0.057465
    20  H    0.155648   0.007234
    21  H    0.108083  -0.006837
    22  H    0.008437   0.199173
    23  H    0.230677   0.056467
    24  H    0.072960   0.064325
    25  H    0.061697  -0.042645
    26  H    0.152180   0.031938
    27  H    0.049185   0.120446
    28  H   -0.077042   0.257815
    29  H   -0.049600   0.199415
    30  H    0.064078   0.054921
    31  H    0.193011   0.021151
 Sum of Mulliken charges =  -1.00000   1.00000

 Dipole moment (field-independent basis, Debye):
    X=              4.2098    Y=             -0.9874    Z=              1.4053  Tot=              4.5466
 Quadrupole moment (field-independent basis, Debye-Ang):
   XX=           -177.2064   YY=           -137.8600   ZZ=           -122.6126
   XY=             12.3188   XZ=             -2.8082   YZ=              1.2215

 Summary of Natural Population Analysis:

                                       Natural Population
                Natural  -----------------------------------------------
    Atom  No    Charge         Core      Valence    Rydberg      Total
 -----------------------------------------------------------------------
      C    1   -0.11947      0.99957     2.10985    0.01005     3.11947
      C    2   -0.05370      0.99952     2.04537    0.00882     3.05370
      C    3   -0.02669      0.99951     2.01826    0.00892     3.02669
      C    4   -0.07440      0.99949     2.06708    0.00783     3.07440
      C    5   -0.04908      0.99946     2.03890    0.01072     3.04908
      C    6   -0.07531      0.99954     2.06617    0.00960     3.07531
      C    7    0.34869      0.99966     1.62749    0.02416     2.65131
      O    8   -0.31066      0.99988     3.30535    0.00544     4.31066
      N    9   -0.41177      0.99971     2.90399    0.00806     3.91177
      C   10   -0.09582      0.99959     2.08514    0.01109     3.09582
      N   11   -0.32856      0.99976     2.81715    0.01165     3.82856
      C   12   -0.10431      0.99956     2.09080    0.01395     3.10431
      C   13   -0.09118      0.99949     2.07883    0.01286     3.09118
      C   14   -0.13239      0.99946     2.12341    0.00952     3.13239
      C   15   -0.13241      0.99954     2.12265    0.01022     3.13241
      C   16   -0.18400      0.99955     2.17298    0.01147     3.18400
      S   17    0.20665      4.99940     2.77279    0.02116     7.79335
      H   18    0.09357      0.00000     0.40561    0.00082     0.40643
      H   19    0.10068      0.00000     0.39794    0.00139     0.39932
      H   20    0.10809      0.00000     0.39068    0.00124     0.39191
      H   21    0.09360      0.00000     0.40536    0.00104     0.40640
      H   22    0.18940      0.00000     0.30809    0.00252     0.31060
      H   23    0.18702      0.00000     0.31074    0.00224     0.31298
      H   24    0.09384      0.00000     0.40496    0.00120     0.40616
      H   25    0.08770      0.00000     0.41038    0.00192     0.41230
      H   26    0.17104      0.00000     0.32634    0.00262     0.32896
      H   27    0.10005      0.00000     0.39886    0.00109     0.39995
      H   28    0.09886      0.00000     0.39981    0.00133     0.40114
      H   29    0.10336      0.00000     0.39547    0.00117     0.39664
      H   30    0.10230      0.00000     0.39685    0.00085     0.39770
      H   31    0.10490      0.00000     0.39427    0.00084     0.39510
 =======================================================================
   * Total *   -0.00000     20.99270    43.79153    0.21577    65.00000

 Normal termination of Gaussian 16 at Mon Dec 14 17:31:34 2020.
