 Gaussian 16, Revision A.03,

 -----------------------------------------------------------
 # opt freq B3LYP/6-31G(d) empiricaldispersion=gd3bj scf=xqc
 -----------------------------------------------------------

 ------------------------------
 CID_10932434_JID_4975_neutraal
 ------------------------------
 Symbolic Z-matrix:
 Charge =  0 Multiplicity = 1

 SCF Done:  E(RB3LYP) =  -621.031496725     A.U. after   15 cycles
 SCF Done:  E(RB3LYP) =  -621.034027047     A.U. after   12 cycles
 SCF Done:  E(RB3LYP) =  -621.033501099     A.U. after   13 cycles
 SCF Done:  E(RB3LYP) =  -621.034609162     A.U. after   11 cycles
 SCF Done:  E(RB3LYP) =  -621.034996345     A.U. after   11 cycles
 SCF Done:  E(RB3LYP) =  -621.035007076     A.U. after   11 cycles
 SCF Done:  E(RB3LYP) =  -621.035159821     A.U. after   11 cycles
 SCF Done:  E(RB3LYP) =  -621.035178575     A.U. after   10 cycles
 SCF Done:  E(RB3LYP) =  -621.035188442     A.U. after   10 cycles
 SCF Done:  E(RB3LYP) =  -621.035193138     A.U. after    9 cycles
 SCF Done:  E(RB3LYP) =  -621.035208898     A.U. after    9 cycles
 SCF Done:  E(RB3LYP) =  -621.035211649     A.U. after    9 cycles
 SCF Done:  E(RB3LYP) =  -621.035212769     A.U. after    9 cycles
 SCF Done:  E(RB3LYP) =  -621.035213012     A.U. after    8 cycles
 SCF Done:  E(RB3LYP) =  -621.035213077     A.U. after    7 cycles
 Optimization completed.
    -- Stationary point found.
 Normal termination of Gaussian 16 at Thu Dec 10 11:10:34 2020.

 --------------------------------------------------------------------
 #N Geom=AllCheck Guess=TCheck SCRF=Check GenChk RB3LYP/6-31G(d) Freq
 --------------------------------------------------------------------

 Structure from the checkpoint file:  "JID_4975.chk"
 ------------------------------
 CID_10932434_JID_4975_neutraal
 ------------------------------
 Charge =  0 Multiplicity = 1

 SCF Done:  E(RB3LYP) =  -621.035213077     A.U. after    1 cycles

  Exact polarizability: 160.643  -1.663 128.148   2.323  -2.444 108.630
 Approx polarizability: 199.026  -1.124 170.343   4.090  -6.843 172.119

                      1                      2                      3
                      A                      A                      A
 Frequencies --     21.0183                26.6156                48.1971
 Red. masses --      3.2280                 3.1122                 2.1548
 Frc consts  --      0.0008                 0.0013                 0.0029
 IR Inten    --      0.1410                 0.0402                 0.7585

                      4                      5                      6
                      A                      A                      A
 Frequencies --     65.5441                67.8635                90.0841
 Red. masses --      2.8316                 1.8282                 1.9361
 Frc consts  --      0.0072                 0.0050                 0.0093
 IR Inten    --      0.1364                 2.1810                 1.9764

                      7                      8                      9
                      A                      A                      A
 Frequencies --    101.6922               115.8399               122.3943
 Red. masses --      2.8845                 2.6859                 3.6346
 Frc consts  --      0.0176                 0.0212                 0.0321
 IR Inten    --      0.1005                 0.5951                 1.7738

                     10                     11                     12
                      A                      A                      A
 Frequencies --    133.2234               179.0678               197.7590
 Red. masses --      2.1265                 1.7026                 3.7249
 Frc consts  --      0.0222                 0.0322                 0.0858
 IR Inten    --      0.2431                 0.0742                 3.2620

                     13                     14                     15
                      A                      A                      A
 Frequencies --    238.5039               273.0342               276.6646
 Red. masses --      2.2732                 1.2865                 1.4623
 Frc consts  --      0.0762                 0.0565                 0.0659
 IR Inten    --      0.7733                 0.0849                 0.4752

                     16                     17                     18
                      A                      A                      A
 Frequencies --    307.1720               308.9349               347.7881
 Red. masses --      2.7503                 3.0089                 2.4160
 Frc consts  --      0.1529                 0.1692                 0.1722
 IR Inten    --      1.5181                 0.9664                 0.9871

                     19                     20                     21
                      A                      A                      A
 Frequencies --    377.8171               432.1740               452.1044
 Red. masses --      2.2843                 1.9814                 3.0125
 Frc consts  --      0.1921                 0.2180                 0.3628
 IR Inten    --      1.3692                 0.6888                 4.8993

                     22                     23                     24
                      A                      A                      A
 Frequencies --    466.4136               523.3177               587.0231
 Red. masses --      2.7885                 2.8175                 3.3702
 Frc consts  --      0.3574                 0.4546                 0.6843
 IR Inten    --      2.9608                 2.0680                 6.1814

                     25                     26                     27
                      A                      A                      A
 Frequencies --    612.6353               719.6539               756.0732
 Red. masses --      3.2414                 1.8848                 1.4239
 Frc consts  --      0.7168                 0.5751                 0.4796
 IR Inten    --      9.9248                 3.1549                13.4293

                     28                     29                     30
                      A                      A                      A
 Frequencies --    775.9115               804.2961               817.5202
 Red. masses --      1.6366                 2.3064                 1.8406
 Frc consts  --      0.5805                 0.8791                 0.7248
 IR Inten    --      2.3557                 9.8515                 3.6507

                     31                     32                     33
                      A                      A                      A
 Frequencies --    838.8926               873.8003               883.2096
 Red. masses --      2.7309                 2.1506                 1.9594
 Frc consts  --      1.1323                 0.9675                 0.9005
 IR Inten    --      0.1731                 2.2016                 2.1101

                     34                     35                     36
                      A                      A                      A
 Frequencies --    891.8300               932.9446               978.8663
 Red. masses --      1.5317                 1.7219                 1.9225
 Frc consts  --      0.7178                 0.8830                 1.0853
 IR Inten    --      2.7734                 1.3752                 5.7811

                     37                     38                     39
                      A                      A                      A
 Frequencies --    992.4803              1015.4236              1015.7314
 Red. masses --      2.0034                 1.1786                 1.7075
 Frc consts  --      1.1627                 0.7160                 1.0380
 IR Inten    --      2.2597                 9.1646                11.4081

                     40                     41                     42
                      A                      A                      A
 Frequencies --   1026.6977              1053.1783              1065.9423
 Red. masses --      1.5760                 1.8084                 2.1317
 Frc consts  --      0.9788                 1.1818                 1.4270
 IR Inten    --      5.0158                 1.7623                60.9322

                     43                     44                     45
                      A                      A                      A
 Frequencies --   1074.4901              1081.5409              1108.5199
 Red. masses --      1.7537                 2.2251                 2.4023
 Frc consts  --      1.1929                 1.5335                 1.7393
 IR Inten    --      8.0720                26.5501                 2.6762

                     46                     47                     48
                      A                      A                      A
 Frequencies --   1126.8238              1137.7683              1162.0659
 Red. masses --      1.6138                 1.9768                 2.3430
 Frc consts  --      1.2073                 1.5077                 1.8642
 IR Inten    --      0.7250                 1.0959                 3.4709

                     49                     50                     51
                      A                      A                      A
 Frequencies --   1175.7092              1226.6057              1254.9490
 Red. masses --      2.2693                 1.2900                 1.3207
 Frc consts  --      1.8482                 1.1436                 1.2255
 IR Inten    --     18.6199                 2.2051                 3.8569

                     52                     53                     54
                      A                      A                      A
 Frequencies --   1266.5040              1281.9367              1302.4125
 Red. masses --      3.2561                 1.3344                 1.2750
 Frc consts  --      3.0772                 1.2920                 1.2743
 IR Inten    --    312.6339                 9.6936                 0.9266

                     55                     56                     57
                      A                      A                      A
 Frequencies --   1326.0407              1341.8239              1350.7444
 Red. masses --      1.1883                 1.1676                 1.2535
 Frc consts  --      1.2311                 1.2387                 1.3474
 IR Inten    --      6.5720                 0.9506                 0.4315

                     58                     59                     60
                      A                      A                      A
 Frequencies --   1370.5570              1377.6120              1381.6186
 Red. masses --      1.3861                 1.3516                 1.4460
 Frc consts  --      1.5340                 1.5113                 1.6263
 IR Inten    --     10.8168                 1.4727                20.6605

                     61                     62                     63
                      A                      A                      A
 Frequencies --   1394.0905              1402.2402              1411.5607
 Red. masses --      1.3662                 1.3097                 1.4160
 Frc consts  --      1.5644                 1.5173                 1.6623
 IR Inten    --     22.7598                 5.9792                 2.7916

                     64                     65                     66
                      A                      A                      A
 Frequencies --   1419.7684              1429.9173              1444.5604
 Red. masses --      1.3036                 1.4248                 1.2637
 Frc consts  --      1.5483                 1.7165                 1.5537
 IR Inten    --     27.7671                43.1863                 6.8887

                     67                     68                     69
                      A                      A                      A
 Frequencies --   1445.1491              1500.1414              1505.8007
 Red. masses --      1.2648                 1.0519                 1.0485
 Frc consts  --      1.5563                 1.3948                 1.4008
 IR Inten    --      5.6132                14.1469                 8.1328

                     70                     71                     72
                      A                      A                      A
 Frequencies --   1513.3247              1517.3981              1519.9630
 Red. masses --      1.0899                 1.0661                 1.0817
 Frc consts  --      1.4706                 1.4463                 1.4724
 IR Inten    --      2.8985                 1.3079                 2.2875

                     73                     74                     75
                      A                      A                      A
 Frequencies --   1525.8617              1530.9999              1532.3956
 Red. masses --      1.0538                 1.0739                 1.0533
 Frc consts  --      1.4456                 1.4831                 1.4573
 IR Inten    --      0.1146                 9.2334                 1.6274

                     76                     77                     78
                      A                      A                      A
 Frequencies --   1536.6178              1544.7340              1544.7938
 Red. masses --      1.0718                 1.0654                 1.0626
 Frc consts  --      1.4911                 1.4978                 1.4940
 IR Inten    --      7.0365                 2.7968                 1.1944

                     79                     80                     81
                      A                      A                      A
 Frequencies --   1760.4868              1826.9058              3024.3581
 Red. masses --      6.3399                10.7800                 1.0628
 Frc consts  --     11.5771                21.1982                 5.7275
 IR Inten    --      6.7001               185.4533                32.1403

                     82                     83                     84
                      A                      A                      A
 Frequencies --   3035.1717              3036.8783              3037.2642
 Red. masses --      1.0618                 1.0663                 1.0619
 Frc consts  --      5.7632                 5.7943                 5.7717
 IR Inten    --     16.9627                20.2843                46.1525

                     85                     86                     87
                      A                      A                      A
 Frequencies --   3041.8420              3045.5359              3056.0126
 Red. masses --      1.0402                 1.0373                 1.0829
 Frc consts  --      5.6706                 5.6688                 5.9586
 IR Inten    --     26.8446                18.7063                32.1689

                     88                     89                     90
                      A                      A                      A
 Frequencies --   3060.3980              3066.8324              3068.8257
 Red. masses --      1.0794                 1.0930                 1.0981
 Frc consts  --      5.9562                 6.0569                 6.0930
 IR Inten    --      6.5073                28.3370                27.7569

                     91                     92                     93
                      A                      A                      A
 Frequencies --   3069.4677              3078.5524              3080.2721
 Red. masses --      1.0385                 1.0936                 1.1015
 Frc consts  --      5.7648                 6.1069                 6.1574
 IR Inten    --      2.4128                83.7645                30.5407

                     94                     95                     96
                      A                      A                      A
 Frequencies --   3107.4879              3110.5194              3116.3802
 Red. masses --      1.0997                 1.1019                 1.1017
 Frc consts  --      6.2568                 6.2812                 6.3041
 IR Inten    --     43.7682                53.2657                52.2069

                     97                     98                     99
                      A                      A                      A
 Frequencies --   3128.0210              3134.7534              3144.5497
 Red. masses --      1.1019                 1.0982                 1.0950
 Frc consts  --      6.3526                 6.3583                 6.3793
 IR Inten    --     35.0040                 7.2851                 8.7154

                    100                    101                    102
                      A                      A                      A
 Frequencies --   3159.9279              3173.2864              3181.9201
 Red. masses --      1.0889                 1.0869                 1.1039
 Frc consts  --      6.4063                 6.4485                 6.5852
 IR Inten    --     10.7912                24.8720                 7.7314

 - Thermochemistry -
 -------------------
 Temperature   298.150 Kelvin.  Pressure   1.00000 Atm.
 Atom     1 has atomic number  6 and mass  12.00000

 Molecular mass:   198.16198 amu.
 Principal axes and moments of inertia in atomic units:
                           1         2         3
     Eigenvalues --  2083.742534768.549596069.02132
           X            1.00000  -0.00099   0.00010
           Y            0.00099   0.99988  -0.01577
           Z           -0.00008   0.01577   0.99988
 This molecule is an asymmetric top.
 Rotational symmetry number  1.
 Warning -- assumption of classical behavior for rotation
           may cause significant error
 Rotational temperatures (Kelvin)      0.04157     0.01816     0.01427
 Rotational constants (GHZ):           0.86611     0.37847     0.29737
 Zero-point vibrational energy     851908.8 (Joules/Mol)
                                  203.61108 (Kcal/Mol)
 Warning -- explicit consideration of  25 degrees of freedom as
           vibrations may cause significant error
 Vibrational temperatures:     30.24    38.29    69.34    94.30    97.64
          (Kelvin)            129.61   146.31   166.67   176.10   191.68
                              257.64   284.53   343.15   392.84   398.06
                              441.95   444.49   500.39   543.59   621.80
                              650.48   671.07   752.94   844.60   881.45
                             1035.42  1087.82  1116.36  1157.20  1176.23
                             1206.98  1257.20  1270.74  1283.14  1342.30
                             1408.37  1427.96  1460.97  1461.41  1477.19
                             1515.29  1533.65  1545.95  1556.10  1594.91
                             1621.25  1636.99  1671.95  1691.58  1764.81
                             1805.59  1822.22  1844.42  1873.88  1907.88
                             1930.59  1943.42  1971.93  1982.08  1987.84
                             2005.79  2017.51  2030.92  2042.73  2057.33
                             2078.40  2079.25  2158.37  2166.51  2177.34
                             2183.20  2186.89  2195.37  2202.77  2204.78
                             2210.85  2222.53  2222.61  2532.95  2628.51
                             4351.38  4366.94  4369.39  4369.95  4376.53
                             4381.85  4396.92  4403.23  4412.49  4415.36
                             4416.28  4429.35  4431.82  4470.98  4475.34
                             4483.78  4500.52  4510.21  4524.31  4546.43
                             4565.65  4578.07

 Zero-point correction=                           0.324475 (Hartree/Particle)
 Thermal correction to Energy=                    0.341824
 Thermal correction to Enthalpy=                  0.342768
 Thermal correction to Gibbs Free Energy=         0.277126
 Sum of electronic and zero-point Energies=           -620.710738
 Sum of electronic and thermal Energies=              -620.693389
 Sum of electronic and thermal Enthalpies=            -620.692445
 Sum of electronic and thermal Free Energies=         -620.758087

                     E (Thermal)             CV                S
                      KCal/Mol        Cal/Mol-Kelvin    Cal/Mol-Kelvin
 Total                  214.498             61.708            138.156
 Electronic               0.000              0.000              0.000
 Translational            0.889              2.981             41.757
 Rotational               0.889              2.981             32.467
 Vibrational            212.720             55.746             63.933
 Vibration     1          0.593              1.986              6.536
 Vibration     2          0.593              1.984              6.067
 Vibration     3          0.595              1.978              4.890
 Vibration     4          0.597              1.971              4.283
 Vibration     5          0.598              1.970              4.214
 Vibration     6          0.602              1.956              3.658
 Vibration     7          0.604              1.948              3.422
 Vibration     8          0.608              1.936              3.169
 Vibration     9          0.610              1.930              3.062
 Vibration    10          0.613              1.920              2.899
 Vibration    11          0.629              1.868              2.338
 Vibration    12          0.637              1.843              2.154
 Vibration    13          0.656              1.782              1.814
 Vibration    14          0.676              1.723              1.577
 Vibration    15          0.678              1.717              1.554
 Vibration    16          0.697              1.660              1.378
 Vibration    17          0.698              1.657              1.368
 Vibration    18          0.725              1.580              1.176
 Vibration    19          0.748              1.517              1.048
 Vibration    20          0.793              1.400              0.852
 Vibration    21          0.811              1.356              0.789
 Vibration    22          0.824              1.325              0.748
 Vibration    23          0.878              1.198              0.602
 Vibration    24          0.944              1.059              0.473
 Vibration    25          0.972              1.005              0.428

                           ! Non-Optimized Parameters !
 Normal termination of Gaussian 16 at Thu Dec 10 11:21:46 2020.

 ----------------------------------------------------------------------
 # B3LYP/6-311++G(d,p) empiricaldispersion=gd3bj scf=xqc pop=npa geom=c
 heck
 ----------------------------------------------------------------------

 --------------------------------------
 CID_10932434_JID_4975_Energie_neutraal
 --------------------------------------
 Structure from the checkpoint file:  "JID_4975.chk"
 Charge =  0 Multiplicity = 1

 SCF Done:  E(RB3LYP) =  -621.214156945     A.U. after   15 cycles
 Normal termination of Gaussian 16 at Thu Dec 10 11:27:42 2020.

 ----------------------------------------------------------------------
 # B3LYP/6-311++G(d,p) empiricaldispersion=gd3bj scf=xqc pop=npa geom=c
 heck
 ----------------------------------------------------------------------

 ------------------------------------
 CID_10932434_JID_4975_Energie_kation
 ------------------------------------
 Structure from the checkpoint file:  "JID_4975.chk"
 Charge =  1 Multiplicity = 2

 SCF Done:  E(UB3LYP) =  -620.899395769     A.U. after   22 cycles
 Normal termination of Gaussian 16 at Thu Dec 10 11:40:01 2020.
 Gaussian 16:  ES64L-G16RevA.03 25-Dec-2016

 ----------------------------------------------------------------------
 # B3LYP/6-311++G(d,p) empiricaldispersion=gd3bj scf=xqc pop=npa geom=c
 heck
 ----------------------------------------------------------------------

 -----------------------------------
 CID_10932434_JID_4975_Energie_anion
 -----------------------------------
 Structure from the checkpoint file:  "JID_4975.chk"
 Charge = -1 Multiplicity = 2

                         Standard orientation:
 ---------------------------------------------------------------------
 Center     Atomic      Atomic             Coordinates (Angstroms)
 Number     Number       Type             X           Y           Z
 ---------------------------------------------------------------------
      1          6           0        4.545509   -0.172742   -0.500221
      2          6           0        3.624612   -1.330971   -0.105214
      3          6           0        2.678503   -1.005703    1.061727
      4          6           0        1.755805    0.208171    0.860428
      5          6           0        0.889241    0.134337   -0.406634
      6          6           0       -0.125060   -0.978915   -0.397650
      7          6           0       -1.374800   -0.901047   -0.851834
      8          6           0       -2.391604   -2.002780   -0.752684
      9          6           0       -3.370748   -1.796785    0.423851
     10          6           0       -4.094599   -0.447553    0.398880
     11          8           0        0.291679    1.422851   -0.722320
     12          6           0       -0.576347    1.998199    0.142431
     13          8           0       -0.893302    1.549432    1.221642
     14          6           0       -1.116992    3.279888   -0.450573
     15          1           0        3.980790    0.683097   -0.886952
     16          1           0        5.253070   -0.478732   -1.278544
     17          1           0        5.126529    0.178274    0.361528
     18          1           0        3.045681   -1.653683   -0.981034
     19          1           0        4.235830   -2.196761    0.180362
     20          1           0        2.075558   -1.893918    1.290001
     21          1           0        3.279961   -0.815946    1.960867
     22          1           0        1.105827    0.321528    1.730023
     23          1           0        2.358127    1.121602    0.786646
     24          1           0        1.556098   -0.003844   -1.265707
     25          1           0        0.233353   -1.919429    0.019383
     26          1           0       -1.724161    0.040729   -1.270330
     27          1           0       -2.967381   -2.058109   -1.687755
     28          1           0       -1.885990   -2.969118   -0.631479
     29          1           0       -4.104078   -2.614157    0.413999
     30          1           0       -2.808395   -1.884869    1.361968
     31          1           0       -4.608943   -0.289257   -0.558038
     32          1           0       -4.846721   -0.392458    1.193528
     33          1           0       -3.391228    0.377505    0.551583
     34          1           0       -0.303938    3.898415   -0.841003
     35          1           0       -1.780923    3.042918   -1.289613
     36          1           0       -1.677206    3.823360    0.310943
 ---------------------------------------------------------------------

 SCF Done:  E(UB3LYP) =  -621.198588759     A.U. after   33 cycles
 SCF Done:  E(UB3LYP) =  -621.198588759     a.u. after    1 cycles

 The electronic state is 2-A.
 Alpha  occ. eigenvalues --  -19.07126 -19.01733 -10.21116 -10.14404 -10.08487
 Alpha  occ. eigenvalues --  -10.07937 -10.07822 -10.07699 -10.07647 -10.07642
 Alpha  occ. eigenvalues --  -10.07396 -10.07290 -10.06374 -10.06369  -1.01000
 Alpha  occ. eigenvalues --   -0.92860  -0.73343  -0.71314  -0.68636  -0.65819
 Alpha  occ. eigenvalues --   -0.64205  -0.60567  -0.57764  -0.54408  -0.51388
 Alpha  occ. eigenvalues --   -0.48448  -0.46731  -0.43312  -0.41351  -0.39422
 Alpha  occ. eigenvalues --   -0.38351  -0.37110  -0.37020  -0.36112  -0.34938
 Alpha  occ. eigenvalues --   -0.33947  -0.32974  -0.32402  -0.31242  -0.30492
 Alpha  occ. eigenvalues --   -0.29947  -0.29093  -0.28991  -0.28759  -0.27021
 Alpha  occ. eigenvalues --   -0.26066  -0.25468  -0.24208  -0.24160  -0.23850
 Alpha  occ. eigenvalues --   -0.23468  -0.22507  -0.21014  -0.18758  -0.15431
 Alpha  occ. eigenvalues --    0.04267
 Alpha virt. eigenvalues --    0.05718   0.06141   0.07652   0.07719   0.07914
 Alpha virt. eigenvalues --    0.08362   0.08678   0.09289   0.09841   0.10113
 Alpha virt. eigenvalues --    0.10380   0.10721   0.10925   0.11402   0.11712

  Beta  occ. eigenvalues --  -19.07122 -19.01726 -10.21112 -10.14396 -10.08448
  Beta  occ. eigenvalues --  -10.07924 -10.07816 -10.07689 -10.07639 -10.07631
  Beta  occ. eigenvalues --  -10.07389 -10.07270 -10.06355 -10.06334  -1.00989
  Beta  occ. eigenvalues --   -0.92848  -0.73323  -0.71290  -0.68605  -0.65786
  Beta  occ. eigenvalues --   -0.64167  -0.60529  -0.57726  -0.54360  -0.51354
  Beta  occ. eigenvalues --   -0.48396  -0.46685  -0.43280  -0.41317  -0.39401
  Beta  occ. eigenvalues --   -0.38325  -0.37085  -0.36985  -0.36088  -0.34906
  Beta  occ. eigenvalues --   -0.33916  -0.32939  -0.32377  -0.31207  -0.30460
  Beta  occ. eigenvalues --   -0.29914  -0.29062  -0.28956  -0.28729  -0.26990
  Beta  occ. eigenvalues --   -0.26043  -0.25445  -0.24177  -0.24132  -0.23820
  Beta  occ. eigenvalues --   -0.23439  -0.22483  -0.21000  -0.18744  -0.15416
  Beta virt. eigenvalues --    0.06188   0.06596   0.06819   0.07977   0.08129
  Beta virt. eigenvalues --    0.08397   0.08709   0.08837   0.09457   0.10111
  Beta virt. eigenvalues --    0.10438   0.10704   0.11001   0.11305   0.11630

 Mulliken charges and spin densities:
               1          2
     1  C    1.060851  -1.658881
     2  C   -0.627723   0.382146
     3  C    0.134881  -0.286574
     4  C   -0.086917  -0.365303
     5  C    0.666261  -0.331833
     6  C   -1.480748   0.355601
     7  C    0.968746  -0.099465
     8  C    0.380165  -0.798287
     9  C   -0.516038   0.250046
    10  C    0.226141  -0.784402
    11  O    0.050738  -0.005820
    12  C   -1.296924   1.085472
    13  O   -0.147955  -0.012042
    14  C    1.503584  -2.060468
    15  H   -0.226448   0.383637
    16  H   -0.380138   0.521123
    17  H   -0.088235   0.223814
    18  H    0.008335   0.122890
    19  H   -0.575611   0.740679
    20  H    0.000102   0.131579
    21  H   -0.180284   0.351727
    22  H    0.190841   0.005494
    23  H    0.121377   0.057332
    24  H   -0.009144   0.267265
    25  H    0.114627   0.015474
    26  H    0.132829   0.070809
    27  H   -0.189633   0.343326
    28  H   -0.069496   0.220698
    29  H   -0.078717   0.212940
    30  H    0.063650   0.064093
    31  H   -0.141904   0.269406
    32  H   -0.090425   0.217197
    33  H    0.236218  -0.074056
    34  H   -0.241532   0.410688
    35  H   -0.447700   0.621918
    36  H    0.016224   0.151777
 Sum of Mulliken charges =  -1.00000   1.00000

 Dipole moment (field-independent basis, Debye):
    X=             -2.4356    Y=             -0.5530    Z=              1.9749  Tot=              3.1840
 Quadrupole moment (field-independent basis, Debye-Ang):
   XX=           -186.9573   YY=           -138.6723   ZZ=           -125.4239
   XY=              9.6074   XZ=             -0.0259   YZ=              2.9892

 Summary of Natural Population Analysis:

                                       Natural Population
                Natural  -----------------------------------------------
    Atom  No    Charge         Core      Valence    Rydberg      Total
 -----------------------------------------------------------------------
      C    1   -0.28844      0.99967     2.28314    0.00563     3.28844
      C    2   -0.19385      0.99964     2.18591    0.00830     3.19385
      C    3   -0.18901      0.99963     2.18070    0.00869     3.18901
      C    4   -0.20304      0.99960     2.19595    0.00748     3.20304
      C    5    0.05241      0.99949     1.93404    0.01406     2.94759
      C    6   -0.10562      0.99948     2.09703    0.00911     3.10562
      C    7   -0.08156      0.99951     2.07252    0.00953     3.08156
      C    8   -0.20255      0.99962     2.19388    0.00906     3.20255
      C    9   -0.18473      0.99964     2.17729    0.00781     3.18473
      C   10   -0.29106      0.99967     2.28627    0.00513     3.29106
      O   11   -0.28664      0.99986     3.27675    0.01003     4.28664
      C   12    0.40737      0.99971     1.56674    0.02617     2.59263
      O   13   -0.30445      0.99987     3.29892    0.00566     4.30445
      C   14   -0.33201      0.99962     2.32700    0.00540     3.33201
      H   15    0.09609      0.00000     0.40268    0.00123     0.40391
      H   16    0.10136      0.00000     0.39741    0.00123     0.39864
      H   17    0.09617      0.00000     0.40263    0.00119     0.40383
      H   18    0.09245      0.00000     0.40617    0.00138     0.40755
      H   19    0.09851      0.00000     0.40002    0.00147     0.40149
      H   20    0.09569      0.00000     0.40303    0.00128     0.40431
      H   21    0.09829      0.00000     0.40074    0.00098     0.40171
      H   22    0.11246      0.00000     0.38623    0.00131     0.38754
      H   23    0.10124      0.00000     0.39742    0.00134     0.39876
      H   24    0.10065      0.00000     0.39738    0.00197     0.39935
      H   25    0.09720      0.00000     0.40146    0.00133     0.40280
      H   26    0.09487      0.00000     0.40356    0.00157     0.40513
      H   27    0.09823      0.00000     0.40055    0.00122     0.40177
      H   28    0.09844      0.00000     0.40043    0.00112     0.40156
      H   29    0.09215      0.00000     0.40684    0.00101     0.40785
      H   30    0.09487      0.00000     0.40404    0.00109     0.40513
      H   31    0.09466      0.00000     0.40417    0.00117     0.40534
      H   32    0.09724      0.00000     0.40201    0.00075     0.40276
      H   33    0.10530      0.00000     0.39354    0.00115     0.39470
      H   34    0.11293      0.00000     0.38582    0.00124     0.38707
      H   35    0.11568      0.00000     0.38251    0.00181     0.38432
      H   36    0.10866      0.00000     0.39051    0.00083     0.39134
 =======================================================================
   * Total *   -0.00000     13.99498    40.84528    0.15974    55.00000

 Normal termination of Gaussian 16 at Thu Dec 10 11:58:08 2020.
