 Gaussian 16, Revision A.03,

 -----------------------------------------------------------
 # opt freq B3LYP/6-31G(d) empiricaldispersion=gd3bj scf=xqc
 -----------------------------------------------------------

 ------------------------------
 CID_64087345_JID_2461_neutraal
 ------------------------------
 Symbolic Z-matrix:
 Charge =  0 Multiplicity = 1

 SCF Done:  E(RB3LYP) =  -521.269116746     A.U. after   15 cycles
 SCF Done:  E(RB3LYP) =  -521.271205173     A.U. after   12 cycles
 SCF Done:  E(RB3LYP) =  -521.269280378     A.U. after   13 cycles
 SCF Done:  E(RB3LYP) =  -521.271118464     A.U. after   13 cycles
 SCF Done:  E(RB3LYP) =  -521.271730739     A.U. after   10 cycles
 SCF Done:  E(RB3LYP) =  -521.272130902     A.U. after   12 cycles
 SCF Done:  E(RB3LYP) =  -521.271852943     A.U. after   12 cycles
 SCF Done:  E(RB3LYP) =  -521.272316379     A.U. after   11 cycles
 SCF Done:  E(RB3LYP) =  -521.272488941     A.U. after   11 cycles
 SCF Done:  E(RB3LYP) =  -521.272595607     A.U. after   11 cycles
 SCF Done:  E(RB3LYP) =  -521.273814654     A.U. after   10 cycles
 SCF Done:  E(RB3LYP) =  -521.273813758     A.U. after   10 cycles
 SCF Done:  E(RB3LYP) =  -521.273816202     A.U. after   10 cycles
 SCF Done:  E(RB3LYP) =  -521.273816550     A.U. after    8 cycles
 SCF Done:  E(RB3LYP) =  -521.273816579     A.U. after    7 cycles
 Optimization completed.
    -- Stationary point found.
 Normal termination of Gaussian 16 at Wed Dec  9 18:18:03 2020.

 --------------------------------------------------------------------
 #N Geom=AllCheck Guess=TCheck SCRF=Check GenChk RB3LYP/6-31G(d) Freq
 --------------------------------------------------------------------

 Structure from the checkpoint file:  "JID_2461.chk"
 ------------------------------
 CID_64087345_JID_2461_neutraal
 ------------------------------
 Charge =  0 Multiplicity = 1

 SCF Done:  E(RB3LYP) =  -521.273816579     A.U. after    1 cycles

  Exact polarizability: 129.413   4.666  91.886  -5.770  -3.388 107.479
 Approx polarizability: 160.266   8.107 125.107 -11.187  -2.769 176.900

                      1                      2                      3
                      A                      A                      A
 Frequencies --     19.5276                31.7604                49.8538
 Red. masses --      4.5496                 2.5804                 3.6978
 Frc consts  --      0.0010                 0.0015                 0.0054
 IR Inten    --      0.1982                 0.1101                 0.8784

                      4                      5                      6
                      A                      A                      A
 Frequencies --     61.2287                98.2134               119.1340
 Red. masses --      4.6387                 3.2609                 3.9697
 Frc consts  --      0.0102                 0.0185                 0.0332
 IR Inten    --      0.8713                 0.7181                 1.4307

                      7                      8                      9
                      A                      A                      A
 Frequencies --    155.0011               212.7501               240.1858
 Red. masses --      4.5519                 1.2885                 1.1462
 Frc consts  --      0.0644                 0.0344                 0.0390
 IR Inten    --      0.4750                 1.0389                 0.5786

                     10                     11                     12
                      A                      A                      A
 Frequencies --    260.3172               279.4044               302.0037
 Red. masses --      2.6128                 1.7723                 2.2208
 Frc consts  --      0.1043                 0.0815                 0.1193
 IR Inten    --      2.4269                 0.8870                 1.9787

                     13                     14                     15
                      A                      A                      A
 Frequencies --    345.5501               367.1852               386.1654
 Red. masses --      4.0507                 2.5756                 2.4072
 Frc consts  --      0.2850                 0.2046                 0.2115
 IR Inten    --      3.9031                 1.0351                 0.9162

                     16                     17                     18
                      A                      A                      A
 Frequencies --    415.5133               445.2736               513.7898
 Red. masses --      1.9494                 2.6386                 1.8223
 Frc consts  --      0.1983                 0.3082                 0.2834
 IR Inten    --      0.0946                 4.1260                29.5748

                     19                     20                     21
                      A                      A                      A
 Frequencies --    552.1144               583.4903               594.5835
 Red. masses --      2.8319                 3.3570                 3.3837
 Frc consts  --      0.5086                 0.6734                 0.7048
 IR Inten    --      9.8570                 4.0710                13.6770

                     22                     23                     24
                      A                      A                      A
 Frequencies --    609.2540               629.7377               664.7913
 Red. masses --      1.2155                 1.1957                 1.4591
 Frc consts  --      0.2658                 0.2794                 0.3799
 IR Inten    --     50.3684                51.5655                83.1342

                     25                     26                     27
                      A                      A                      A
 Frequencies --    759.3851               787.9995               846.3898
 Red. masses --      2.6501                 2.8698                 2.5528
 Frc consts  --      0.9004                 1.0499                 1.0775
 IR Inten    --      2.3532                 4.2667                 7.2702

                     28                     29                     30
                      A                      A                      A
 Frequencies --    887.1789               917.9998               923.1179
 Red. masses --      2.0769                 1.7561                 2.0602
 Frc consts  --      0.9631                 0.8719                 1.0344
 IR Inten    --     17.4561                 7.7605                 1.7594

                     31                     32                     33
                      A                      A                      A
 Frequencies --    942.0868               977.2859              1000.6210
 Red. masses --      1.2008                 1.4165                 1.9221
 Frc consts  --      0.6279                 0.7971                 1.1339
 IR Inten    --      1.4121                 0.0828                 4.5188

                     34                     35                     36
                      A                      A                      A
 Frequencies --   1021.3072              1048.8453              1067.4643
 Red. masses --      2.5528                 2.1253                 1.7737
 Frc consts  --      1.5689                 1.3775                 1.1908
 IR Inten    --      3.6639                 7.5132                 7.3935

                     37                     38                     39
                      A                      A                      A
 Frequencies --   1140.5060              1147.7759              1159.1116
 Red. masses --      1.8616                 2.4968                 2.1442
 Frc consts  --      1.4267                 1.9379                 1.6973
 IR Inten    --      4.4244                 7.5588                11.0478

                     40                     41                     42
                      A                      A                      A
 Frequencies --   1204.7779              1229.9352              1246.0808
 Red. masses --      1.7321                 1.2839                 1.2482
 Frc consts  --      1.4813                 1.1443                 1.1419
 IR Inten    --     10.6245                24.2622                 0.0684

                     43                     44                     45
                      A                      A                      A
 Frequencies --   1278.4747              1290.4588              1323.4101
 Red. masses --      1.4842                 1.3892                 1.5695
 Frc consts  --      1.4293                 1.3630                 1.6195
 IR Inten    --     38.5616                 8.4332               109.0458

                     46                     47                     48
                      A                      A                      A
 Frequencies --   1360.5224              1374.4650              1389.6560
 Red. masses --      1.2427                 1.3529                 1.3888
 Frc consts  --      1.3553                 1.5059                 1.5801
 IR Inten    --     12.1026                 5.6028                29.5138

                     49                     50                     51
                      A                      A                      A
 Frequencies --   1406.2523              1415.3549              1430.3635
 Red. masses --      1.2816                 1.4518                 1.3076
 Frc consts  --      1.4932                 1.7136                 1.5762
 IR Inten    --     12.0138                 0.1532                 4.5051

                     52                     53                     54
                      A                      A                      A
 Frequencies --   1440.4774              1448.6145              1492.6853
 Red. masses --      1.7247                 1.2393                 1.0956
 Frc consts  --      2.1085                 1.5323                 1.4383
 IR Inten    --     43.8514                 3.2244                 7.8622

                     55                     56                     57
                      A                      A                      A
 Frequencies --   1496.9767              1505.5400              1507.7019
 Red. masses --      1.1619                 1.1437                 1.4611
 Frc consts  --      1.5341                 1.5273                 1.9569
 IR Inten    --      6.9842                24.1086                50.1866

                     58                     59                     60
                      A                      A                      A
 Frequencies --   1519.0829              1525.4510              1528.2694
 Red. masses --      1.0550                 1.0714                 1.0897
 Frc consts  --      1.4343                 1.4689                 1.4995
 IR Inten    --      1.1704                13.4543                 7.0032

                     61                     62                     63
                      A                      A                      A
 Frequencies --   1535.1861              1542.0475              1784.7059
 Red. masses --      1.0591                 1.0478                 8.0409
 Frc consts  --      1.4706                 1.4680                15.0900
 IR Inten    --      0.9125                 8.7900               304.6506

                     64                     65                     66
                      A                      A                      A
 Frequencies --   2243.7790              3029.5760              3033.0835
 Red. masses --      5.9637                 1.0654                 1.0378
 Frc consts  --     17.6898                 5.7614                 5.6253
 IR Inten    --      1.0051                15.0316                37.0970

                     67                     68                     69
                      A                      A                      A
 Frequencies --   3036.8608              3037.9890              3043.9584
 Red. masses --      1.0424                 1.0588                 1.0666
 Frc consts  --      5.6641                 5.7576                 5.8226
 IR Inten    --     30.0621                15.5710                25.5492

                     70                     71                     72
                      A                      A                      A
 Frequencies --   3066.2098              3069.2850              3084.4311
 Red. masses --      1.0820                 1.0918                 1.0890
 Frc consts  --      5.9935                 6.0599                 6.1041
 IR Inten    --      3.2167                 5.2947                27.0476

                     73                     74                     75
                      A                      A                      A
 Frequencies --   3087.5855              3095.8314              3103.6128
 Red. masses --      1.0809                 1.0995                 1.0973
 Frc consts  --      6.0714                 6.2085                 6.2273
 IR Inten    --     27.7572                12.7504                18.4917

                     76                     77                     78
                      A                      A                      A
 Frequencies --   3105.2526              3110.3992              3114.2833
 Red. masses --      1.0985                 1.0991                 1.1015
 Frc consts  --      6.2409                 6.2652                 6.2944
 IR Inten    --     75.6131                59.5579                49.8247

                     79                     80                     81
                      A                      A                      A
 Frequencies --   3140.2427              3495.3353              3586.4778
 Red. masses --      1.1006                 1.1605                 1.0755
 Frc consts  --      6.3945                 8.3538                 8.1509
 IR Inten    --     19.1453                59.3321                19.4270

 - Thermochemistry -
 -------------------
 Temperature   298.150 Kelvin.  Pressure   1.00000 Atm.
 Atom     1 has atomic number  6 and mass  12.00000

 Molecular mass:   167.13101 amu.
 Principal axes and moments of inertia in atomic units:
                           1         2         3
     Eigenvalues --  1269.721174005.918534368.14855
           X            0.99987  -0.01557   0.00405
           Y            0.01571   0.99913  -0.03857
           Z           -0.00344   0.03863   0.99925
 This molecule is an asymmetric top.
 Rotational symmetry number  1.
 Warning -- assumption of classical behavior for rotation
           may cause significant error
 Rotational temperatures (Kelvin)      0.06821     0.02162     0.01983
 Rotational constants (GHZ):           1.42137     0.45052     0.41316
 Zero-point vibrational energy     671850.2 (Joules/Mol)
                                  160.57606 (Kcal/Mol)
 Warning -- explicit consideration of  22 degrees of freedom as
           vibrations may cause significant error
 Vibrational temperatures:     28.10    45.70    71.73    88.09   141.31
          (Kelvin)            171.41   223.01   306.10   345.57   374.54
                              402.00   434.52   497.17   528.30   555.61
                              597.83   640.65   739.23   794.37   839.51
                              855.47   876.58   906.05   956.49  1092.59
                             1133.76  1217.77  1276.45  1320.80  1328.16
                             1355.45  1406.10  1439.67  1469.43  1509.05
                             1535.84  1640.93  1651.39  1667.70  1733.41
                             1769.60  1792.83  1839.44  1856.68  1904.09
                             1957.49  1977.55  1999.40  2023.28  2036.38
                             2057.97  2072.53  2084.23  2147.64  2153.82
                             2166.14  2169.25  2185.62  2194.78  2198.84
                             2208.79  2218.66  2567.79  3228.30  4358.88
                             4363.93  4369.37  4370.99  4379.58  4411.59
                             4416.02  4437.81  4442.35  4454.21  4465.41
                             4467.77  4475.17  4480.76  4518.11  5029.01
                             5160.14

 Zero-point correction=                           0.255894 (Hartree/Particle)
 Thermal correction to Energy=                    0.270206
 Thermal correction to Enthalpy=                  0.271150
 Thermal correction to Gibbs Free Energy=         0.212959
 Sum of electronic and zero-point Energies=           -521.017922
 Sum of electronic and thermal Energies=              -521.003611
 Sum of electronic and thermal Enthalpies=            -521.002667
 Sum of electronic and thermal Free Energies=         -521.060858

                     E (Thermal)             CV                S
                      KCal/Mol        Cal/Mol-Kelvin    Cal/Mol-Kelvin
 Total                  169.557             52.043            122.474
 Electronic               0.000              0.000              0.000
 Translational            0.889              2.981             41.249
 Rotational               0.889              2.981             31.475
 Vibrational            167.779             46.081             49.750
 Vibration     1          0.593              1.986              6.682
 Vibration     2          0.594              1.983              5.716
 Vibration     3          0.595              1.978              4.823
 Vibration     4          0.597              1.973              4.417
 Vibration     5          0.604              1.950              3.489
 Vibration     6          0.609              1.933              3.114
 Vibration     7          0.620              1.897              2.610
 Vibration     8          0.644              1.821              2.020
 Vibration     9          0.657              1.779              1.802
 Vibration    10          0.668              1.745              1.660
 Vibration    11          0.680              1.712              1.537
 Vibration    12          0.694              1.670              1.406
 Vibration    13          0.724              1.584              1.186
 Vibration    14          0.740              1.540              1.092
 Vibration    15          0.755              1.500              1.015
 Vibration    16          0.779              1.437              0.907
 Vibration    17          0.805              1.371              0.810
 Vibration    18          0.869              1.219              0.625
 Vibration    19          0.907              1.135              0.540
 Vibration    20          0.940              1.067              0.479
 Vibration    21          0.952              1.043              0.459
 Vibration    22          0.968              1.012              0.434

 Optimization completed.
    -- Stationary point found.
 Normal termination of Gaussian 16 at Wed Dec  9 18:25:33 2020.

 ----------------------------------------------------------------------
 # B3LYP/6-311++G(d,p) empiricaldispersion=gd3bj scf=xqc pop=npa geom=c
 heck
 ----------------------------------------------------------------------

 --------------------------------------
 CID_64087345_JID_2461_Energie_neutraal
 --------------------------------------
 Structure from the checkpoint file:  "JID_2461.chk"
 Charge =  0 Multiplicity = 1

 SCF Done:  E(RB3LYP) =  -521.430687611     A.U. after   15 cycles
 Normal termination of Gaussian 16 at Wed Dec  9 18:28:32 2020.

 ----------------------------------------------------------------------
 # B3LYP/6-311++G(d,p) empiricaldispersion=gd3bj scf=xqc pop=npa geom=c
 heck
 ----------------------------------------------------------------------

 ------------------------------------
 CID_64087345_JID_2461_Energie_kation
 ------------------------------------
 Structure from the checkpoint file:  "JID_2461.chk"
 Charge =  1 Multiplicity = 2

 SCF Done:  E(UB3LYP) =  -521.100118342     A.U. after   31 cycles
 Normal termination of Gaussian 16 at Wed Dec  9 18:36:58 2020.
 Gaussian 16:  ES64L-G16RevA.03 25-Dec-2016

 ----------------------------------------------------------------------
 # B3LYP/6-311++G(d,p) empiricaldispersion=gd3bj scf=xqc pop=npa geom=c
 heck
 ----------------------------------------------------------------------

 -----------------------------------
 CID_64087345_JID_2461_Energie_anion
 -----------------------------------
 Structure from the checkpoint file:  "JID_2461.chk"
 Charge = -1 Multiplicity = 2

                         Standard orientation:
 ---------------------------------------------------------------------
 Center     Atomic      Atomic             Coordinates (Angstroms)
 Number     Number       Type             X           Y           Z
 ---------------------------------------------------------------------
      1          6           0        2.041718   -1.833267   -0.539590
      2          6           0        2.466607   -0.589680    0.252172
      3          6           0        3.945149   -0.685827    0.646878
      4          6           0        2.217521    0.716843   -0.522975
      5          6           0        0.755266    0.983696   -0.889246
      6          6           0       -0.113835    1.248591    0.339514
      7          8           0        0.365177    1.502728    1.438099
      8          7           0       -1.475475    1.248461    0.155526
      9          6           0       -2.211079    0.759829   -0.993581
     10          6           0       -2.509936   -0.756755   -0.932109
     11          6           0       -3.290734   -1.104411    0.252727
     12          6           0       -3.930012   -1.334662    1.250687
     13          1           0        2.573192   -1.889731   -1.499089
     14          1           0        0.966319   -1.844105   -0.752569
     15          1           0        2.268894   -2.747800    0.020007
     16          1           0        1.872335   -0.542223    1.172297
     17          1           0        4.587389   -0.725520   -0.243128
     18          1           0        4.251789    0.181008    1.243122
     19          1           0        4.140467   -1.588061    1.237995
     20          1           0        2.579169    1.556192    0.079772
     21          1           0        2.810428    0.701774   -1.448354
     22          1           0        0.688088    1.868190   -1.538605
     23          1           0        0.347700    0.153361   -1.475568
     24          1           0       -1.990677    1.325045    1.025110
     25          1           0       -3.156344    1.308858   -1.053161
     26          1           0       -1.652237    0.983942   -1.904603
     27          1           0       -3.047756   -1.054622   -1.842336
     28          1           0       -1.561623   -1.310353   -0.927313
     29          1           0       -4.494216   -1.563161    2.126096
 ---------------------------------------------------------------------

 SCF Done:  E(UB3LYP) =  -521.418692628     A.U. after   33 cycles
 SCF Done:  E(UB3LYP) =  -521.418692628     a.u. after    1 cycles

 The electronic state is 2-A.
 Alpha  occ. eigenvalues --  -18.98850 -14.23553 -10.17372 -10.11643 -10.09871
 Alpha  occ. eigenvalues --  -10.08296 -10.07715 -10.07372 -10.06908 -10.06693
 Alpha  occ. eigenvalues --  -10.06641 -10.06014  -0.93979  -0.82701  -0.71847
 Alpha  occ. eigenvalues --   -0.70144  -0.65663  -0.63577  -0.58979  -0.56813
 Alpha  occ. eigenvalues --   -0.55270  -0.48226  -0.45344  -0.43747  -0.40531
 Alpha  occ. eigenvalues --   -0.39935  -0.37443  -0.37148  -0.35564  -0.34815
 Alpha  occ. eigenvalues --   -0.33225  -0.32660  -0.30610  -0.30424  -0.29170
 Alpha  occ. eigenvalues --   -0.28475  -0.27195  -0.26853  -0.26198  -0.23161
 Alpha  occ. eigenvalues --   -0.22921  -0.22160  -0.18753  -0.18114  -0.16108
 Alpha  occ. eigenvalues --   -0.15518   0.04446
 Alpha virt. eigenvalues --    0.06576   0.06901   0.07901   0.08402   0.09114
 Alpha virt. eigenvalues --    0.09591   0.10123   0.10580   0.11199   0.11457
 Alpha virt. eigenvalues --    0.11648   0.12230   0.12421   0.12862   0.13046

  Beta  occ. eigenvalues --  -18.98847 -14.23548 -10.17373 -10.11602 -10.09825
  Beta  occ. eigenvalues --  -10.08296 -10.07681 -10.07369 -10.06879 -10.06683
  Beta  occ. eigenvalues --  -10.06632 -10.05985  -0.93972  -0.82683  -0.71826
  Beta  occ. eigenvalues --   -0.70084  -0.65624  -0.63529  -0.58937  -0.56748
  Beta  occ. eigenvalues --   -0.55199  -0.48190  -0.45299  -0.43690  -0.40471
  Beta  occ. eigenvalues --   -0.39896  -0.37404  -0.37112  -0.35535  -0.34753
  Beta  occ. eigenvalues --   -0.33185  -0.32625  -0.30571  -0.30384  -0.29146
  Beta  occ. eigenvalues --   -0.28430  -0.27159  -0.26825  -0.26172  -0.23130
  Beta  occ. eigenvalues --   -0.22894  -0.22138  -0.18692  -0.18082  -0.16092
  Beta  occ. eigenvalues --   -0.15490
  Beta virt. eigenvalues --    0.06610   0.07054   0.07938   0.08464   0.08971
  Beta virt. eigenvalues --    0.09419   0.09849   0.10310   0.11019   0.11292
  Beta virt. eigenvalues --    0.11665   0.11916   0.12340   0.12597   0.13190

 Mulliken charges and spin densities:
               1          2
     1  C    0.462136  -1.134143
     2  C   -0.463831   0.890615
     3  C   -0.234866  -0.377897
     4  C    0.847306  -1.413816
     5  C   -0.258123   0.399351
     6  C    0.123800  -0.476448
     7  O   -0.329718   0.009572
     8  N   -0.201334   0.100461
     9  C    0.434029  -0.814859
    10  C   -0.348913   0.303164
    11  C    3.951552  -2.700849
    12  C   -2.462983   0.958847
    13  H   -0.116778   0.261852
    14  H   -0.134160   0.263518
    15  H   -0.062218   0.185489
    16  H    0.161109   0.025353
    17  H    0.067410   0.058898
    18  H    0.036729   0.095024
    19  H    0.080991   0.045808
    20  H    0.175120  -0.004483
    21  H   -0.156607   0.303085
    22  H   -0.278578   0.493921
    23  H   -0.186407   0.346226
    24  H    0.253382   0.023575
    25  H   -0.335303   0.533671
    26  H   -0.890544   1.081409
    27  H   -0.702780   0.909497
    28  H    0.150520  -0.083960
    29  H   -0.580940   0.717116
 Sum of Mulliken charges =  -1.00000   1.00000

 Dipole moment (field-independent basis, Debye):
    X=              4.4143    Y=              0.3761    Z=              4.4979  Tot=              6.3133
 Quadrupole moment (field-independent basis, Debye-Ang):
   XX=           -139.5020   YY=           -112.2206   ZZ=           -124.5411
   XY=             -4.6330   XZ=             -8.2152   YZ=             -0.1525

 Summary of Natural Population Analysis:

                                       Natural Population
                Natural  -----------------------------------------------
    Atom  No    Charge         Core      Valence    Rydberg      Total
 -----------------------------------------------------------------------
      C    1   -0.28549      0.99965     2.27994    0.00590     3.28549
      C    2   -0.12017      0.99961     2.11186    0.00870     3.12017
      C    3   -0.28068      0.99965     2.27656    0.00446     3.28068
      C    4   -0.18640      0.99961     2.17630    0.01048     3.18640
      C    5   -0.23930      0.99958     2.23140    0.00832     3.23930
      C    6    0.34803      0.99967     1.62936    0.02294     2.65197
      O    7   -0.32790      0.99988     3.32254    0.00548     4.32790
      N    8   -0.31995      0.99967     2.81039    0.00988     3.81995
      C    9   -0.08307      0.99961     2.07112    0.01234     3.08307
      C   10   -0.23821      0.99956     2.22779    0.01086     3.23821
      C   11    0.00460      0.99937     1.98681    0.00922     2.99540
      C   12   -0.12650      0.99926     2.12384    0.00340     3.12650
      H   13    0.09615      0.00000     0.40283    0.00102     0.40385
      H   14    0.09897      0.00000     0.39951    0.00151     0.40103
      H   15    0.09739      0.00000     0.40181    0.00080     0.40261
      H   16    0.10197      0.00000     0.39609    0.00193     0.39803
      H   17    0.09414      0.00000     0.40499    0.00087     0.40586
      H   18    0.09806      0.00000     0.40117    0.00077     0.40194
      H   19    0.09604      0.00000     0.40321    0.00075     0.40396
      H   20    0.10412      0.00000     0.39472    0.00116     0.39588
      H   21    0.09608      0.00000     0.40290    0.00102     0.40392
      H   22    0.11494      0.00000     0.38382    0.00124     0.38506
      H   23    0.10842      0.00000     0.38919    0.00238     0.39158
      H   24    0.19512      0.00000     0.30265    0.00222     0.30488
      H   25    0.10046      0.00000     0.39778    0.00176     0.39954
      H   26    0.10844      0.00000     0.38684    0.00472     0.39156
      H   27    0.12161      0.00000     0.37366    0.00473     0.37839
      H   28    0.11259      0.00000     0.38504    0.00237     0.38741
      H   29    0.11050      0.00000     0.38813    0.00137     0.38950
 =======================================================================
   * Total *    0.00000     11.99514    33.86226    0.14261    46.00000

 Normal termination of Gaussian 16 at Wed Dec  9 18:45:51 2020.
