 Gaussian 16, Revision A.03,

 -----------------------------------------------------------
 # opt freq B3LYP/6-31G(d) empiricaldispersion=gd3bj scf=xqc
 -----------------------------------------------------------

 -------------------------------
 CID_143256709_JID_5888_neutraal
 -------------------------------
 Symbolic Z-matrix:
 Charge =  0 Multiplicity = 1

 SCF Done:  E(RB3LYP) =  -602.067882953     A.U. after   15 cycles
 SCF Done:  E(RB3LYP) =  -602.073924503     A.U. after   13 cycles
 SCF Done:  E(RB3LYP) =  -602.074743570     A.U. after   12 cycles
 SCF Done:  E(RB3LYP) =  -602.075311458     A.U. after   12 cycles
 SCF Done:  E(RB3LYP) =  -602.074855436     A.U. after   12 cycles
 SCF Done:  E(RB3LYP) =  -602.075768933     A.U. after   12 cycles
 SCF Done:  E(RB3LYP) =  -602.076434354     A.U. after   12 cycles
 SCF Done:  E(RB3LYP) =  -602.076854765     A.U. after   12 cycles
 SCF Done:  E(RB3LYP) =  -602.076126328     A.U. after   13 cycles
 SCF Done:  E(RB3LYP) =  -602.077292794     A.U. after   13 cycles
 SCF Done:  E(RB3LYP) =  -602.081137076     A.U. after   10 cycles
 SCF Done:  E(RB3LYP) =  -602.081076338     A.U. after   11 cycles
 SCF Done:  E(RB3LYP) =  -602.081104126     A.U. after   10 cycles
 SCF Done:  E(RB3LYP) =  -602.081132328     A.U. after   10 cycles
 SCF Done:  E(RB3LYP) =  -602.081136913     A.U. after    9 cycles
 SCF Done:  E(RB3LYP) =  -602.081142678     A.U. after    8 cycles
 Optimization completed.
    -- Stationary point found.
 Normal termination of Gaussian 16 at Wed Dec 23 17:49:50 2020.

 --------------------------------------------------------------------
 #N Geom=AllCheck Guess=TCheck SCRF=Check GenChk RB3LYP/6-31G(d) Freq
 --------------------------------------------------------------------

 Structure from the checkpoint file:  "JID_5888.chk"
 -------------------------------
 CID_143256709_JID_5888_neutraal
 -------------------------------
 Charge =  0 Multiplicity = 1

 SCF Done:  E(RB3LYP) =  -602.081142678     A.U. after    1 cycles

  Exact polarizability: 204.985 -26.508 200.131   6.909  -5.392 103.707
 Approx polarizability: 314.625 -49.351 357.523   7.833 -20.656 149.216

                      1                      2                      3
                      A                      A                      A
 Frequencies --      4.2002                12.8907                25.8921
 Red. masses --      2.2290                 1.9197                 3.2021
 Frc consts  --      0.0000                 0.0002                 0.0013
 IR Inten    --      0.2167                 0.0623                 0.1596

                      4                      5                      6
                      A                      A                      A
 Frequencies --     34.5334                39.3206                48.7618
 Red. masses --      2.2282                 2.4641                 2.4635
 Frc consts  --      0.0016                 0.0022                 0.0035
 IR Inten    --      0.0718                 0.1957                 0.0377

                      7                      8                      9
                      A                      A                      A
 Frequencies --     59.9793                64.6260                73.6646
 Red. masses --      3.0986                 2.3820                 2.1249
 Frc consts  --      0.0066                 0.0059                 0.0068
 IR Inten    --      0.0387                 0.0224                 0.1848

                     10                     11                     12
                      A                      A                      A
 Frequencies --     78.0043                82.5553                95.9122
 Red. masses --      2.6963                 2.1048                 2.1896
 Frc consts  --      0.0097                 0.0085                 0.0119
 IR Inten    --      0.0086                 0.0446                 0.0228

                     13                     14                     15
                      A                      A                      A
 Frequencies --     99.1890               107.3643               138.7908
 Red. masses --      2.3607                 1.7480                 1.4534
 Frc consts  --      0.0137                 0.0119                 0.0165
 IR Inten    --      0.0500                 0.0099                 0.6192

                     16                     17                     18
                      A                      A                      A
 Frequencies --    152.6071               227.1533               246.5356
 Red. masses --      3.6996                 2.2905                 3.5240
 Frc consts  --      0.0508                 0.0696                 0.1262
 IR Inten    --      0.3918                 0.0699                 0.5683

                     19                     20                     21
                      A                      A                      A
 Frequencies --    296.8843               317.5202               320.4194
 Red. masses --      2.8883                 1.0117                 1.0094
 Frc consts  --      0.1500                 0.0601                 0.0611
 IR Inten    --      0.7899                 0.0803                 0.0750

                     22                     23                     24
                      A                      A                      A
 Frequencies --    343.1149               388.3806               458.4168
 Red. masses --      3.4734                 2.8706                 2.6544
 Frc consts  --      0.2409                 0.2551                 0.3287
 IR Inten    --      1.8386                 1.4900                 1.8142

                     25                     26                     27
                      A                      A                      A
 Frequencies --    463.1368               504.4823               548.8437
 Red. masses --      3.0675                 2.9600                 2.4266
 Frc consts  --      0.3877                 0.4439                 0.4307
 IR Inten    --     17.6758                 1.5239                11.6375

                     28                     29                     30
                      A                      A                      A
 Frequencies --    570.1359               648.6434               699.3024
 Red. masses --      5.0253                 2.3559                 1.3160
 Frc consts  --      0.9624                 0.5840                 0.3792
 IR Inten    --      5.6112                 3.3238                 5.4134

                     31                     32                     33
                      A                      A                      A
 Frequencies --    714.7370               742.4651               769.0952
 Red. masses --      1.3134                 3.8939                 3.4342
 Frc consts  --      0.3953                 1.2647                 1.1968
 IR Inten    --      6.3096                 3.3992                 1.1370

                     34                     35                     36
                      A                      A                      A
 Frequencies --    829.3015               829.6467               833.3184
 Red. masses --      1.3049                 1.1122                 1.0769
 Frc consts  --      0.5287                 0.4510                 0.4406
 IR Inten    --      3.4781                19.5568                 3.1088

                     37                     38                     39
                      A                      A                      A
 Frequencies --    833.8250               837.1455               857.1427
 Red. masses --      1.0578                 1.0565                 3.4085
 Frc consts  --      0.4333                 0.4363                 1.4755
 IR Inten    --      8.5102                 1.5192                 6.1390

                     40                     41                     42
                      A                      A                      A
 Frequencies --    891.3325               902.2291               920.4758
 Red. masses --      1.3686                 1.4528                 3.5198
 Frc consts  --      0.6406                 0.6968                 1.7571
 IR Inten    --      2.6081                41.0489                10.6172

                     43                     44                     45
                      A                      A                      A
 Frequencies --    929.9328               955.1833               969.9264
 Red. masses --      1.4179                 1.4790                 2.0584
 Frc consts  --      0.7224                 0.7950                 1.1409
 IR Inten    --     40.2324                14.6630                 4.6740

                     46                     47                     48
                      A                      A                      A
 Frequencies --    976.5933              1012.0561              1013.0007
 Red. masses --      1.4084                 3.2252                 3.2302
 Frc consts  --      0.7914                 1.9464                 1.9530
 IR Inten    --      1.7313                 0.3691                 0.0101

                     49                     50                     51
                      A                      A                      A
 Frequencies --   1017.1313              1044.8805              1059.8770
 Red. masses --      1.6902                 1.6658                 1.7369
 Frc consts  --      1.0302                 1.0716                 1.1496
 IR Inten    --      1.4490                 3.8688                 5.8384

                     52                     53                     54
                      A                      A                      A
 Frequencies --   1081.7349              1200.8204              1233.3893
 Red. masses --      1.4778                 2.4536                 1.4687
 Frc consts  --      1.0189                 2.0845                 1.3164
 IR Inten    --      0.6970                25.3577                 0.0795

                     55                     56                     57
                      A                      A                      A
 Frequencies --   1235.5935              1236.1627              1236.7849
 Red. masses --      1.4648                 1.4644                 1.4637
 Frc consts  --      1.3176                 1.3185                 1.3192
 IR Inten    --      0.0512                 0.7712                 0.4449

                     58                     59                     60
                      A                      A                      A
 Frequencies --   1239.7243              1291.8841              1351.9011
 Red. masses --      1.3632                 2.1577                 2.9301
 Frc consts  --      1.2344                 2.1217                 3.1551
 IR Inten    --     14.8320                 6.8223                 0.6217

                     61                     62                     63
                      A                      A                      A
 Frequencies --   1385.7214              1417.5724              1431.2356
 Red. masses --      1.3983                 1.3425                 1.1986
 Frc consts  --      1.5820                 1.5895                 1.4466
 IR Inten    --      7.6738                 1.4917                 1.0409

                     64                     65                     66
                      A                      A                      A
 Frequencies --   1433.4580              1436.4292              1447.7000
 Red. masses --      1.1975                 1.4588                 1.5388
 Frc consts  --      1.4497                 1.7735                 1.9002
 IR Inten    --      3.1298                 6.5487                 1.8345

                     67                     68                     69
                      A                      A                      A
 Frequencies --   1451.9864              1457.1227              1472.5474
 Red. masses --      1.2593                 1.2536                 1.4599
 Frc consts  --      1.5642                 1.5682                 1.8652
 IR Inten    --      2.8926                 0.8830                 1.4410

                     70                     71                     72
                      A                      A                      A
 Frequencies --   1482.0481              1507.1968              1521.0076
 Red. masses --      1.3680                 1.0471                 1.0595
 Frc consts  --      1.7703                 1.4015                 1.4442
 IR Inten    --      5.8188                17.8209                13.1299

                     73                     74                     75
                      A                      A                      A
 Frequencies --   1525.2928              1527.0808              1529.8750
 Red. masses --      1.0310                 1.0403                 1.0329
 Frc consts  --      1.4133                 1.4293                 1.4244
 IR Inten    --      0.1383                11.4121                 2.6351

                     76                     77                     78
                      A                      A                      A
 Frequencies --   1533.8054              1534.2875              1538.1476
 Red. masses --      1.0350                 1.0469                 1.0450
 Frc consts  --      1.4346                 1.4521                 1.4567
 IR Inten    --      6.5714                11.8708                11.3499

                     79                     80                     81
                      A                      A                      A
 Frequencies --   1538.7630              1541.6712              1582.2953
 Red. masses --      1.0469                 1.0575                 6.2827
 Frc consts  --      1.4604                 1.4808                 9.2677
 IR Inten    --      5.1976                 5.5723                37.3334

                     82                     83                     84
                      A                      A                      A
 Frequencies --   1624.5291              1641.1237              1680.0208
 Red. masses --      5.7174                 4.3605                 4.1391
 Frc consts  --      8.8900                 6.9194                 6.8831
 IR Inten    --      3.5400                 2.3649                11.8727

                     85                     86                     87
                      A                      A                      A
 Frequencies --   1687.4987              3048.8096              3051.2305
 Red. masses --      5.6487                 1.0357                 1.0364
 Frc consts  --      9.4774                 5.6721                 5.6847
 IR Inten    --     80.8717                16.6082                 5.0080

                     88                     89                     90
                      A                      A                      A
 Frequencies --   3052.5879              3057.1191              3066.4498
 Red. masses --      1.0354                 1.0377                 1.0386
 Frc consts  --      5.6843                 5.7138                 5.7539
 IR Inten    --     36.3506                22.1885                14.0658

                     91                     92                     93
                      A                      A                      A
 Frequencies --   3101.2760              3101.9673              3105.8860
 Red. masses --      1.1005                 1.1017                 1.1013
 Frc consts  --      6.2364                 6.2458                 6.2592
 IR Inten    --      0.5305                 1.5130                 0.2989

                     94                     95                     96
                      A                      A                      A
 Frequencies --   3108.0494              3124.5897              3125.8935
 Red. masses --      1.1014                 1.1023                 1.0891
 Frc consts  --      6.2689                 6.3408                 6.2702
 IR Inten    --     17.4384                27.1844                25.0550

                     97                     98                     99
                      A                      A                      A
 Frequencies --   3126.4352              3129.5096              3130.1556
 Red. masses --      1.1023                 1.1019                 1.1020
 Frc consts  --      6.3481                 6.3584                 6.3618
 IR Inten    --    128.1388                31.7941                86.1736

                    100                    101                    102
                      A                      A                      A
 Frequencies --   3137.3375              3137.7735              3150.8254
 Red. masses --      1.0885                 1.0990                 1.0970
 Frc consts  --      6.3124                 6.3750                 6.4163
 IR Inten    --     14.4294                42.2317                16.9140

                    103                    104                    105
                      A                      A                      A
 Frequencies --   3166.6572              3176.6698              3188.1807
 Red. masses --      1.0593                 1.0591                 1.0856
 Frc consts  --      6.2586                 6.2971                 6.5016
 IR Inten    --      7.7871                 2.5307                 3.2702

                    106                    107                    108
                      A                      A                      A
 Frequencies --   3208.0641              3249.0741              3268.3649
 Red. masses --      1.0976                 1.1165                 1.1154
 Frc consts  --      6.6555                 6.9444                 7.0201
 IR Inten    --     48.8197                10.8552                 4.6700

 - Thermochemistry -
 -------------------
 Temperature   298.150 Kelvin.  Pressure   1.00000 Atm.
 Atom     1 has atomic number  6 and mass  12.00000

 Molecular mass:   205.18305 amu.
 Principal axes and moments of inertia in atomic units:
                           1         2         3
     Eigenvalues --  2478.690086273.032227097.75903
           X            0.99993   0.01176  -0.00323
           Y           -0.01169   0.99967   0.02286
           Z            0.00350  -0.02282   0.99973
 This molecule is an asymmetric top.
 Rotational symmetry number  1.
 Warning -- assumption of classical behavior for rotation
           may cause significant error
 Rotational temperatures (Kelvin)      0.03494     0.01381     0.01220
 Rotational constants (GHZ):           0.72810     0.28770     0.25427
 Zero-point vibrational energy     880091.9 (Joules/Mol)
                                  210.34701 (Kcal/Mol)
 Warning -- explicit consideration of  28 degrees of freedom as
           vibrations may cause significant error
 Vibrational temperatures:      6.04    18.55    37.25    49.69    56.57
          (Kelvin)             70.16    86.30    92.98   105.99   112.23
                              118.78   138.00   142.71   154.47   199.69
                              219.57   326.82   354.71   427.15   456.84
                              461.01   493.67   558.79   659.56   666.35
                              725.84   789.66   820.30   933.25  1006.14
                             1028.35  1068.24  1106.56  1193.18  1193.68
                             1198.96  1199.69  1204.47  1233.24  1282.43
                             1298.11  1324.36  1337.97  1374.30  1395.51
                             1405.10  1456.12  1457.48  1463.43  1503.35
                             1524.93  1556.38  1727.71  1774.57  1777.74
                             1778.56  1779.46  1783.69  1858.73  1945.08
                             1993.74  2039.57  2059.23  2062.43  2066.70
                             2082.92  2089.08  2096.47  2118.67  2132.34
                             2168.52  2188.39  2194.56  2197.13  2201.15
                             2206.80  2207.50  2213.05  2213.94  2218.12
                             2276.57  2337.34  2361.21  2417.18  2427.93
                             4386.56  4390.04  4391.99  4398.51  4411.94
                             4462.04  4463.04  4468.68  4471.79  4495.59
                             4497.46  4498.24  4502.67  4503.60  4513.93
                             4514.56  4533.34  4556.11  4570.52  4587.08
                             4615.69  4674.69  4702.45

 Zero-point correction=                           0.335209 (Hartree/Particle)
 Thermal correction to Energy=                    0.356514
 Thermal correction to Enthalpy=                  0.357458
 Thermal correction to Gibbs Free Energy=         0.277654
 Sum of electronic and zero-point Energies=           -601.745933
 Sum of electronic and thermal Energies=              -601.724628
 Sum of electronic and thermal Enthalpies=            -601.723684
 Sum of electronic and thermal Free Energies=         -601.803488

                     E (Thermal)             CV                S
                      KCal/Mol        Cal/Mol-Kelvin    Cal/Mol-Kelvin
 Total                  223.716             71.119            167.962
 Electronic               0.000              0.000              0.000
 Translational            0.889              2.981             41.860
 Rotational               0.889              2.981             33.067
 Vibrational            221.939             65.157             93.034
 Vibration     1          0.593              1.987              9.735
 Vibration     2          0.593              1.987              7.507
 Vibration     3          0.593              1.985              6.122
 Vibration     4          0.594              1.983              5.550
 Vibration     5          0.594              1.981              5.293
 Vibration     6          0.595              1.978              4.867
 Vibration     7          0.597              1.973              4.458
 Vibration     8          0.597              1.971              4.311
 Vibration     9          0.599              1.966              4.053
 Vibration    10          0.599              1.964              3.940
 Vibration    11          0.600              1.961              3.829
 Vibration    12          0.603              1.952              3.536
 Vibration    13          0.604              1.950              3.470
 Vibration    14          0.606              1.943              3.316
 Vibration    15          0.614              1.915              2.820
 Vibration    16          0.619              1.900              2.639
 Vibration    17          0.651              1.800              1.901
 Vibration    18          0.661              1.769              1.755
 Vibration    19          0.691              1.680              1.434
 Vibration    20          0.704              1.640              1.323
 Vibration    21          0.706              1.634              1.308
 Vibration    22          0.722              1.589              1.198
 Vibration    23          0.757              1.495              1.006
 Vibration    24          0.816              1.342              0.771
 Vibration    25          0.821              1.332              0.757
 Vibration    26          0.860              1.240              0.647
 Vibration    27          0.904              1.142              0.547
 Vibration    28          0.926              1.096              0.504

 Optimization completed.
    -- Stationary point found.
 Normal termination of Gaussian 16 at Wed Dec 23 18:01:05 2020.

 ----------------------------------------------------------------------
 # B3LYP/6-311++G(d,p) empiricaldispersion=gd3bj scf=xqc pop=npa geom=c
 heck
 ----------------------------------------------------------------------

 ---------------------------------------
 CID_143256709_JID_5888_Energie_neutraal
 ---------------------------------------
 Structure from the checkpoint file:  "JID_5888.chk"
 Charge =  0 Multiplicity = 1

 SCF Done:  E(RB3LYP) =  -602.248385776     A.U. after   17 cycles
 Normal termination of Gaussian 16 at Wed Dec 23 18:07:11 2020.

 ----------------------------------------------------------------------
 # B3LYP/6-311++G(d,p) empiricaldispersion=gd3bj scf=xqc pop=npa geom=c
 heck
 ----------------------------------------------------------------------

 -------------------------------------
 CID_143256709_JID_5888_Energie_kation
 -------------------------------------
 Structure from the checkpoint file:  "JID_5888.chk"
 Charge =  1 Multiplicity = 2

 SCF Done:  E(UB3LYP) =  -601.976122364     A.U. after   22 cycles
 Normal termination of Gaussian 16 at Wed Dec 23 18:17:43 2020.
 Gaussian 16:  ES64L-G16RevA.03 25-Dec-2016

 ----------------------------------------------------------------------
 # B3LYP/6-311++G(d,p) empiricaldispersion=gd3bj scf=xqc pop=npa geom=c
 heck
 ----------------------------------------------------------------------

 ------------------------------------
 CID_143256709_JID_5888_Energie_anion
 ------------------------------------
 Structure from the checkpoint file:  "JID_5888.chk"
 Charge = -1 Multiplicity = 2

                         Standard orientation:
 ---------------------------------------------------------------------
 Center     Atomic      Atomic             Coordinates (Angstroms)
 Number     Number       Type             X           Y           Z
 ---------------------------------------------------------------------
      1          6           0       -3.007009    1.039242    1.510200
      2          6           0       -3.269139   -0.218422    2.339955
      3          6           0       -3.105066   -2.116994   -0.953772
      4          6           0       -4.135205   -1.062043   -1.359269
      5          6           0       -0.605801    0.775867   -1.642152
      6          6           0        0.004275    1.835137   -0.750894
      7          6           0       -0.606424    3.029904   -0.610671
      8          6           0        1.316803    1.655320   -0.137064
      9          6           0        2.035654    0.525485    0.140126
     10          6           0        3.473827    0.677647    0.337920
     11          7           0        4.343667   -0.276354    0.250798
     12          6           0        3.857206   -1.560749   -0.004931
     13          6           0        2.544205   -1.883783   -0.028927
     14          6           0        1.539206   -0.861411    0.224548
     15          6           0        0.296664   -1.169963    0.663348
     16          1           0       -2.239312    1.672570    1.966671
     17          1           0       -3.915778    1.643857    1.409111
     18          1           0       -2.667498    0.788756    0.500430
     19          1           0       -2.365150   -0.830725    2.438065
     20          1           0       -3.605203    0.034720    3.351847
     21          1           0       -4.043489   -0.843023    1.880499
     22          1           0       -3.588895   -3.061757   -0.680884
     23          1           0       -2.515700   -1.788295   -0.091327
     24          1           0       -2.405350   -2.326245   -1.770932
     25          1           0       -4.730899   -1.396333   -2.216182
     26          1           0       -4.827099   -0.844939   -0.537885
     27          1           0       -3.651361   -0.119923   -1.639737
     28          1           0       -1.366637    1.227263   -2.285684
     29          1           0       -1.071528   -0.038158   -1.083667
     30          1           0        0.160262    0.319370   -2.277913
     31          1           0       -0.170985    3.826832   -0.013579
     32          1           0       -1.565943    3.235205   -1.075483
     33          1           0        1.840068    2.593007    0.054666
     34          1           0        3.855350    1.687901    0.503562
     35          1           0        4.625747   -2.314647   -0.150499
     36          1           0        2.226863   -2.915250   -0.154787
     37          1           0       -0.032611   -2.202495    0.733491
     38          1           0       -0.385696   -0.404638    1.014124
 ---------------------------------------------------------------------

 SCF Done:  E(UB3LYP) =  -602.288275702     A.U. after   23 cycles

 The electronic state is 2-A.
 Alpha  occ. eigenvalues --  -14.14251 -10.07461 -10.06829 -10.06686 -10.05838
 Alpha  occ. eigenvalues --  -10.04693 -10.04354 -10.04338 -10.03394 -10.03304
 Alpha  occ. eigenvalues --  -10.02462 -10.02011 -10.01436 -10.01334 -10.00003
 Alpha  occ. eigenvalues --   -0.77800  -0.68390  -0.66756  -0.65750  -0.65394
 Alpha  occ. eigenvalues --   -0.61875  -0.56860  -0.55080  -0.53009  -0.52095
 Alpha  occ. eigenvalues --   -0.51065  -0.45632  -0.43854  -0.38207  -0.35832
 Alpha  occ. eigenvalues --   -0.35232  -0.34610  -0.34567  -0.33857  -0.33383
 Alpha  occ. eigenvalues --   -0.33296  -0.30365  -0.29260  -0.28708  -0.28332
 Alpha  occ. eigenvalues --   -0.27390  -0.26052  -0.25965  -0.25781  -0.25401
 Alpha  occ. eigenvalues --   -0.25059  -0.24796  -0.24589  -0.24367  -0.23442
 Alpha  occ. eigenvalues --   -0.21393  -0.19230  -0.16864  -0.15088  -0.11462
 Alpha  occ. eigenvalues --   -0.10307  -0.05962   0.01754
 Alpha virt. eigenvalues --    0.06589   0.08025   0.08418   0.09395   0.10229
 Alpha virt. eigenvalues --    0.10434   0.10611   0.10818   0.11602   0.12110
 Alpha virt. eigenvalues --    0.12499   0.12700   0.13138   0.13508   0.14179

  Beta  occ. eigenvalues --  -14.14148 -10.07461 -10.06824 -10.06684 -10.05836
  Beta  occ. eigenvalues --  -10.04491 -10.04457 -10.04308 -10.03378 -10.03373
  Beta  occ. eigenvalues --  -10.02478 -10.01887 -10.01066 -10.00898  -9.99618
  Beta  occ. eigenvalues --   -0.77485  -0.68022  -0.66750  -0.65746  -0.65139
  Beta  occ. eigenvalues --   -0.61557  -0.56447  -0.54637  -0.53001  -0.52089
  Beta  occ. eigenvalues --   -0.50270  -0.45249  -0.43442  -0.37924  -0.35815
  Beta  occ. eigenvalues --   -0.35203  -0.34493  -0.34405  -0.33785  -0.33359
  Beta  occ. eigenvalues --   -0.33160  -0.30164  -0.29101  -0.28636  -0.28322
  Beta  occ. eigenvalues --   -0.27382  -0.25981  -0.25932  -0.25660  -0.25235
  Beta  occ. eigenvalues --   -0.24948  -0.24689  -0.24535  -0.23843  -0.23028
  Beta  occ. eigenvalues --   -0.21185  -0.19071  -0.15608  -0.14122  -0.10385
  Beta  occ. eigenvalues --   -0.10078  -0.03833
  Beta virt. eigenvalues --    0.06580   0.07595   0.08032   0.08405   0.09403
  Beta virt. eigenvalues --    0.10223   0.10418   0.10699   0.10815   0.11632
  Beta virt. eigenvalues --    0.12115   0.12640   0.12828   0.13395   0.13805

 Mulliken charges and spin densities:
               1          2
     1  C   -0.297282  -0.006276
     2  C   -0.511177  -0.002942
     3  C   -0.336680  -0.009223
     4  C   -0.456037  -0.000416
     5  C   -0.872290   0.014369
     6  C    1.252450  -0.173668
     7  C   -0.707138   0.365763
     8  C   -0.797462   0.329378
     9  C    0.580635  -0.057636
    10  C   -0.816431   0.101563
    11  N   -0.091050   0.054245
    12  C   -0.469333   0.018811
    13  C    0.106394   0.118044
    14  C    1.023049  -0.064318
    15  C   -1.250368   0.383712
    16  H    0.157135  -0.001526
    17  H    0.111234   0.000170
    18  H    0.113383   0.012047
    19  H    0.164938   0.004560
    20  H    0.114151   0.000931
    21  H    0.118692   0.000092
    22  H    0.121044   0.000947
    23  H    0.135289   0.004797
    24  H    0.149523   0.001886
    25  H    0.115407  -0.000618
    26  H    0.116003   0.000477
    27  H    0.162361  -0.000167
    28  H    0.129925  -0.005028
    29  H   -0.059445   0.004649
    30  H    0.146378  -0.001790
    31  H    0.112903  -0.009389
    32  H    0.085147  -0.016492
    33  H    0.111879  -0.014151
    34  H    0.111576  -0.010951
    35  H    0.119893  -0.001702
    36  H    0.124102  -0.006571
    37  H    0.096893  -0.022115
    38  H    0.084305  -0.011462
 Sum of Mulliken charges =  -1.00000   1.00000

 Dipole moment (field-independent basis, Debye):
    X=             -8.3510    Y=             -1.3731    Z=             -0.4066  Tot=              8.4729
 Quadrupole moment (field-independent basis, Debye-Ang):
   XX=           -152.3581   YY=           -115.9933   ZZ=           -110.0913
   XY=              4.3155   XZ=             -1.9722   YZ=              4.7284

 Summary of Natural Population Analysis:

                                       Natural Population
                Natural  -----------------------------------------------
    Atom  No    Charge         Core      Valence    Rydberg      Total
 -----------------------------------------------------------------------
      C    1   -0.28830      0.99968     2.28372    0.00490     3.28830
      C    2   -0.28891      0.99968     2.28538    0.00385     3.28891
      C    3   -0.28958      0.99968     2.28517    0.00472     3.28958
      C    4   -0.28818      0.99969     2.28465    0.00385     3.28818
      C    5   -0.29510      0.99962     2.29063    0.00485     3.29510
      C    6   -0.05302      0.99952     2.04514    0.00836     3.05302
      C    7   -0.10678      0.99954     2.09995    0.00730     3.10678
      C    8    0.01071      0.99948     1.98070    0.00911     2.98929
      C    9   -0.06900      0.99946     2.05815    0.01139     3.06900
      C   10    0.10017      0.99959     1.88516    0.01507     2.89983
      N   11   -0.25321      0.99970     2.73984    0.01367     3.75321
      C   12   -0.00625      0.99954     1.99153    0.01518     3.00625
      C   13   -0.09943      0.99951     2.09040    0.00953     3.09943
      C   14   -0.05856      0.99950     2.04946    0.00960     3.05856
      C   15   -0.11699      0.99955     2.10956    0.00787     3.11699
      H   16    0.10268      0.00000     0.39642    0.00090     0.39732
      H   17    0.08806      0.00000     0.41093    0.00100     0.41194
      H   18    0.10295      0.00000     0.39524    0.00181     0.39705
      H   19    0.10219      0.00000     0.39687    0.00094     0.39781
      H   20    0.08982      0.00000     0.40921    0.00097     0.41018
      H   21    0.09064      0.00000     0.40838    0.00099     0.40936
      H   22    0.08914      0.00000     0.40989    0.00097     0.41086
      H   23    0.10605      0.00000     0.39280    0.00114     0.39395
      H   24    0.09828      0.00000     0.40081    0.00091     0.40172
      H   25    0.08978      0.00000     0.40926    0.00097     0.41022
      H   26    0.09268      0.00000     0.40632    0.00100     0.40732
      H   27    0.10114      0.00000     0.39786    0.00100     0.39886
      H   28    0.09025      0.00000     0.40861    0.00114     0.40975
      H   29    0.10545      0.00000     0.39316    0.00139     0.39455
      H   30    0.10266      0.00000     0.39628    0.00106     0.39734
      H   31    0.08220      0.00000     0.41673    0.00107     0.41780
      H   32    0.07820      0.00000     0.42064    0.00117     0.42180
      H   33    0.08285      0.00000     0.41519    0.00196     0.41715
      H   34    0.07269      0.00000     0.42547    0.00184     0.42731
      H   35    0.07955      0.00000     0.41914    0.00131     0.42045
      H   36    0.08950      0.00000     0.40848    0.00201     0.41050
      H   37    0.07926      0.00000     0.41946    0.00129     0.42074
      H   38    0.08643      0.00000     0.41207    0.00150     0.41357
 =======================================================================
   * Total *   -0.00000     14.99374    41.84865    0.15761    57.00000

 Normal termination of Gaussian 16 at Wed Dec 23 18:28:41 2020.
