 Gaussian 16, Revision A.03,

 -----------------------------------------------------------
 # opt freq B3LYP/6-31G(d) empiricaldispersion=gd3bj scf=xqc
 -----------------------------------------------------------

 ------------------------------
 CID_66027448_JID_7574_neutraal
 ------------------------------
 Symbolic Z-matrix:
 Charge =  0 Multiplicity = 1

 SCF Done:  E(RB3LYP) =  -727.666294652     A.U. after   14 cycles
 SCF Done:  E(RB3LYP) =  -727.674783609     A.U. after   12 cycles
 SCF Done:  E(RB3LYP) =  -727.676854259     A.U. after   12 cycles
 SCF Done:  E(RB3LYP) =  -727.677686196     A.U. after   11 cycles
 SCF Done:  E(RB3LYP) =  -727.678054871     A.U. after   10 cycles
 SCF Done:  E(RB3LYP) =  -727.678154981     A.U. after   10 cycles
 SCF Done:  E(RB3LYP) =  -727.678226531     A.U. after   10 cycles
 SCF Done:  E(RB3LYP) =  -727.678368633     A.U. after   11 cycles
 SCF Done:  E(RB3LYP) =  -727.678477689     A.U. after   11 cycles
 SCF Done:  E(RB3LYP) =  -727.678465055     A.U. after   10 cycles
 SCF Done:  E(RB3LYP) =  -727.681829394     A.U. after   11 cycles
 SCF Done:  E(RB3LYP) =  -727.681840076     A.U. after   11 cycles
 SCF Done:  E(RB3LYP) =  -727.681846290     A.U. after   10 cycles
 SCF Done:  E(RB3LYP) =  -727.681847972     A.U. after   10 cycles
 SCF Done:  E(RB3LYP) =  -727.681848262     A.U. after    8 cycles
 SCF Done:  E(RB3LYP) =  -727.681848399     A.U. after    8 cycles
 Optimization completed.
    -- Stationary point found.
 Normal termination of Gaussian 16 at Fri Dec 11 13:27:19 2020.

 --------------------------------------------------------------------
 #N Geom=AllCheck Guess=TCheck SCRF=Check GenChk RB3LYP/6-31G(d) Freq
 --------------------------------------------------------------------

 Structure from the checkpoint file:  "JID_7574.chk"
 ------------------------------
 CID_66027448_JID_7574_neutraal
 ------------------------------
 Charge =  0 Multiplicity = 1

 SCF Done:  E(RB3LYP) =  -727.681848399     A.U. after    1 cycles

  Exact polarizability: 182.833  -8.199 163.023   0.955   8.565 122.227
 Approx polarizability: 244.246  -8.033 238.071   5.550  22.464 187.372

                      1                      2                      3
                      A                      A                      A
 Frequencies --     28.5337                34.0966                52.7416
 Red. masses --      3.2061                 3.1969                 3.2229
 Frc consts  --      0.0015                 0.0022                 0.0053
 IR Inten    --      0.3000                 0.1926                 1.4763

                      4                      5                      6
                      A                      A                      A
 Frequencies --     61.4385                78.8435                99.2823
 Red. masses --      3.1920                 1.1317                 2.7143
 Frc consts  --      0.0071                 0.0041                 0.0158
 IR Inten    --      1.1376                28.7367                 1.6071

                      7                      8                      9
                      A                      A                      A
 Frequencies --    111.7890               133.5186               163.4123
 Red. masses --      1.0684                 1.8650                 2.9629
 Frc consts  --      0.0079                 0.0196                 0.0466
 IR Inten    --      4.5955                 1.1749                 2.9296

                     10                     11                     12
                      A                      A                      A
 Frequencies --    200.0108               224.1232               230.1006
 Red. masses --      2.5375                 1.7988                 2.4553
 Frc consts  --      0.0598                 0.0532                 0.0766
 IR Inten    --      0.7182                 0.4306                 3.9540

                     13                     14                     15
                      A                      A                      A
 Frequencies --    257.8822               287.5554               296.0405
 Red. masses --      2.8075                 2.6865                 2.5504
 Frc consts  --      0.1100                 0.1309                 0.1317
 IR Inten    --      0.1897                 0.4101                 1.0667

                     16                     17                     18
                      A                      A                      A
 Frequencies --    328.6471               359.0147               375.3502
 Red. masses --      4.0886                 2.2442                 2.5386
 Frc consts  --      0.2602                 0.1704                 0.2107
 IR Inten    --      1.8424                 4.2484                 0.1869

                     19                     20                     21
                      A                      A                      A
 Frequencies --    423.1418               460.3348               473.4228
 Red. masses --      3.0922                 2.4727                 2.0450
 Frc consts  --      0.3262                 0.3087                 0.2701
 IR Inten    --      3.6910                 1.6909                 1.3757

                     22                     23                     24
                      A                      A                      A
 Frequencies --    525.6452               590.0702               603.2616
 Red. masses --      4.1681                 3.4170                 3.8024
 Frc consts  --      0.6785                 0.7010                 0.8153
 IR Inten    --      3.5331                14.4432                 2.1734

                     25                     26                     27
                      A                      A                      A
 Frequencies --    631.2978               672.3378               689.2777
 Red. masses --      3.3798                 6.4468                 4.6443
 Frc consts  --      0.7936                 1.7170                 1.3000
 IR Inten    --      1.0869                 0.3426                 8.2536

                     28                     29                     30
                      A                      A                      A
 Frequencies --    713.2763               781.7168               793.9885
 Red. masses --      5.2238                 2.7621                 2.0299
 Frc consts  --      1.5659                 0.9944                 0.7540
 IR Inten    --      5.8619                 4.4238                18.4560

                     31                     32                     33
                      A                      A                      A
 Frequencies --    800.6870               824.2743               833.8529
 Red. masses --      2.5224                 1.6172                 1.6332
 Frc consts  --      0.9528                 0.6474                 0.6691
 IR Inten    --     30.4909                 1.9980                57.7074

                     34                     35                     36
                      A                      A                      A
 Frequencies --    861.0382               874.0108               894.8241
 Red. masses --      2.2570                 2.3761                 2.3002
 Frc consts  --      0.9859                 1.0694                 1.0852
 IR Inten    --      0.5147                14.7516                 3.5835

                     37                     38                     39
                      A                      A                      A
 Frequencies --    909.9746               917.7144               946.6592
 Red. masses --      2.7132                 1.3623                 2.9281
 Frc consts  --      1.3237                 0.6760                 1.5460
 IR Inten    --     23.3244                 7.3381                 8.8129

                     40                     41                     42
                      A                      A                      A
 Frequencies --    960.5189               965.1987               974.9914
 Red. masses --      2.3490                 1.6520                 2.3276
 Frc consts  --      1.2769                 0.9067                 1.3036
 IR Inten    --      6.6864                 2.6254                 3.9129

                     43                     44                     45
                      A                      A                      A
 Frequencies --    990.4624              1004.4305              1024.3720
 Red. masses --      1.5207                 2.4675                 1.6116
 Frc consts  --      0.8790                 1.4667                 0.9964
 IR Inten    --      2.8688                 1.4504                 7.5957

                     46                     47                     48
                      A                      A                      A
 Frequencies --   1054.1196              1066.9010              1074.8061
 Red. masses --      1.7750                 1.9510                 1.7654
 Frc consts  --      1.1620                 1.3084                 1.2016
 IR Inten    --      3.8124                15.0577                 4.0512

                     49                     50                     51
                      A                      A                      A
 Frequencies --   1075.4752              1106.1943              1113.1242
 Red. masses --      1.5968                 2.0415                 1.9180
 Frc consts  --      1.0882                 1.4719                 1.4002
 IR Inten    --      6.5638                20.2632                 7.5088

                     52                     53                     54
                      A                      A                      A
 Frequencies --   1118.4972              1148.1720              1162.7082
 Red. masses --      1.9423                 1.2018                 2.3295
 Frc consts  --      1.4317                 0.9335                 1.8555
 IR Inten    --      9.4668                 6.5986                 0.8193

                     55                     56                     57
                      A                      A                      A
 Frequencies --   1182.0497              1201.0022              1221.9219
 Red. masses --      1.5315                 1.5187                 1.5198
 Frc consts  --      1.2608                 1.2906                 1.3370
 IR Inten    --      4.3493                19.4022                 3.4126

                     58                     59                     60
                      A                      A                      A
 Frequencies --   1237.8352              1241.9907              1267.5922
 Red. masses --      2.0499                 1.5622                 1.3925
 Frc consts  --      1.8506                 1.4198                 1.3183
 IR Inten    --      1.7258                21.5625                 0.7360

                     61                     62                     63
                      A                      A                      A
 Frequencies --   1279.3382              1292.1736              1311.9037
 Red. masses --      1.4358                 1.3659                 1.2492
 Frc consts  --      1.3846                 1.3438                 1.2668
 IR Inten    --      1.1981                 0.8722                 0.8122

                     64                     65                     66
                      A                      A                      A
 Frequencies --   1325.3153              1329.5985              1340.0300
 Red. masses --      1.8016                 1.5236                 1.8766
 Frc consts  --      1.8644                 1.5870                 1.9854
 IR Inten    --      5.2950                 7.7857                 2.8028

                     67                     68                     69
                      A                      A                      A
 Frequencies --   1352.1582              1357.0446              1362.2189
 Red. masses --      1.7810                 1.7597                 1.6759
 Frc consts  --      1.9185                 1.9093                 1.8322
 IR Inten    --     10.8725                 9.1898                 3.1826

                     70                     71                     72
                      A                      A                      A
 Frequencies --   1394.5423              1400.5905              1407.6785
 Red. masses --      1.5551                 1.4670                 1.5620
 Frc consts  --      1.7819                 1.6955                 1.8237
 IR Inten    --     20.7317                 1.3499                52.2231

                     73                     74                     75
                      A                      A                      A
 Frequencies --   1426.1281              1437.6702              1447.5733
 Red. masses --      2.3379                 1.5668                 1.2725
 Frc consts  --      2.8015                 1.9080                 1.5710
 IR Inten    --     56.0080                12.3630                 7.4219

                     76                     77                     78
                      A                      A                      A
 Frequencies --   1503.6153              1510.7880              1511.6955
 Red. masses --      1.3879                 1.0863                 1.1435
 Frc consts  --      1.8487                 1.4608                 1.5397
 IR Inten    --     26.9491                 0.8821                 9.3663

                     79                     80                     81
                      A                      A                      A
 Frequencies --   1515.1802              1515.9259              1520.7902
 Red. masses --      1.1269                 1.1345                 1.1026
 Frc consts  --      1.5243                 1.5360                 1.5025
 IR Inten    --      9.2486                 7.9518                 3.0985

                     82                     83                     84
                      A                      A                      A
 Frequencies --   1525.6813              1530.9739              1532.7887
 Red. masses --      2.2530                 1.1792                 1.0842
 Frc consts  --      3.0898                 1.6285                 1.5008
 IR Inten    --     27.1118                 8.4780                 5.3223

                     85                     86                     87
                      A                      A                      A
 Frequencies --   1535.5614              1551.6963              1558.0903
 Red. masses --      1.1998                 1.5705                 1.5926
 Frc consts  --      1.6668                 2.2280                 2.2779
 IR Inten    --      7.8748                31.5556                20.1813

                     88                     89                     90
                      A                      A                      A
 Frequencies --   1625.6184              1696.8033              3029.8865
 Red. masses --      5.9225                 1.1611                 1.0576
 Frc consts  --      9.2213                 1.9695                 5.7202
 IR Inten    --     74.7463                50.7556                40.7161

                     91                     92                     93
                      A                      A                      A
 Frequencies --   3033.5799              3043.5756              3052.4146
 Red. masses --      1.0402                 1.0654                 1.0365
 Frc consts  --      5.6398                 5.8145                 5.6897
 IR Inten    --     46.8314                27.9793                26.8789

                     94                     95                     96
                      A                      A                      A
 Frequencies --   3061.3906              3067.8914              3070.9817
 Red. masses --      1.0623                 1.0982                 1.0694
 Frc consts  --      5.8657                 6.0900                 5.9423
 IR Inten    --     26.8660                 4.5617                64.7613

                     97                     98                     99
                      A                      A                      A
 Frequencies --   3075.7743              3077.2495              3077.9911
 Red. masses --      1.0652                 1.0604                 1.1003
 Frc consts  --      5.9374                 5.9163                 6.1418
 IR Inten    --     60.7630                30.6908                28.1219

                    100                    101                    102
                      A                      A                      A
 Frequencies --   3091.4093              3101.9954              3117.0113
 Red. masses --      1.0983                 1.1051                 1.1024
 Frc consts  --      6.1841                 6.2651                 6.3105
 IR Inten    --      9.5783                15.3020                30.1411

                    103                    104                    105
                      A                      A                      A
 Frequencies --   3118.9187              3126.3083              3130.2951
 Red. masses --      1.0886                 1.1057                 1.1021
 Frc consts  --      6.2390                 6.3675                 6.3630
 IR Inten    --     52.0817                28.4066                46.8564

                    106                    107                    108
                      A                      A                      A
 Frequencies --   3130.4169              3136.2283              3142.1085
 Red. masses --      1.1042                 1.1012                 1.0977
 Frc consts  --      6.3754                 6.3814                 6.3851
 IR Inten    --     39.7092                27.6904                10.3164

                    109                    110                    111
                      A                      A                      A
 Frequencies --   3196.3830              3461.8004              3546.4639
 Red. masses --      1.0900                 1.0511                 1.0908
 Frc consts  --      6.5611                 7.4215                 8.0832
 IR Inten    --      3.5410                 2.2888                 1.6531

 - Thermochemistry -
 -------------------
 Temperature   298.150 Kelvin.  Pressure   1.00000 Atm.
 Atom     1 has atomic number  6 and mass  12.00000

 Molecular mass:   234.18445 amu.
 Principal axes and moments of inertia in atomic units:
                           1         2         3
     Eigenvalues --  2638.315734689.234786207.76003
           X            0.99997  -0.00287  -0.00681
           Y            0.00283   0.99997  -0.00660
           Z            0.00683   0.00658   0.99996
 This molecule is an asymmetric top.
 Rotational symmetry number  1.
 Warning -- assumption of classical behavior for rotation
           may cause significant error
 Rotational temperatures (Kelvin)      0.03283     0.01847     0.01395
 Rotational constants (GHZ):           0.68405     0.38487     0.29072
 Zero-point vibrational energy     913497.2 (Joules/Mol)
                                  218.33106 (Kcal/Mol)
 Warning -- explicit consideration of  24 degrees of freedom as
           vibrations may cause significant error
 Vibrational temperatures:     41.05    49.06    75.88    88.40   113.44
          (Kelvin)            142.85   160.84   192.10   235.11   287.77
                              322.46   331.06   371.03   413.73   425.94
                              472.85   516.54   540.05   608.81   662.32
                              681.15   756.29   848.98   867.96   908.30
                              967.34   991.72  1026.25  1124.72  1142.37
                             1152.01  1185.95  1199.73  1238.84  1257.51
                             1287.45  1309.25  1320.39  1362.03  1381.97
                             1388.71  1402.80  1425.05  1445.15  1473.84
                             1516.64  1535.03  1546.41  1547.37  1591.57
                             1601.54  1609.27  1651.96  1672.88  1700.71
                             1727.97  1758.07  1780.97  1786.95  1823.78
                             1840.68  1859.15  1887.54  1906.83  1913.00
                             1928.00  1945.45  1952.48  1959.93  2006.44
                             2015.14  2025.34  2051.88  2068.49  2082.74
                             2163.37  2173.69  2174.99  2180.01  2181.08
                             2188.08  2195.12  2202.73  2205.34  2209.33
                             2232.54  2241.74  2338.90  2441.32  4359.33
                             4364.64  4379.03  4391.74  4404.66  4414.01
                             4418.46  4425.35  4427.48  4428.54  4447.85
                             4463.08  4484.68  4487.43  4498.06  4503.80
                             4503.97  4512.33  4520.79  4598.88  4980.76
                             5102.57

 Zero-point correction=                           0.347933 (Hartree/Particle)
 Thermal correction to Energy=                    0.364935
 Thermal correction to Enthalpy=                  0.365880
 Thermal correction to Gibbs Free Energy=         0.301958
 Sum of electronic and zero-point Energies=           -727.333916
 Sum of electronic and thermal Energies=              -727.316913
 Sum of electronic and thermal Enthalpies=            -727.315969
 Sum of electronic and thermal Free Energies=         -727.379890

                     E (Thermal)             CV                S
                      KCal/Mol        Cal/Mol-Kelvin    Cal/Mol-Kelvin
 Total                  229.000             64.578            134.533
 Electronic               0.000              0.000              0.000
 Translational            0.889              2.981             42.254
 Rotational               0.889              2.981             32.707
 Vibrational            227.223             58.616             59.572
 Vibration     1          0.593              1.984              5.929
 Vibration     2          0.594              1.983              5.576
 Vibration     3          0.596              1.977              4.712
 Vibration     4          0.597              1.973              4.410
 Vibration     5          0.600              1.963              3.919
 Vibration     6          0.604              1.950              3.468
 Vibration     7          0.607              1.940              3.238
 Vibration     8          0.613              1.920              2.895
 Vibration     9          0.623              1.887              2.510
 Vibration    10          0.638              1.840              2.133
 Vibration    11          0.649              1.804              1.926
 Vibration    12          0.652              1.795              1.878
 Vibration    13          0.667              1.749              1.676
 Vibration    14          0.685              1.697              1.488
 Vibration    15          0.690              1.681              1.439
 Vibration    16          0.712              1.618              1.267
 Vibration    17          0.734              1.557              1.126
 Vibration    18          0.746              1.523              1.058
 Vibration    19          0.785              1.420              0.881
 Vibration    20          0.818              1.338              0.765
 Vibration    21          0.830              1.309              0.728
 Vibration    22          0.881              1.193              0.597
 Vibration    23          0.947              1.053              0.467
 Vibration    24          0.962              1.025              0.444

                           ! Non-Optimized Parameters !
 Normal termination of Gaussian 16 at Fri Dec 11 13:46:13 2020.

 ----------------------------------------------------------------------
 # B3LYP/6-311++G(d,p) empiricaldispersion=gd3bj scf=xqc pop=npa geom=c
 heck
 ----------------------------------------------------------------------

 --------------------------------------
 CID_66027448_JID_7574_Energie_neutraal
 --------------------------------------
 Structure from the checkpoint file:  "JID_7574.chk"
 Charge =  0 Multiplicity = 1

 SCF Done:  E(RB3LYP) =  -727.878464927     A.U. after   15 cycles
 Normal termination of Gaussian 16 at Fri Dec 11 13:55:32 2020.

 ----------------------------------------------------------------------
 # B3LYP/6-311++G(d,p) empiricaldispersion=gd3bj scf=xqc pop=npa geom=c
 heck
 ----------------------------------------------------------------------

 ------------------------------------
 CID_66027448_JID_7574_Energie_kation
 ------------------------------------
 Structure from the checkpoint file:  "JID_7574.chk"
 Charge =  1 Multiplicity = 2

 SCF Done:  E(UB3LYP) =  -727.619681893     A.U. after   21 cycles
 Normal termination of Gaussian 16 at Fri Dec 11 14:13:48 2020.
 Gaussian 16:  ES64L-G16RevA.03 25-Dec-2016

 ----------------------------------------------------------------------
 # B3LYP/6-311++G(d,p) empiricaldispersion=gd3bj scf=xqc pop=npa geom=c
 heck
 ----------------------------------------------------------------------

 -----------------------------------
 CID_66027448_JID_7574_Energie_anion
 -----------------------------------
 Structure from the checkpoint file:  "JID_7574.chk"
 Charge = -1 Multiplicity = 2

                         Standard orientation:
 ---------------------------------------------------------------------
 Center     Atomic      Atomic             Coordinates (Angstroms)
 Number     Number       Type             X           Y           Z
 ---------------------------------------------------------------------
      1          6           0       -1.960661   -2.773428    1.313327
      2          6           0       -0.875553   -2.868451    0.239743
      3          6           0       -1.182766   -2.012942   -0.995326
      4          7           0       -1.372019   -0.607873   -0.673244
      5          6           0       -0.450652    0.267717   -0.163941
      6          6           0       -1.163326    1.420343    0.174170
      7          6           0       -2.514283    1.124222   -0.148725
      8          7           0       -2.637971   -0.100149   -0.656557
      9          6           0       -3.704685    2.015438    0.016623
     10          7           0       -0.625300    2.621115    0.725421
     11          7           0        0.889096   -0.097784   -0.066482
     12          6           0        1.657256   -0.283112   -1.330572
     13          6           0        3.026292    0.333181   -0.984608
     14          6           0        3.706366   -0.569057    0.073636
     15          6           0        2.842102   -0.315362    1.352274
     16          6           0        1.776738    0.674783    0.840857
     17          6           0        2.589061    1.543099   -0.134704
     18          1           0       -2.071599   -1.743029    1.665511
     19          1           0       -1.714461   -3.403563    2.175069
     20          1           0       -2.934258   -3.093190    0.924208
     21          1           0        0.089165   -2.551342    0.650862
     22          1           0       -0.757993   -3.908326   -0.093771
     23          1           0       -0.385110   -2.114552   -1.738588
     24          1           0       -2.120310   -2.324442   -1.462425
     25          1           0       -3.898759    2.246956    1.072595
     26          1           0       -3.569838    2.971986   -0.504743
     27          1           0       -4.592280    1.523746   -0.389750
     28          1           0       -0.414945    3.304511   -0.000633
     29          1           0       -1.298306    3.057029    1.351344
     30          1           0        1.740009   -1.343411   -1.598638
     31          1           0        1.170282    0.245517   -2.160787
     32          1           0        3.637539    0.540613   -1.866435
     33          1           0        3.711071   -1.620906   -0.230764
     34          1           0        4.747730   -0.267166    0.228100
     35          1           0        2.378869   -1.225400    1.741504
     36          1           0        3.436586    0.135922    2.154510
     37          1           0        1.197916    1.194383    1.599718
     38          1           0        3.427637    2.064851    0.338501
     39          1           0        1.969074    2.264067   -0.675866
 ---------------------------------------------------------------------

 SCF Done:  E(UB3LYP) =  -727.867300055     A.U. after   31 cycles

 The electronic state is 2-A.
 Alpha  occ. eigenvalues --  -14.27050 -14.21866 -14.21305 -14.20015 -10.12586
 Alpha  occ. eigenvalues --  -10.11291 -10.09956 -10.09793 -10.08516 -10.08164
 Alpha  occ. eigenvalues --  -10.07879 -10.07740 -10.06910 -10.06901 -10.06807
 Alpha  occ. eigenvalues --  -10.06610 -10.06267  -0.93896  -0.85189  -0.79067
 Alpha  occ. eigenvalues --   -0.75056  -0.72627  -0.67862  -0.64950  -0.63974
 Alpha  occ. eigenvalues --   -0.62645  -0.60717  -0.57061  -0.54253  -0.51113
 Alpha  occ. eigenvalues --   -0.48939  -0.46453  -0.45800  -0.43959  -0.42321
 Alpha  occ. eigenvalues --   -0.39646  -0.38665  -0.38347  -0.37312  -0.36827
 Alpha  occ. eigenvalues --   -0.35592  -0.34396  -0.32796  -0.32630  -0.31316
 Alpha  occ. eigenvalues --   -0.30841  -0.30394  -0.29517  -0.28821  -0.28248
 Alpha  occ. eigenvalues --   -0.26271  -0.25922  -0.25714  -0.25422  -0.25108
 Alpha  occ. eigenvalues --   -0.24914  -0.23934  -0.22936  -0.21856  -0.19921
 Alpha  occ. eigenvalues --   -0.17657  -0.15295  -0.12112  -0.09913   0.04067
 Alpha virt. eigenvalues --    0.06042   0.06476   0.07396   0.08255   0.08330
 Alpha virt. eigenvalues --    0.08756   0.09274   0.09411   0.10236   0.10823
 Alpha virt. eigenvalues --    0.10939   0.11220   0.11620   0.12274   0.12419

  Beta  occ. eigenvalues --  -14.27050 -14.21866 -14.21299 -14.19963 -10.12583
  Beta  occ. eigenvalues --  -10.11285 -10.09936 -10.09790 -10.08517 -10.08160
  Beta  occ. eigenvalues --  -10.07868 -10.07729 -10.06883 -10.06882 -10.06801
  Beta  occ. eigenvalues --  -10.06598 -10.06243  -0.93890  -0.85178  -0.78993
  Beta  occ. eigenvalues --   -0.75041  -0.72602  -0.67846  -0.64919  -0.63945
  Beta  occ. eigenvalues --   -0.62615  -0.60677  -0.57031  -0.54216  -0.51079
  Beta  occ. eigenvalues --   -0.48904  -0.46422  -0.45764  -0.43924  -0.42284
  Beta  occ. eigenvalues --   -0.39608  -0.38624  -0.38320  -0.37277  -0.36793
  Beta  occ. eigenvalues --   -0.35571  -0.34364  -0.32772  -0.32606  -0.31291
  Beta  occ. eigenvalues --   -0.30820  -0.30376  -0.29498  -0.28798  -0.28225
  Beta  occ. eigenvalues --   -0.26246  -0.25902  -0.25685  -0.25401  -0.25095
  Beta  occ. eigenvalues --   -0.24884  -0.23907  -0.22908  -0.21827  -0.19890
  Beta  occ. eigenvalues --   -0.17635  -0.15270  -0.12087  -0.09896
  Beta virt. eigenvalues --    0.06075   0.06849   0.07011   0.07789   0.08661
  Beta virt. eigenvalues --    0.08788   0.08970   0.09583   0.09837   0.10498
  Beta virt. eigenvalues --    0.11100   0.11241   0.11573   0.11721   0.12360

 Mulliken charges and spin densities:
               1          2
     1  C   -0.274890  -0.292745
     2  C   -0.253543   0.192799
     3  C   -0.237278  -0.122328
     4  N    0.219486  -0.045440
     5  C   -0.958930   0.435998
     6  C   -0.301616  -0.097362
     7  C    0.665083  -0.625387
     8  N   -0.066200   0.161479
     9  C    1.107051  -1.926159
    10  N   -0.515115   0.153908
    11  N    0.399191  -0.023517
    12  C    0.933751  -1.224501
    13  C   -1.428311   1.563526
    14  C    1.189736  -1.694202
    15  C   -0.698329   0.176502
    16  C   -0.485226   0.765030
    17  C    1.013596  -1.529295
    18  H    0.116565   0.068859
    19  H   -0.002072   0.128251
    20  H    0.128913  -0.005879
    21  H    0.277652  -0.126701
    22  H   -0.137251   0.283270
    23  H    0.021839   0.107118
    24  H    0.117297   0.077774
    25  H   -0.066685   0.227184
    26  H   -0.177881   0.341209
    27  H    0.098411   0.047768
    28  H   -0.185679   0.463867
    29  H   -0.159190   0.406420
    30  H   -0.043591   0.175205
    31  H   -0.048372   0.233120
    32  H   -0.660611   0.900676
    33  H   -0.127605   0.255102
    34  H   -0.109225   0.265363
    35  H    0.037294   0.094025
    36  H   -0.125094   0.276432
    37  H    0.134391   0.176945
    38  H   -0.270613   0.448349
    39  H   -0.126951   0.287338
 Sum of Mulliken charges =  -1.00000   1.00000

 Dipole moment (field-independent basis, Debye):
    X=             -2.3307    Y=             -4.6039    Z=              0.9403  Tot=              5.2452
 Quadrupole moment (field-independent basis, Debye-Ang):
   XX=           -175.8721   YY=           -160.6908   ZZ=           -139.7095
   XY=              2.3471   XZ=              3.4254   YZ=             -0.2600

 Summary of Natural Population Analysis:

                                       Natural Population
                Natural  -----------------------------------------------
    Atom  No    Charge         Core      Valence    Rydberg      Total
 -----------------------------------------------------------------------
      C    1   -0.28723      0.99967     2.28302    0.00455     3.28723
      C    2   -0.19819      0.99963     2.19149    0.00707     3.19819
      C    3   -0.08166      0.99961     2.07107    0.01098     3.08166
      N    4   -0.12283      0.99962     2.61055    0.01266     3.62283
      C    5    0.18597      0.99943     1.79997    0.01463     2.81403
      C    6    0.00498      0.99936     1.98382    0.01185     2.99502
      C    7    0.06607      0.99954     1.91950    0.01488     2.93393
      N    8   -0.17021      0.99970     2.65995    0.01056     3.67021
      C    9   -0.30034      0.99963     2.29460    0.00611     3.30034
      N   10   -0.41821      0.99975     2.90763    0.01084     3.91821
      N   11   -0.28299      0.99967     2.77161    0.01171     3.78299
      C   12   -0.08078      0.99960     2.07007    0.01111     3.08078
      C   13   -0.11835      0.99960     2.10632    0.01243     3.11835
      C   14   -0.19177      0.99963     2.18369    0.00844     3.19177
      C   15   -0.19435      0.99962     2.18579    0.00893     3.19435
      C   16   -0.00506      0.99959     1.99173    0.01374     3.00506
      C   17   -0.19478      0.99961     2.18565    0.00953     3.19478
      H   18    0.10465      0.00000     0.39438    0.00097     0.39535
      H   19    0.09553      0.00000     0.40368    0.00079     0.40447
      H   20    0.09517      0.00000     0.40387    0.00095     0.40483
      H   21    0.10475      0.00000     0.39357    0.00168     0.39525
      H   22    0.09318      0.00000     0.40574    0.00108     0.40682
      H   23    0.09880      0.00000     0.40004    0.00116     0.40120
      H   24    0.10439      0.00000     0.39426    0.00135     0.39561
      H   25    0.10142      0.00000     0.39750    0.00108     0.39858
      H   26    0.10433      0.00000     0.39437    0.00130     0.39567
      H   27    0.10722      0.00000     0.39182    0.00096     0.39278
      H   28    0.18295      0.00000     0.31324    0.00380     0.31705
      H   29    0.18110      0.00000     0.31644    0.00245     0.31890
      H   30    0.09136      0.00000     0.40713    0.00151     0.40864
      H   31    0.09622      0.00000     0.40218    0.00160     0.40378
      H   32    0.10641      0.00000     0.39188    0.00171     0.39359
      H   33    0.09784      0.00000     0.40099    0.00116     0.40216
      H   34    0.09995      0.00000     0.39883    0.00123     0.40005
      H   35    0.10127      0.00000     0.39738    0.00135     0.39873
      H   36    0.09808      0.00000     0.40087    0.00105     0.40192
      H   37    0.11808      0.00000     0.38031    0.00161     0.38192
      H   38    0.10138      0.00000     0.39727    0.00135     0.39862
      H   39    0.10563      0.00000     0.39274    0.00163     0.39437
 =======================================================================
   * Total *    0.00000     16.99325    46.79496    0.21179    64.00000

 Normal termination of Gaussian 16 at Fri Dec 11 14:40:13 2020.
