 Gaussian 16, Revision A.03,

 -----------------------------------------------------------
 # opt freq B3LYP/6-31G(d) empiricaldispersion=gd3bj scf=xqc
 -----------------------------------------------------------

 ------------------------------
 CID_66225085_JID_6180_neutraal
 ------------------------------
 Symbolic Z-matrix:
 Charge =  0 Multiplicity = 1

 SCF Done:  E(RB3LYP) =  -715.726004871     A.U. after   14 cycles
 SCF Done:  E(RB3LYP) =  -715.730085420     A.U. after   12 cycles
 SCF Done:  E(RB3LYP) =  -715.726928181     A.U. after   12 cycles
 SCF Done:  E(RB3LYP) =  -715.730541888     A.U. after   11 cycles
 SCF Done:  E(RB3LYP) =  -715.730962764     A.U. after   12 cycles
 SCF Done:  E(RB3LYP) =  -715.730906058     A.U. after   11 cycles
 SCF Done:  E(RB3LYP) =  -715.731395041     A.U. after   11 cycles
 SCF Done:  E(RB3LYP) =  -715.731410082     A.U. after   10 cycles
 SCF Done:  E(RB3LYP) =  -715.731453971     A.U. after   10 cycles
 SCF Done:  E(RB3LYP) =  -715.731459798     A.U. after    9 cycles
 SCF Done:  E(RB3LYP) =  -715.731462377     A.U. after    7 cycles
 SCF Done:  E(RB3LYP) =  -715.731462604     A.U. after    7 cycles
 SCF Done:  E(RB3LYP) =  -715.731462554     A.U. after    7 cycles
 SCF Done:  E(RB3LYP) =  -715.731462562     A.U. after    7 cycles
 SCF Done:  E(RB3LYP) =  -715.731462540     A.U. after    6 cycles
 Optimization completed.
    -- Stationary point found.
 Normal termination of Gaussian 16 at Thu Dec 10 21:20:14 2020.

 --------------------------------------------------------------------
 #N Geom=AllCheck Guess=TCheck SCRF=Check GenChk RB3LYP/6-31G(d) Freq
 --------------------------------------------------------------------

 Structure from the checkpoint file:  "JID_6180.chk"
 ------------------------------
 CID_66225085_JID_6180_neutraal
 ------------------------------
 Charge =  0 Multiplicity = 1

 SCF Done:  E(RB3LYP) =  -715.731462540     A.U. after    1 cycles

  Exact polarizability: 173.064  -2.146 136.003  -2.847   0.562 130.283
 Approx polarizability: 205.037  -2.123 195.190   1.588   5.580 202.838

                      1                      2                      3
                      A                      A                      A
 Frequencies --     20.4753                38.0042                48.5539
 Red. masses --      2.7836                 3.2818                 3.7360
 Frc consts  --      0.0007                 0.0028                 0.0052
 IR Inten    --      0.0209                 0.3131                 0.9227

                      4                      5                      6
                      A                      A                      A
 Frequencies --     59.7866                68.7417               106.8227
 Red. masses --      3.5551                 2.7835                 2.2115
 Frc consts  --      0.0075                 0.0077                 0.0149
 IR Inten    --      1.1256                 0.5372                 0.4880

                      7                      8                      9
                      A                      A                      A
 Frequencies --    137.0180               163.7506               177.2349
 Red. masses --      2.9123                 5.6971                 2.7087
 Frc consts  --      0.0322                 0.0900                 0.0501
 IR Inten    --      0.9804                 0.0637                 2.7386

                     10                     11                     12
                      A                      A                      A
 Frequencies --    212.4762               229.7127               242.7232
 Red. masses --      3.3022                 1.4469                 2.0464
 Frc consts  --      0.0878                 0.0450                 0.0710
 IR Inten    --      0.2013                 1.0092                 6.7374

                     13                     14                     15
                      A                      A                      A
 Frequencies --    258.7115               264.3793               285.8070
 Red. masses --      2.5718                 1.4971                 2.4955
 Frc consts  --      0.1014                 0.0617                 0.1201
 IR Inten    --      4.6288                 4.1936                16.2847

                     16                     17                     18
                      A                      A                      A
 Frequencies --    294.7564               299.7673               319.0673
 Red. masses --      1.2186                 1.4048                 1.2017
 Frc consts  --      0.0624                 0.0744                 0.0721
 IR Inten    --      0.9629                 9.4906                44.0766

                     19                     20                     21
                      A                      A                      A
 Frequencies --    330.7800               346.2649               383.4756
 Red. masses --      3.1585                 1.9835                 2.5032
 Frc consts  --      0.2036                 0.1401                 0.2169
 IR Inten    --      3.8338                 0.5545                 0.5455

                     22                     23                     24
                      A                      A                      A
 Frequencies --    414.4629               421.5598               430.3783
 Red. masses --      2.2107                 2.8700                 2.1213
 Frc consts  --      0.2237                 0.3005                 0.2315
 IR Inten    --      0.3024                 0.2011                 1.9471

                     25                     26                     27
                      A                      A                      A
 Frequencies --    462.0166               538.1618               601.9838
 Red. masses --      3.7015                 2.5707                 2.6692
 Frc consts  --      0.4655                 0.4387                 0.5699
 IR Inten    --      9.3721                 5.6592                 2.2791

                     28                     29                     30
                      A                      A                      A
 Frequencies --    659.6541               711.9985               719.0274
 Red. masses --      2.5929                 3.0766                 3.3395
 Frc consts  --      0.6648                 0.9189                 1.0172
 IR Inten    --      0.2525                 0.2128                 3.2394

                     31                     32                     33
                      A                      A                      A
 Frequencies --    784.6437               805.3040               825.7056
 Red. masses --      5.1883                 1.4523                 2.8387
 Frc consts  --      1.8820                 0.5549                 1.1403
 IR Inten    --      7.1344                 1.7245                 1.5489

                     34                     35                     36
                      A                      A                      A
 Frequencies --    849.3732               866.3531               884.2756
 Red. masses --      2.1860                 1.8896                 2.0073
 Frc consts  --      0.9292                 0.8356                 0.9248
 IR Inten    --      2.4036                22.9351                 8.4247

                     37                     38                     39
                      A                      A                      A
 Frequencies --    904.1339               916.5291               947.3542
 Red. masses --      2.6428                 1.5834                 1.9506
 Frc consts  --      1.2729                 0.7837                 1.0315
 IR Inten    --     12.5300                57.2420                 9.2666

                     40                     41                     42
                      A                      A                      A
 Frequencies --    951.2509               952.6061               978.1190
 Red. masses --      1.7842                 1.9430                 2.2145
 Frc consts  --      0.9512                 1.0388                 1.2482
 IR Inten    --      2.3660                18.4249                 8.6369

                     43                     44                     45
                      A                      A                      A
 Frequencies --    982.3626               996.7352              1008.1555
 Red. masses --      1.2400                 2.1557                 1.4127
 Frc consts  --      0.7051                 1.2618                 0.8460
 IR Inten    --      0.2360                14.3883                 1.5510

                     46                     47                     48
                      A                      A                      A
 Frequencies --   1021.8627              1026.6300              1042.4463
 Red. masses --      2.0558                 2.4441                 1.6774
 Frc consts  --      1.2648                 1.5177                 1.0740
 IR Inten    --     11.0297                 4.8084                 4.2956

                     49                     50                     51
                      A                      A                      A
 Frequencies --   1065.5773              1074.9319              1085.4936
 Red. masses --      2.0868                 1.8229                 1.6714
 Frc consts  --      1.3960                 1.2410                 1.1604
 IR Inten    --      1.9816                 8.8178                10.6801

                     52                     53                     54
                      A                      A                      A
 Frequencies --   1103.0410              1117.8942              1124.9461
 Red. masses --      2.1325                 2.1279                 2.0431
 Frc consts  --      1.5287                 1.5668                 1.5233
 IR Inten    --     14.9900                 7.6087                10.7871

                     55                     56                     57
                      A                      A                      A
 Frequencies --   1193.9465              1209.0096              1223.3019
 Red. masses --      1.3165                 1.6200                 1.6833
 Frc consts  --      1.1057                 1.3952                 1.4842
 IR Inten    --      2.6031               114.7443                30.1499

                     58                     59                     60
                      A                      A                      A
 Frequencies --   1230.4109              1239.9839              1250.2759
 Red. masses --      1.4151                 2.0470                 2.0576
 Frc consts  --      1.2622                 1.8544                 1.8950
 IR Inten    --     15.0540               227.6048                 2.8181

                     61                     62                     63
                      A                      A                      A
 Frequencies --   1261.6944              1282.2409              1296.8428
 Red. masses --      1.4001                 1.7413                 1.2385
 Frc consts  --      1.3131                 1.6868                 1.2272
 IR Inten    --     44.1347                14.0074                 5.9948

                     64                     65                     66
                      A                      A                      A
 Frequencies --   1303.5016              1311.7622              1319.9962
 Red. masses --      1.7633                 1.3431                 1.3070
 Frc consts  --      1.7652                 1.3616                 1.3418
 IR Inten    --      0.3997                31.3227                24.2017

                     67                     68                     69
                      A                      A                      A
 Frequencies --   1344.2648              1346.4754              1362.5624
 Red. masses --      1.4313                 1.4277                 1.4344
 Frc consts  --      1.5238                 1.5250                 1.5690
 IR Inten    --      1.6089                 0.8065                32.3458

                     70                     71                     72
                      A                      A                      A
 Frequencies --   1366.2677              1400.6729              1405.1907
 Red. masses --      1.2928                 1.4070                 1.2329
 Frc consts  --      1.4219                 1.6264                 1.4344
 IR Inten    --     13.4828                22.4662                 3.5759

                     73                     74                     75
                      A                      A                      A
 Frequencies --   1411.9032              1428.0490              1432.8943
 Red. masses --      1.6079                 1.2426                 1.2356
 Frc consts  --      1.8885                 1.4930                 1.4947
 IR Inten    --     51.4898                 3.4127                 4.6426

                     76                     77                     78
                      A                      A                      A
 Frequencies --   1440.7224              1448.5624              1463.2317
 Red. masses --      1.6702                 1.4353                 1.2248
 Frc consts  --      2.0425                 1.7744                 1.5451
 IR Inten    --     33.7829                 4.3432                 3.1542

                     79                     80                     81
                      A                      A                      A
 Frequencies --   1498.4872              1511.6119              1518.6895
 Red. masses --      1.0923                 1.0447                 1.0519
 Frc consts  --      1.4451                 1.4065                 1.4294
 IR Inten    --      1.5598                 0.3924                 0.0384

                     82                     83                     84
                      A                      A                      A
 Frequencies --   1519.0190              1520.0034              1520.8210
 Red. masses --      1.0523                 1.0745                 1.0842
 Frc consts  --      1.4306                 1.4627                 1.4775
 IR Inten    --      0.7262                 0.6906                 1.4806

                     85                     86                     87
                      A                      A                      A
 Frequencies --   1531.2022              1531.7654              1541.4160
 Red. masses --      1.0753                 1.0810                 1.0583
 Frc consts  --      1.4855                 1.4944                 1.4815
 IR Inten    --      8.8273                 1.4211                 2.7051

                     88                     89                     90
                      A                      A                      A
 Frequencies --   1546.2674              1549.7814              1554.2803
 Red. masses --      1.0677                 1.0976                 1.0590
 Frc consts  --      1.5041                 1.5532                 1.5074
 IR Inten    --      7.5614                 3.7943                10.1176

                     91                     92                     93
                      A                      A                      A
 Frequencies --   1699.9088              1795.0657              2993.8834
 Red. masses --      1.1282                 7.9642                 1.0695
 Frc consts  --      1.9209                15.1201                 5.6481
 IR Inten    --     66.0467               158.5707                57.4777

                     94                     95                     96
                      A                      A                      A
 Frequencies --   3028.1370              3034.2912              3037.9532
 Red. masses --      1.0588                 1.0361                 1.0375
 Frc consts  --      5.7202                 5.6203                 5.6418
 IR Inten    --     14.8097                30.8573                40.9747

                     97                     98                     99
                      A                      A                      A
 Frequencies --   3046.2023              3052.7611              3067.2165
 Red. masses --      1.0406                 1.0618                 1.0698
 Frc consts  --      5.6893                 5.8302                 5.9299
 IR Inten    --     26.3117                24.8375                40.5979

                    100                    101                    102
                      A                      A                      A
 Frequencies --   3067.7946              3068.0219              3071.4279
 Red. masses --      1.0823                 1.0908                 1.0877
 Frc consts  --      6.0012                 6.0494                 6.0454
 IR Inten    --     14.7062                 7.9960                11.2178

                    103                    104                    105
                      A                      A                      A
 Frequencies --   3075.6198              3083.1059              3090.7721
 Red. masses --      1.0751                 1.0702                 1.0942
 Frc consts  --      5.9918                 5.9934                 6.1585
 IR Inten    --     39.7795                49.0414                31.8718

                    106                    107                    108
                      A                      A                      A
 Frequencies --   3096.7346              3098.1630              3099.7693
 Red. masses --      1.0875                 1.1019                 1.1015
 Frc consts  --      6.1447                 6.2313                 6.2360
 IR Inten    --     33.4443                 0.0020                12.8130

                    109                    110                    111
                      A                      A                      A
 Frequencies --   3101.8807              3106.4676              3109.3628
 Red. masses --      1.1016                 1.1053                 1.1013
 Frc consts  --      6.2448                 6.2843                 6.2731
 IR Inten    --     57.3779                24.4636                72.0230

                    112                    113                    114
                      A                      A                      A
 Frequencies --   3121.0726              3130.6343              3138.7098
 Red. masses --      1.1014                 1.1039                 1.0986
 Frc consts  --      6.3213                 6.3746                 6.3766
 IR Inten    --     30.6505                37.9228                20.6002

                    115                    116                    117
                      A                      A                      A
 Frequencies --   3154.3752              3493.9857              3577.4144
 Red. masses --      1.0984                 1.0505                 1.0930
 Frc consts  --      6.4391                 7.5561                 8.2417
 IR Inten    --      7.5842                 4.6368                 6.4773

 - Thermochemistry -
 -------------------
 Temperature   298.150 Kelvin.  Pressure   1.00000 Atm.
 Atom     1 has atomic number  6 and mass  12.00000

 Molecular mass:   227.18853 amu.
 Principal axes and moments of inertia in atomic units:
                           1         2         3
     Eigenvalues --  1859.114596341.752756744.42529
           X            1.00000  -0.00058  -0.00110
           Y            0.00056   0.99974  -0.02269
           Z            0.00111   0.02269   0.99974
 This molecule is an asymmetric top.
 Rotational symmetry number  1.
 Warning -- assumption of classical behavior for rotation
           may cause significant error
 Rotational temperatures (Kelvin)      0.04659     0.01366     0.01284
 Rotational constants (GHZ):           0.97075     0.28458     0.26759
 Zero-point vibrational energy     982858.5 (Joules/Mol)
                                  234.90883 (Kcal/Mol)
 Warning -- explicit consideration of  27 degrees of freedom as
           vibrations may cause significant error
 Vibrational temperatures:     29.46    54.68    69.86    86.02    98.90
          (Kelvin)            153.69   197.14   235.60   255.00   305.71
                              330.51   349.22   372.23   380.38   411.21
                              424.09   431.30   459.07   475.92   498.20
                              551.74   596.32   606.53   619.22   664.74
                              774.29   866.12   949.10  1024.41  1034.52
                             1128.93  1158.65  1188.01  1222.06  1246.49
                             1272.28  1300.85  1318.68  1363.03  1368.64
                             1370.59  1407.30  1413.40  1434.08  1450.51
                             1470.23  1477.09  1499.85  1533.13  1546.59
                             1561.78  1587.03  1608.40  1618.55  1717.82
                             1739.50  1760.06  1770.29  1784.06  1798.87
                             1815.30  1844.86  1865.87  1875.45  1887.33
                             1899.18  1934.10  1937.28  1960.42  1965.75
                             2015.26  2021.76  2031.41  2054.64  2061.62
                             2072.88  2084.16  2105.26  2155.99  2174.87
                             2185.06  2185.53  2186.95  2188.12  2203.06
                             2203.87  2217.75  2224.73  2229.79  2236.26
                             2445.79  2582.70  4307.53  4356.81  4365.67
                             4370.94  4382.81  4392.24  4413.04  4413.87
                             4414.20  4419.10  4425.13  4435.90  4446.93
                             4455.51  4457.57  4459.88  4462.91  4469.51
                             4473.68  4490.53  4504.28  4515.90  4538.44
                             5027.07  5147.10

 Zero-point correction=                           0.374351 (Hartree/Particle)
 Thermal correction to Energy=                    0.392427
 Thermal correction to Enthalpy=                  0.393371
 Thermal correction to Gibbs Free Energy=         0.327625
 Sum of electronic and zero-point Energies=           -715.357111
 Sum of electronic and thermal Energies=              -715.339036
 Sum of electronic and thermal Enthalpies=            -715.338092
 Sum of electronic and thermal Free Energies=         -715.403838

                     E (Thermal)             CV                S
                      KCal/Mol        Cal/Mol-Kelvin    Cal/Mol-Kelvin
 Total                  246.252             68.364            138.374
 Electronic               0.000              0.000              0.000
 Translational            0.889              2.981             42.164
 Rotational               0.889              2.981             32.742
 Vibrational            244.474             62.403             63.468
 Vibration     1          0.593              1.986              6.588
 Vibration     2          0.594              1.982              5.360
 Vibration     3          0.595              1.978              4.875
 Vibration     4          0.597              1.973              4.464
 Vibration     5          0.598              1.969              4.189
 Vibration     6          0.606              1.944              3.326
 Vibration     7          0.614              1.916              2.845
 Vibration     8          0.623              1.887              2.506
 Vibration     9          0.628              1.870              2.357
 Vibration    10          0.644              1.822              2.022
 Vibration    11          0.652              1.796              1.881
 Vibration    12          0.659              1.775              1.783
 Vibration    13          0.668              1.748              1.670
 Vibration    14          0.671              1.738              1.633
 Vibration    15          0.684              1.700              1.499
 Vibration    16          0.689              1.684              1.447
 Vibration    17          0.692              1.674              1.418
 Vibration    18          0.705              1.637              1.315
 Vibration    19          0.713              1.614              1.256
 Vibration    20          0.724              1.583              1.183
 Vibration    21          0.753              1.505              1.025
 Vibration    22          0.778              1.439              0.911
 Vibration    23          0.784              1.423              0.887
 Vibration    24          0.792              1.404              0.857
 Vibration    25          0.820              1.334              0.760
 Vibration    26          0.893              1.166              0.569
 Vibration    27          0.960              1.028              0.446

 Optimization completed.
    -- Stationary point found.
 Normal termination of Gaussian 16 at Thu Dec 10 21:35:32 2020.

 ----------------------------------------------------------------------
 # B3LYP/6-311++G(d,p) empiricaldispersion=gd3bj scf=xqc pop=npa geom=c
 heck
 ----------------------------------------------------------------------

 --------------------------------------
 CID_66225085_JID_6180_Energie_neutraal
 --------------------------------------
 Structure from the checkpoint file:  "JID_6180.chk"
 Charge =  0 Multiplicity = 1

 SCF Done:  E(RB3LYP) =  -715.940083597     A.U. after   14 cycles
 Normal termination of Gaussian 16 at Thu Dec 10 21:43:37 2020.

 ----------------------------------------------------------------------
 # B3LYP/6-311++G(d,p) empiricaldispersion=gd3bj scf=xqc pop=npa geom=c
 heck
 ----------------------------------------------------------------------

 ------------------------------------
 CID_66225085_JID_6180_Energie_kation
 ------------------------------------
 Structure from the checkpoint file:  "JID_6180.chk"
 Charge =  1 Multiplicity = 2

 SCF Done:  E(UB3LYP) =  -715.616345699     A.U. after   24 cycles
 Normal termination of Gaussian 16 at Thu Dec 10 22:02:59 2020.
 Gaussian 16:  ES64L-G16RevA.03 25-Dec-2016

 ----------------------------------------------------------------------
 # B3LYP/6-311++G(d,p) empiricaldispersion=gd3bj scf=xqc pop=npa geom=c
 heck
 ----------------------------------------------------------------------

 -----------------------------------
 CID_66225085_JID_6180_Energie_anion
 -----------------------------------
 Structure from the checkpoint file:  "JID_6180.chk"
 Charge = -1 Multiplicity = 2

                         Standard orientation:
 ---------------------------------------------------------------------
 Center     Atomic      Atomic             Coordinates (Angstroms)
 Number     Number       Type             X           Y           Z
 ---------------------------------------------------------------------
      1          6           0       -2.137471   -1.263713   -0.976096
      2          6           0       -3.176734   -0.369462   -0.276111
      3          6           0       -4.549060   -0.575750   -0.942144
      4          6           0       -3.266996   -0.776234    1.205317
      5          6           0       -2.827516    1.134270   -0.410499
      6          6           0       -1.564015    1.635115    0.270095
      7          8           0       -0.412882    1.166042   -0.467234
      8          6           0        0.771318    1.243221    0.163658
      9          8           0        0.921021    1.768905    1.252554
     10          6           0        1.858354    0.556639   -0.628680
     11          6           0        3.275723    1.084614   -0.334168
     12          6           0        4.233426   -0.097796   -0.647655
     13          6           0        3.318498   -1.291089   -1.019581
     14          6           0        1.954347   -0.978433   -0.374267
     15          6           0        1.933271   -1.399655    1.104633
     16          7           0        0.626753   -1.177470    1.744524
     17          1           0       -1.179598   -1.238993   -0.452231
     18          1           0       -1.975818   -0.946900   -2.013290
     19          1           0       -2.488405   -2.303234   -0.991685
     20          1           0       -4.853477   -1.627417   -0.887225
     21          1           0       -5.325504    0.024992   -0.452123
     22          1           0       -4.521264   -0.290070   -2.000926
     23          1           0       -2.283091   -0.753059    1.684904
     24          1           0       -3.946634   -0.118401    1.762095
     25          1           0       -3.647273   -1.800724    1.294731
     26          1           0       -2.778761    1.401054   -1.474582
     27          1           0       -3.658146    1.715038    0.015254
     28          1           0       -1.535619    2.730111    0.281431
     29          1           0       -1.480971    1.293552    1.303857
     30          1           0        1.617590    0.682320   -1.690084
     31          1           0        3.498172    1.976275   -0.928243
     32          1           0        3.335133    1.380406    0.716558
     33          1           0        4.846990   -0.335720    0.227461
     34          1           0        4.926901    0.139748   -1.460226
     35          1           0        3.723721   -2.255312   -0.692189
     36          1           0        3.196963   -1.346367   -2.107831
     37          1           0        1.131625   -1.497284   -0.875922
     38          1           0        2.139513   -2.476135    1.128658
     39          1           0        2.761510   -0.913205    1.645004
     40          1           0        0.501206   -1.839054    2.506612
     41          1           0        0.603989   -0.249260    2.158749
 ---------------------------------------------------------------------

 SCF Done:  E(UB3LYP) =  -715.925873601     A.U. after   33 cycles
 SCF Done:  E(UB3LYP) =  -715.925873601     a.u. after    1 cycles

 The electronic state is 2-A.
 Alpha  occ. eigenvalues --  -19.07102 -19.01602 -14.19264 -10.20521 -10.13017
 Alpha  occ. eigenvalues --  -10.09403 -10.08799 -10.08758 -10.08046 -10.07582
 Alpha  occ. eigenvalues --  -10.07168 -10.07099 -10.07071 -10.06329 -10.05795
 Alpha  occ. eigenvalues --  -10.04919  -1.01289  -0.92503  -0.78753  -0.74712
 Alpha  occ. eigenvalues --   -0.73277  -0.67090  -0.63328  -0.63027  -0.59074
 Alpha  occ. eigenvalues --   -0.58299  -0.56519  -0.54591  -0.49399  -0.47001
 Alpha  occ. eigenvalues --   -0.45624  -0.43892  -0.42039  -0.40739  -0.39708
 Alpha  occ. eigenvalues --   -0.38642  -0.37957  -0.35582  -0.35407  -0.34583
 Alpha  occ. eigenvalues --   -0.34215  -0.33143  -0.32002  -0.31521  -0.30616
 Alpha  occ. eigenvalues --   -0.29712  -0.29010  -0.28474  -0.27136  -0.26725
 Alpha  occ. eigenvalues --   -0.26349  -0.25396  -0.24666  -0.24192  -0.23970
 Alpha  occ. eigenvalues --   -0.23244  -0.22861  -0.22629  -0.22377  -0.21954
 Alpha  occ. eigenvalues --   -0.20518  -0.18342  -0.14713   0.04225
 Alpha virt. eigenvalues --    0.05931   0.06522   0.07365   0.07917   0.08109
 Alpha virt. eigenvalues --    0.08405   0.08998   0.09539   0.09731   0.10033
 Alpha virt. eigenvalues --    0.10431   0.10608   0.10891   0.11668   0.12506

  Beta  occ. eigenvalues --  -19.07097 -19.01598 -14.19239 -10.20519 -10.13007
  Beta  occ. eigenvalues --  -10.09378 -10.08790 -10.08757 -10.08043 -10.07565
  Beta  occ. eigenvalues --  -10.07152 -10.07086 -10.07052 -10.06309 -10.05773
  Beta  occ. eigenvalues --  -10.04903  -1.01281  -0.92494  -0.78717  -0.74685
  Beta  occ. eigenvalues --   -0.73261  -0.67069  -0.63294  -0.62993  -0.59033
  Beta  occ. eigenvalues --   -0.58266  -0.56473  -0.54540  -0.49364  -0.46951
  Beta  occ. eigenvalues --   -0.45600  -0.43851  -0.42012  -0.40704  -0.39683
  Beta  occ. eigenvalues --   -0.38612  -0.37929  -0.35560  -0.35385  -0.34548
  Beta  occ. eigenvalues --   -0.34179  -0.33110  -0.31974  -0.31497  -0.30594
  Beta  occ. eigenvalues --   -0.29691  -0.28986  -0.28446  -0.27113  -0.26702
  Beta  occ. eigenvalues --   -0.26321  -0.25374  -0.24635  -0.24161  -0.23944
  Beta  occ. eigenvalues --   -0.23218  -0.22839  -0.22607  -0.22353  -0.21930
  Beta  occ. eigenvalues --   -0.20504  -0.18333  -0.14683
  Beta virt. eigenvalues --    0.06163   0.06713   0.07377   0.07699   0.08277
  Beta virt. eigenvalues --    0.08605   0.08749   0.09089   0.09838   0.10053
  Beta virt. eigenvalues --    0.10307   0.10715   0.10778   0.11187   0.11826

 Mulliken charges and spin densities:
               1          2
     1  C   -0.197908  -0.578086
     2  C   -1.143025   2.044859
     3  C    0.299851  -0.790718
     4  C    0.368853  -1.072660
     5  C    1.294470  -1.892623
     6  C   -0.519879   0.499910
     7  O    0.099319   0.036960
     8  C   -0.083985  -1.010002
     9  O   -0.234767   0.034961
    10  C   -0.667203   1.393922
    11  C   -0.449866  -0.154517
    12  C    0.693078  -1.118639
    13  C   -0.630206   0.104878
    14  C    0.043365   0.479999
    15  C    1.212223  -2.041118
    16  N   -0.501094   0.115982
    17  H    0.177414   0.118371
    18  H   -0.045383   0.185766
    19  H   -0.067922   0.198928
    20  H    0.005433   0.129942
    21  H   -0.115202   0.246226
    22  H   -0.075601   0.206515
    23  H    0.211908  -0.098954
    24  H   -0.182671   0.328585
    25  H   -0.056147   0.196378
    26  H    0.014877   0.167917
    27  H   -0.059943   0.224922
    28  H   -0.131073   0.323650
    29  H    0.180483   0.008519
    30  H   -0.068273   0.340278
    31  H   -0.067645   0.204209
    32  H    0.100365   0.099664
    33  H    0.011796   0.126678
    34  H   -0.175649   0.326666
    35  H   -0.133341   0.280071
    36  H   -0.238357   0.398255
    37  H    0.340487  -0.158006
    38  H   -0.480067   0.662591
    39  H    0.147223   0.043543
    40  H    0.035861   0.229962
    41  H    0.088202   0.156216
 Sum of Mulliken charges =  -1.00000   1.00000

 Dipole moment (field-independent basis, Debye):
    X=             -0.2123    Y=              1.6405    Z=              0.1543  Tot=              1.6614
 Quadrupole moment (field-independent basis, Debye-Ang):
   XX=           -184.7278   YY=           -146.8847   ZZ=           -142.9003
   XY=              3.5493   XZ=              3.2540   YZ=              2.7427

 Summary of Natural Population Analysis:

                                       Natural Population
                Natural  -----------------------------------------------
    Atom  No    Charge         Core      Valence    Rydberg      Total
 -----------------------------------------------------------------------
      C    1   -0.28815      0.99962     2.28098    0.00756     3.28815
      C    2   -0.04869      0.99959     2.03812    0.01098     3.04869
      C    3   -0.28055      0.99963     2.27495    0.00597     3.28055
      C    4   -0.28909      0.99962     2.28197    0.00749     3.28909
      C    5   -0.19688      0.99958     2.18653    0.01077     3.19688
      C    6   -0.01625      0.99954     2.00488    0.01183     3.01625
      O    7   -0.27785      0.99985     3.26876    0.00924     4.27785
      C    8    0.42327      0.99964     1.55112    0.02598     2.57673
      O    9   -0.32229      0.99987     3.31731    0.00511     4.32229
      C   10   -0.15437      0.99952     2.14311    0.01174     3.15437
      C   11   -0.19236      0.99963     2.18380    0.00892     3.19236
      C   12   -0.19395      0.99965     2.18671    0.00760     3.19395
      C   13   -0.18976      0.99962     2.18174    0.00841     3.18976
      C   14   -0.10441      0.99958     2.09340    0.01143     3.10441
      C   15   -0.09134      0.99959     2.07947    0.01228     3.09134
      N   16   -0.43003      0.99976     2.92012    0.01014     3.93003
      H   17    0.11245      0.00000     0.38552    0.00202     0.38755
      H   18    0.09760      0.00000     0.40139    0.00100     0.40240
      H   19    0.09515      0.00000     0.40395    0.00090     0.40485
      H   20    0.09839      0.00000     0.40068    0.00093     0.40161
      H   21    0.09783      0.00000     0.40112    0.00104     0.40217
      H   22    0.09847      0.00000     0.40051    0.00101     0.40153
      H   23    0.10576      0.00000     0.39279    0.00145     0.39424
      H   24    0.09641      0.00000     0.40266    0.00093     0.40359
      H   25    0.09998      0.00000     0.39913    0.00089     0.40002
      H   26    0.10245      0.00000     0.39628    0.00127     0.39755
      H   27    0.10226      0.00000     0.39664    0.00110     0.39774
      H   28    0.09088      0.00000     0.40816    0.00095     0.40912
      H   29    0.09600      0.00000     0.40241    0.00159     0.40400
      H   30    0.11235      0.00000     0.38589    0.00176     0.38765
      H   31    0.10102      0.00000     0.39809    0.00089     0.39898
      H   32    0.10659      0.00000     0.39209    0.00132     0.39341
      H   33    0.09632      0.00000     0.40254    0.00114     0.40368
      H   34    0.09915      0.00000     0.39966    0.00119     0.40085
      H   35    0.10158      0.00000     0.39719    0.00123     0.39842
      H   36    0.09909      0.00000     0.39966    0.00126     0.40091
      H   37    0.10619      0.00000     0.39189    0.00192     0.39381
      H   38    0.09469      0.00000     0.40379    0.00152     0.40531
      H   39    0.08273      0.00000     0.41564    0.00163     0.41727
      H   40    0.17780      0.00000     0.32034    0.00186     0.32220
      H   41    0.18155      0.00000     0.31620    0.00225     0.31845
 =======================================================================
   * Total *   -0.00000     15.99428    46.80722    0.19850    63.00000

 Normal termination of Gaussian 16 at Thu Dec 10 22:29:45 2020.
