 Gaussian 16, Revision A.03,

 -----------------------------------------------------------
 # opt freq B3LYP/6-31G(d) empiricaldispersion=gd3bj scf=xqc
 -----------------------------------------------------------

 -------------------------------
 CID_144607040_JID_3227_neutraal
 -------------------------------
 Symbolic Z-matrix:
 Charge =  0 Multiplicity = 1

 SCF Done:  E(RB3LYP) =  -554.513291054     A.U. after   16 cycles
 SCF Done:  E(RB3LYP) =  -554.518044525     A.U. after   13 cycles
 SCF Done:  E(RB3LYP) =  -554.519646422     A.U. after   13 cycles
 SCF Done:  E(RB3LYP) =  -554.520654383     A.U. after   14 cycles
 SCF Done:  E(RB3LYP) =  -554.521411032     A.U. after   15 cycles
 SCF Done:  E(RB3LYP) =  -554.521834359     A.U. after   11 cycles
 SCF Done:  E(RB3LYP) =  -554.522081127     A.U. after   12 cycles
 SCF Done:  E(RB3LYP) =  -554.522167680     A.U. after   13 cycles
 SCF Done:  E(RB3LYP) =  -554.522216842     A.U. after   12 cycles
 SCF Done:  E(RB3LYP) =  -554.522267944     A.U. after   12 cycles
 SCF Done:  E(RB3LYP) =  -554.522278515     A.U. after   11 cycles
 SCF Done:  E(RB3LYP) =  -554.522281341     A.U. after    9 cycles
 SCF Done:  E(RB3LYP) =  -554.522281596     A.U. after    9 cycles
 Optimization completed.
    -- Stationary point found.
 Normal termination of Gaussian 16 at Wed Dec  9 22:28:39 2020.

 --------------------------------------------------------------------
 #N Geom=AllCheck Guess=TCheck SCRF=Check GenChk RB3LYP/6-31G(d) Freq
 --------------------------------------------------------------------

 Structure from the checkpoint file:  "JID_3227.chk"
 -------------------------------
 CID_144607040_JID_3227_neutraal
 -------------------------------
 Charge =  0 Multiplicity = 1

 SCF Done:  E(RB3LYP) =  -554.522281596     A.U. after    1 cycles

  Exact polarizability: 185.251   6.682 137.318   1.113  -1.238  53.526
 Approx polarizability: 299.765   8.464 238.894   2.710  -2.615  83.789

                      1                      2                      3
                      A                      A                      A
 Frequencies --     28.0503               118.3716               120.5053
 Red. masses --      8.8825                 3.7343                 6.5010
 Frc consts  --      0.0041                 0.0308                 0.0556
 IR Inten    --      2.4933                 0.0377                 4.2367

                      4                      5                      6
                      A                      A                      A
 Frequencies --    153.8947               170.2634               247.9754
 Red. masses --      2.8995                 4.0934                 7.0213
 Frc consts  --      0.0405                 0.0699                 0.2544
 IR Inten    --      1.3471                 1.1892                 5.1923

                      7                      8                      9
                      A                      A                      A
 Frequencies --    276.8980               364.1142               411.1991
 Red. masses --      2.2354                 3.0541                 7.4116
 Frc consts  --      0.1010                 0.2386                 0.7384
 IR Inten    --      1.0606                 1.7942                 4.1605

                     10                     11                     12
                      A                      A                      A
 Frequencies --    430.9478               468.9961               486.1034
 Red. masses --      4.2308                12.4330                 3.6558
 Frc consts  --      0.4629                 1.6113                 0.5090
 IR Inten    --      1.0055                 8.5717                 5.0904

                     13                     14                     15
                      A                      A                      A
 Frequencies --    505.0970               518.0135               519.7880
 Red. masses --      3.5212                 3.7846                 5.2480
 Frc consts  --      0.5293                 0.5983                 0.8354
 IR Inten    --      3.0157                 4.7035                 0.6578

                     16                     17                     18
                      A                      A                      A
 Frequencies --    626.7021               641.9343               705.6163
 Red. masses --      3.4727                 4.1465                 4.9084
 Frc consts  --      0.8036                 1.0067                 1.4399
 IR Inten    --      3.8348                 5.1437                14.1700

                     19                     20                     21
                      A                      A                      A
 Frequencies --    730.9180               755.4846               816.5510
 Red. masses --      1.4144                 2.8259                 1.5425
 Frc consts  --      0.4452                 0.9503                 0.6059
 IR Inten    --      8.9269                 3.9554                34.8824

                     22                     23                     24
                      A                      A                      A
 Frequencies --    836.7797               852.2119               854.8425
 Red. masses --      3.2351                 2.3773                 1.7675
 Frc consts  --      1.3346                 1.0173                 0.7610
 IR Inten    --      2.9678                20.4819                 5.1599

                     25                     26                     27
                      A                      A                      A
 Frequencies --    942.1685               970.8612               991.4003
 Red. masses --      2.6900                 1.2901                 4.4810
 Frc consts  --      1.4069                 0.7164                 2.5949
 IR Inten    --      2.4814                 1.0384                41.0249

                     28                     29                     30
                      A                      A                      A
 Frequencies --    992.5077              1006.3263              1046.2916
 Red. masses --      1.3048                 2.5117                 2.1212
 Frc consts  --      0.7573                 1.4987                 1.3681
 IR Inten    --      1.2438                 2.2733                 5.4253

                     31                     32                     33
                      A                      A                      A
 Frequencies --   1076.1774              1147.0488              1174.0690
 Red. masses --      2.1009                 3.6494                 2.1898
 Frc consts  --      1.4336                 2.8290                 1.7785
 IR Inten    --      1.0719                11.2878                44.8816

                     34                     35                     36
                      A                      A                      A
 Frequencies --   1191.9678              1195.5491              1220.3661
 Red. masses --      1.3074                 1.2618                 1.6303
 Frc consts  --      1.0944                 1.0626                 1.4306
 IR Inten    --     93.7133                40.6716                84.7140

                     37                     38                     39
                      A                      A                      A
 Frequencies --   1242.9846              1261.2062              1293.3968
 Red. masses --      1.9702                 1.4617                 1.4398
 Frc consts  --      1.7935                 1.3699                 1.4191
 IR Inten    --    120.1010                 1.9044                16.9437

                     40                     41                     42
                      A                      A                      A
 Frequencies --   1383.6706              1401.6008              1412.1404
 Red. masses --      1.5531                 1.6755                 2.4575
 Frc consts  --      1.7519                 1.9393                 2.8874
 IR Inten    --     15.4528                56.7156                 6.4107

                     43                     44                     45
                      A                      A                      A
 Frequencies --   1423.9797              1483.7278              1493.9155
 Red. masses --      1.6146                 2.0481                 1.0887
 Frc consts  --      1.9289                 2.6565                 1.4316
 IR Inten    --     20.1880                 8.0242                 2.7145

                     46                     47                     48
                      A                      A                      A
 Frequencies --   1504.2746              1600.9098              1635.5975
 Red. masses --      1.1105                 7.2013                 6.9345
 Frc consts  --      1.4806                10.8742                10.9300
 IR Inten    --      2.3041                 4.6692                28.8177

                     49                     50                     51
                      A                      A                      A
 Frequencies --   1677.9747              1724.4355              2370.7630
 Red. masses --      6.1982                 7.1182                12.6589
 Frc consts  --     10.2823                12.4714                41.9203
 IR Inten    --     18.7104                42.8930               341.9576

                     52                     53                     54
                      A                      A                      A
 Frequencies --   2974.1150              2989.2325              3098.8119
 Red. masses --      1.0739                 1.0714                 1.0884
 Frc consts  --      5.5968                 5.6404                 6.1578
 IR Inten    --     21.9335                41.8939                22.6825

                     55                     56                     57
                      A                      A                      A
 Frequencies --   3100.8981              3184.6881              3191.3652
 Red. masses --      1.0886                 1.0861                 1.0901
 Frc consts  --      6.1674                 6.4904                 6.5413
 IR Inten    --      5.2961                 0.1608                 5.1177

                     58                     59                     60
                      A                      A                      A
 Frequencies --   3196.7962              3210.5761              3228.5116
 Red. masses --      1.0894                 1.0951                 1.0948
 Frc consts  --      6.5595                 6.6505                 6.7236
 IR Inten    --     21.3221                27.3581                10.4473

 - Thermochemistry -
 -------------------
 Temperature   298.150 Kelvin.  Pressure   1.00000 Atm.
 Atom     1 has atomic number  6 and mass  12.00000

 Molecular mass:   171.06841 amu.
 Principal axes and moments of inertia in atomic units:
                           1         2         3
     Eigenvalues --  1190.586212984.016764122.30696
           X            0.99966   0.02613   0.00041
           Y           -0.02613   0.99966  -0.00003
           Z           -0.00041   0.00002   1.00000
 This molecule is an asymmetric top.
 Rotational symmetry number  1.
 Warning -- assumption of classical behavior for rotation
           may cause significant error
 Rotational temperatures (Kelvin)      0.07275     0.02903     0.02101
 Rotational constants (GHZ):           1.51584     0.60480     0.43780
 Zero-point vibrational energy     452676.3 (Joules/Mol)
                                  108.19223 (Kcal/Mol)
 Warning -- explicit consideration of  15 degrees of freedom as
           vibrations may cause significant error
 Vibrational temperatures:     40.36   170.31   173.38   221.42   244.97
          (Kelvin)            356.78   398.39   523.88   591.62   620.04
                              674.78   699.39   726.72   745.31   747.86
                              901.68   923.60  1015.22  1051.63  1086.97
                             1174.83  1203.94  1226.14  1229.93  1355.57
                             1396.85  1426.40  1428.00  1447.88  1505.38
                             1548.38  1650.35  1689.22  1714.98  1720.13
                             1755.83  1788.38  1814.59  1860.91  1990.79
                             2016.59  2031.76  2048.79  2134.75  2149.41
                             2164.32  2303.35  2353.26  2414.23  2481.08
                             3411.00  4279.09  4300.84  4458.50  4461.50
                             4582.06  4591.66  4599.48  4619.30  4645.11

 Zero-point correction=                           0.172415 (Hartree/Particle)
 Thermal correction to Energy=                    0.183058
 Thermal correction to Enthalpy=                  0.184002
 Thermal correction to Gibbs Free Energy=         0.135292
 Sum of electronic and zero-point Energies=           -554.349866
 Sum of electronic and thermal Energies=              -554.339224
 Sum of electronic and thermal Enthalpies=            -554.338280
 Sum of electronic and thermal Free Energies=         -554.386989

                     E (Thermal)             CV                S
                      KCal/Mol        Cal/Mol-Kelvin    Cal/Mol-Kelvin
 Total                  114.870             41.329            102.518
 Electronic               0.000              0.000              0.000
 Translational            0.889              2.981             41.318
 Rotational               0.889              2.981             31.061
 Vibrational            113.093             35.367             30.139
 Vibration     1          0.593              1.984              5.963
 Vibration     2          0.609              1.934              3.127
 Vibration     3          0.609              1.932              3.092
 Vibration     4          0.619              1.898              2.624
 Vibration     5          0.625              1.879              2.433
 Vibration     6          0.662              1.766              1.745
 Vibration     7          0.678              1.716              1.553
 Vibration     8          0.738              1.546              1.104
 Vibration     9          0.775              1.446              0.922
 Vibration    10          0.792              1.403              0.856
 Vibration    11          0.826              1.319              0.740
 Vibration    12          0.842              1.281              0.694
 Vibration    13          0.860              1.239              0.646
 Vibration    14          0.873              1.210              0.615
 Vibration    15          0.875              1.206              0.610

 Optimization completed.
    -- Stationary point found.
 Normal termination of Gaussian 16 at Wed Dec  9 22:34:12 2020.

 ----------------------------------------------------------------------
 # B3LYP/6-311++G(d,p) empiricaldispersion=gd3bj scf=xqc pop=npa geom=c
 heck
 ----------------------------------------------------------------------

 ---------------------------------------
 CID_144607040_JID_3227_Energie_neutraal
 ---------------------------------------
 Structure from the checkpoint file:  "JID_3227.chk"
 Charge =  0 Multiplicity = 1

 SCF Done:  E(RB3LYP) =  -554.667767559     A.U. after   16 cycles
 Normal termination of Gaussian 16 at Wed Dec  9 22:36:40 2020.

 ----------------------------------------------------------------------
 # B3LYP/6-311++G(d,p) empiricaldispersion=gd3bj scf=xqc pop=npa geom=c
 heck
 ----------------------------------------------------------------------

 -------------------------------------
 CID_144607040_JID_3227_Energie_kation
 -------------------------------------
 Structure from the checkpoint file:  "JID_3227.chk"
 Charge =  1 Multiplicity = 2

 SCF Done:  E(UB3LYP) =  -554.401439265     A.U. after   20 cycles
 Normal termination of Gaussian 16 at Wed Dec  9 22:41:09 2020.
 Gaussian 16:  ES64L-G16RevA.03 25-Dec-2016

 ----------------------------------------------------------------------
 # B3LYP/6-311++G(d,p) empiricaldispersion=gd3bj scf=xqc pop=npa geom=c
 heck
 ----------------------------------------------------------------------

 ------------------------------------
 CID_144607040_JID_3227_Energie_anion
 ------------------------------------
 Structure from the checkpoint file:  "JID_3227.chk"
 Charge = -1 Multiplicity = 2

                         Standard orientation:
 ---------------------------------------------------------------------
 Center     Atomic      Atomic             Coordinates (Angstroms)
 Number     Number       Type             X           Y           Z
 ---------------------------------------------------------------------
      1          6           0        0.501402    2.387777    0.314485
      2          6           0        1.435782    1.327329   -0.284789
      3          6           0        0.891630   -0.040687   -0.018163
      4          6           0       -0.428451   -0.326513    0.060597
      5          6           0       -0.956914   -1.673563    0.170974
      6          6           0       -2.289630   -1.898122    0.087897
      7          6           0       -3.225706   -0.807439   -0.101217
      8          6           0       -2.793562    0.473245   -0.168523
      9          6           0       -1.385516    0.806246   -0.042712
     10          6           0       -0.944769    2.085774    0.035078
     11          8           0        1.782698   -1.142070   -0.010725
     12          6           0        3.058793   -0.935786   -0.019631
     13          7           0        4.218606   -0.816567   -0.027855
     14          1           0        0.781827    3.376374   -0.062162
     15          1           0        0.649315    2.419370    1.408399
     16          1           0        1.522797    1.464245   -1.376480
     17          1           0        2.444847    1.440391    0.124244
     18          1           0       -0.258589   -2.493599    0.293630
     19          1           0       -2.673733   -2.911827    0.154218
     20          1           0       -4.285346   -1.033218   -0.175756
     21          1           0       -3.495364    1.294558   -0.286925
     22          1           0       -1.655933    2.906658   -0.002368
 ---------------------------------------------------------------------

 SCF Done:  E(UB3LYP) =  -554.699512134     A.U. after   22 cycles

 The electronic state is 2-A.
 Alpha  occ. eigenvalues --  -19.09130 -14.19110 -10.14741 -10.07361 -10.05048
 Alpha  occ. eigenvalues --  -10.04348 -10.02843 -10.02548 -10.01507 -10.01453
 Alpha  occ. eigenvalues --  -10.01321 -10.01309 -10.00257  -1.00755  -0.78964
 Alpha  occ. eigenvalues --   -0.71890  -0.67088  -0.63479  -0.60141  -0.57823
 Alpha  occ. eigenvalues --   -0.52553  -0.48567  -0.46894  -0.40808  -0.38539
 Alpha  occ. eigenvalues --   -0.37789  -0.35748  -0.33517  -0.33290  -0.31497
 Alpha  occ. eigenvalues --   -0.28044  -0.27292  -0.26768  -0.25910  -0.25476
 Alpha  occ. eigenvalues --   -0.24493  -0.22581  -0.21674  -0.21042  -0.19724
 Alpha  occ. eigenvalues --   -0.18795  -0.18081  -0.13556  -0.12685  -0.04464
 Alpha  occ. eigenvalues --    0.02821
 Alpha virt. eigenvalues --    0.09111   0.09700   0.10262   0.11327   0.11662
 Alpha virt. eigenvalues --    0.11838   0.13440   0.13888   0.14297   0.14599
 Alpha virt. eigenvalues --    0.15476   0.16141   0.16643   0.17130   0.17565

  Beta  occ. eigenvalues --  -19.09105 -14.19086 -10.14736 -10.06851 -10.05074
  Beta  occ. eigenvalues --  -10.04373 -10.02902 -10.02618 -10.01405 -10.01365
  Beta  occ. eigenvalues --  -10.01131 -10.01102  -9.99797  -1.00622  -0.78917
  Beta  occ. eigenvalues --   -0.71510  -0.66706  -0.62945  -0.59929  -0.57357
  Beta  occ. eigenvalues --   -0.52273  -0.48338  -0.46417  -0.40448  -0.38294
  Beta  occ. eigenvalues --   -0.37403  -0.35290  -0.33323  -0.33074  -0.31235
  Beta  occ. eigenvalues --   -0.27848  -0.27148  -0.26596  -0.25816  -0.25278
  Beta  occ. eigenvalues --   -0.24043  -0.21792  -0.21457  -0.20914  -0.19303
  Beta  occ. eigenvalues --   -0.18567  -0.17959  -0.12329  -0.11543  -0.02266
  Beta virt. eigenvalues --    0.08910   0.09116   0.09683   0.10267   0.11319
  Beta virt. eigenvalues --    0.11674   0.11830   0.13436   0.13889   0.14294
  Beta virt. eigenvalues --    0.15403   0.15687   0.16270   0.17026   0.17351

 Mulliken charges and spin densities:
               1          2
     1  C   -0.513608  -0.014385
     2  C   -0.426887  -0.018849
     3  C   -0.115550   0.301873
     4  C    0.487561  -0.017739
     5  C   -0.405731   0.092093
     6  C   -0.278561   0.123586
     7  C   -0.316095   0.067428
     8  C   -0.303668   0.151600
     9  C    0.164097  -0.088158
    10  C   -0.076332   0.381962
    11  O    0.008765   0.002566
    12  C    0.256892   0.005669
    13  N   -0.374611   0.011504
    14  H    0.105651   0.013095
    15  H    0.092618   0.016079
    16  H    0.095509   0.019224
    17  H    0.121503   0.013792
    18  H    0.104118  -0.012252
    19  H    0.096366  -0.007876
    20  H    0.097577  -0.004312
    21  H    0.066157  -0.014452
    22  H    0.114229  -0.022448
 Sum of Mulliken charges =  -1.00000   1.00000

 Dipole moment (field-independent basis, Debye):
    X=             -0.9857    Y=              1.2563    Z=              0.0302  Tot=              1.5971
 Quadrupole moment (field-independent basis, Debye-Ang):
   XX=           -126.2414   YY=            -89.2488   ZZ=            -85.7573
   XY=              2.6191   XZ=              0.2164   YZ=             -0.0012

 Summary of Natural Population Analysis:

                                       Natural Population
                Natural  -----------------------------------------------
    Atom  No    Charge         Core      Valence    Rydberg      Total
 -----------------------------------------------------------------------
      C    1   -0.19815      0.99964     2.19084    0.00767     3.19815
      C    2   -0.21607      0.99961     2.20959    0.00688     3.21607
      C    3    0.23974      0.99928     1.74967    0.01131     2.76026
      C    4   -0.07613      0.99942     2.06742    0.00929     3.07613
      C    5   -0.06358      0.99942     2.05465    0.00951     3.06358
      C    6   -0.09492      0.99959     2.08418    0.01116     3.09492
      C    7   -0.11471      0.99956     2.10460    0.01055     3.11471
      C    8   -0.04884      0.99953     2.03977    0.00954     3.04884
      C    9   -0.05527      0.99947     2.04684    0.00896     3.05527
      C   10    0.00484      0.99951     1.98591    0.00974     2.99516
      O   11   -0.24857      0.99981     3.23951    0.00925     4.24857
      C   12    0.29569      0.99956     1.68550    0.01925     2.70431
      N   13   -0.24818      0.99978     2.74001    0.00839     3.74818
      H   14    0.09456      0.00000     0.40414    0.00130     0.40544
      H   15    0.09514      0.00000     0.40274    0.00212     0.40486
      H   16    0.09695      0.00000     0.39981    0.00324     0.40305
      H   17    0.10572      0.00000     0.39302    0.00126     0.39428
      H   18    0.09319      0.00000     0.40513    0.00168     0.40681
      H   19    0.08612      0.00000     0.41272    0.00116     0.41388
      H   20    0.08665      0.00000     0.41221    0.00113     0.41335
      H   21    0.08527      0.00000     0.41301    0.00172     0.41473
      H   22    0.08055      0.00000     0.41782    0.00163     0.41945
 =======================================================================
   * Total *    0.00000     12.99417    31.85910    0.14673    45.00000

 Normal termination of Gaussian 16 at Wed Dec  9 22:46:19 2020.
