 Gaussian 16, Revision A.03,

 ----------------------------------------------------------------------
 # opt=(cartesian,calcfc) freq B3LYP/6-31G(d) empiricaldispersion=gd3bj
  scf=xqc
 ----------------------------------------------------------------------

 -------------------------------
 CID_130573248_JID_4203_neutraal
 -------------------------------
 Symbolic Z-matrix:
 Charge =  0 Multiplicity = 1

 SCF Done:  E(RB3LYP) =  -607.304229280     A.U. after   14 cycles
 SCF Done:  E(RB3LYP) =  -607.306348606     A.U. after   11 cycles
 SCF Done:  E(RB3LYP) =  -607.308541098     A.U. after   12 cycles
 SCF Done:  E(RB3LYP) =  -607.309071213     A.U. after   12 cycles
 SCF Done:  E(RB3LYP) =  -607.309479878     A.U. after   12 cycles
 SCF Done:  E(RB3LYP) =  -607.309542483     A.U. after   12 cycles
 SCF Done:  E(RB3LYP) =  -607.309876828     A.U. after   12 cycles
 SCF Done:  E(RB3LYP) =  -607.310034363     A.U. after   11 cycles
 SCF Done:  E(RB3LYP) =  -607.310223099     A.U. after   11 cycles
 SCF Done:  E(RB3LYP) =  -607.310055468     A.U. after   12 cycles
 SCF Done:  E(RB3LYP) =  -607.310749238     A.U. after    7 cycles
 SCF Done:  E(RB3LYP) =  -607.310749202     A.U. after    7 cycles
 SCF Done:  E(RB3LYP) =  -607.310748599     A.U. after    8 cycles
 SCF Done:  E(RB3LYP) =  -607.310749239     A.U. after    7 cycles
 Optimization completed.
    -- Stationary point found.
 Normal termination of Gaussian 16 at Thu Dec 17 20:28:12 2020.

 --------------------------------------------------------------------
 #N Geom=AllCheck Guess=TCheck SCRF=Check GenChk RB3LYP/6-31G(d) Freq
 --------------------------------------------------------------------

 Structure from the checkpoint file:  "JID_4203.chk"
 -------------------------------
 CID_130573248_JID_4203_neutraal
 -------------------------------
 Charge =  0 Multiplicity = 1

 SCF Done:  E(RB3LYP) =  -607.310749239     A.U. after    1 cycles

  Exact polarizability: 133.358  16.098 122.066 -22.156   8.520  94.909
 Approx polarizability: 190.786  28.116 202.058 -47.891  18.917 168.422

                      1                      2                      3
                      A                      A                      A
 Frequencies --     27.8867                44.2382                53.3748
 Red. masses --      4.2961                 4.6019                 4.9076
 Frc consts  --      0.0020                 0.0053                 0.0082
 IR Inten    --      3.1367                 1.7300                 1.2134

                      4                      5                      6
                      A                      A                      A
 Frequencies --     96.4858               134.5635               210.7851
 Red. masses --      3.7244                 5.4795                 4.0964
 Frc consts  --      0.0204                 0.0585                 0.1072
 IR Inten    --      0.9371                 0.1731                 1.2543

                      7                      8                      9
                      A                      A                      A
 Frequencies --    247.3293               289.7332               318.3720
 Red. masses --      4.8473                 1.9564                 1.5598
 Frc consts  --      0.1747                 0.0968                 0.0931
 IR Inten    --      2.5401                14.1808                40.3972

                     10                     11                     12
                      A                      A                      A
 Frequencies --    365.1702               416.7504               430.3304
 Red. masses --      2.3312                 3.4660                 3.9730
 Frc consts  --      0.1832                 0.3547                 0.4335
 IR Inten    --      3.0228                 3.0994                 0.7171

                     13                     14                     15
                      A                      A                      A
 Frequencies --    460.8914               470.8760               532.1602
 Red. masses --      4.2136                 1.5874                 2.7590
 Frc consts  --      0.5274                 0.2074                 0.4604
 IR Inten    --      9.6471                59.3676                14.0361

                     16                     17                     18
                      A                      A                      A
 Frequencies --    622.4711               647.8869               660.7996
 Red. masses --      5.2851                 5.7528                 2.6971
 Frc consts  --      1.2065                 1.4228                 0.6939
 IR Inten    --      7.3736                 3.2813                 8.7791

                     19                     20                     21
                      A                      A                      A
 Frequencies --    671.7480               702.7662               765.0863
 Red. masses --      2.4298                 2.7818                 1.8681
 Frc consts  --      0.6460                 0.8095                 0.6443
 IR Inten    --      7.6830                43.0602                 9.1947

                     22                     23                     24
                      A                      A                      A
 Frequencies --    775.2056               786.7318               858.3429
 Red. masses --      1.4663                 2.0638                 3.7197
 Frc consts  --      0.5192                 0.7526                 1.6146
 IR Inten    --      5.0984                24.0751                 5.1191

                     25                     26                     27
                      A                      A                      A
 Frequencies --    879.1590               905.7873               912.4071
 Red. masses --      1.3190                 1.3529                 1.6144
 Frc consts  --      0.6006                 0.6540                 0.7919
 IR Inten    --     16.8781                 4.7520               151.8792

                     28                     29                     30
                      A                      A                      A
 Frequencies --    956.8107               962.4294               976.3602
 Red. masses --      5.6719                 2.7846                 1.5480
 Frc consts  --      3.0593                 1.5197                 0.8695
 IR Inten    --      8.5451                54.3670                 1.5511

                     31                     32                     33
                      A                      A                      A
 Frequencies --    984.5891              1003.1710              1013.9199
 Red. masses --      1.9914                 1.2866                 6.8591
 Frc consts  --      1.1374                 0.7629                 4.1546
 IR Inten    --     31.9615                 0.2123                 6.4287

                     34                     35                     36
                      A                      A                      A
 Frequencies --   1038.5012              1077.2895              1080.3117
 Red. masses --      2.0283                 2.4074                 2.2789
 Frc consts  --      1.2888                 1.6461                 1.5670
 IR Inten    --      2.8562                27.7374                 3.5317

                     37                     38                     39
                      A                      A                      A
 Frequencies --   1112.7222              1126.0957              1167.1846
 Red. masses --      1.8003                 2.1405                 1.3485
 Frc consts  --      1.3133                 1.5993                 1.0824
 IR Inten    --     12.2635                 2.1120                 7.7498

                     40                     41                     42
                      A                      A                      A
 Frequencies --   1173.2058              1186.5688              1226.5185
 Red. masses --      1.7409                 1.1226                 1.5348
 Frc consts  --      1.4118                 0.9312                 1.3604
 IR Inten    --     10.1092                 3.3909                 1.2991

                     43                     44                     45
                      A                      A                      A
 Frequencies --   1245.0588              1267.3110              1316.6138
 Red. masses --      1.5255                 2.4192                 4.3028
 Frc consts  --      1.3933                 2.2892                 4.3946
 IR Inten    --      0.4978                 4.5872                 1.0235

                     46                     47                     48
                      A                      A                      A
 Frequencies --   1323.4865              1340.6584              1347.4954
 Red. masses --      2.0930                 1.5171                 2.2360
 Frc consts  --      2.1600                 1.6066                 2.3921
 IR Inten    --      4.3054                 7.2140                16.3494

                     49                     50                     51
                      A                      A                      A
 Frequencies --   1373.5218              1394.1799              1417.0407
 Red. masses --      1.4591                 1.6101                 3.0261
 Frc consts  --      1.6218                 1.8439                 3.5802
 IR Inten    --      3.0864                 3.4901                 2.3029

                     52                     53                     54
                      A                      A                      A
 Frequencies --   1439.0420              1480.9922              1503.3807
 Red. masses --      2.2149                 2.1634                 1.5409
 Frc consts  --      2.7024                 2.7958                 2.0519
 IR Inten    --     17.0662                20.9949                 8.4152

                     55                     56                     57
                      A                      A                      A
 Frequencies --   1508.8030              1528.1091              1619.9403
 Red. masses --      1.4364                 2.2712                 4.1969
 Frc consts  --      1.9266                 3.1248                 6.4890
 IR Inten    --      4.8912                22.5633                 6.1621

                     58                     59                     60
                      A                      A                      A
 Frequencies --   1632.1618              1651.4119              1696.2916
 Red. masses --      5.6657                 5.4714                 1.0915
 Frc consts  --      8.8926                 8.7915                 1.8505
 IR Inten    --     17.6988                42.6030                18.5372

                     61                     62                     63
                      A                      A                      A
 Frequencies --   3034.2051              3062.1206              3115.1571
 Red. masses --      1.0838                 1.0591                 1.1052
 Frc consts  --      5.8788                 5.8508                 6.3189
 IR Inten    --     21.9297                23.3270                16.8345

                     64                     65                     66
                      A                      A                      A
 Frequencies --   3171.7510              3186.7058              3201.2772
 Red. masses --      1.0889                 1.0874                 1.0930
 Frc consts  --      6.4540                 6.5063                 6.5995
 IR Inten    --     24.1761                 4.6923                21.7135

                     67                     68                     69
                      A                      A                      A
 Frequencies --   3215.9748              3259.7149              3276.2297
 Red. masses --      1.0974                 1.0959                 1.0969
 Frc consts  --      6.6874                 6.8608                 6.9370
 IR Inten    --     19.6889                 5.3339                 1.4135

                     70                     71                     72
                      A                      A                      A
 Frequencies --   3451.4356              3538.3957              3671.6574
 Red. masses --      1.0494                 1.0918                 1.0816
 Frc consts  --      7.3655                 8.0542                 8.5908
 IR Inten    --      2.2905                 0.4515                73.2485

 - Thermochemistry -
 -------------------
 Temperature   298.150 Kelvin.  Pressure   1.00000 Atm.
 Atom     1 has atomic number  6 and mass  12.00000

 Molecular mass:   188.10620 amu.
 Principal axes and moments of inertia in atomic units:
                           1         2         3
     Eigenvalues --  1652.870963344.111294306.03240
           X            0.99957   0.02601  -0.01364
           Y           -0.02587   0.99961   0.01038
           Z            0.01390  -0.01003   0.99985
 This molecule is an asymmetric top.
 Rotational symmetry number  1.
 Warning -- assumption of classical behavior for rotation
           may cause significant error
 Rotational temperatures (Kelvin)      0.05240     0.02590     0.02011
 Rotational constants (GHZ):           1.09188     0.53968     0.41912
 Zero-point vibrational energy     566091.7 (Joules/Mol)
                                  135.29916 (Kcal/Mol)
 Warning -- explicit consideration of  15 degrees of freedom as
           vibrations may cause significant error
 Vibrational temperatures:     40.12    63.65    76.79   138.82   193.61
          (Kelvin)            303.27   355.85   416.86   458.07   525.40
                              599.61   619.15   663.12   677.49   765.66
                              895.60   932.16   950.74   966.50  1011.12
                             1100.79  1115.35  1131.93  1234.96  1264.91
                             1303.23  1312.75  1376.64  1384.72  1404.76
                             1416.60  1443.34  1458.80  1494.17  1549.98
                             1554.33  1600.96  1620.20  1679.32  1687.98
                             1707.21  1764.69  1791.36  1823.38  1894.31
                             1904.20  1928.91  1938.75  1976.19  2005.91
                             2038.81  2070.46  2130.82  2163.03  2170.83
                             2198.61  2330.73  2348.32  2376.01  2440.59
                             4365.54  4405.71  4482.02  4563.44  4584.96
                             4605.92  4627.07  4690.00  4713.76  4965.85
                             5090.96  5282.70

 Zero-point correction=                           0.215613 (Hartree/Particle)
 Thermal correction to Energy=                    0.227598
 Thermal correction to Enthalpy=                  0.228542
 Thermal correction to Gibbs Free Energy=         0.175678
 Sum of electronic and zero-point Energies=           -607.095136
 Sum of electronic and thermal Energies=              -607.083151
 Sum of electronic and thermal Enthalpies=            -607.082207
 Sum of electronic and thermal Free Energies=         -607.135071

                     E (Thermal)             CV                S
                      KCal/Mol        Cal/Mol-Kelvin    Cal/Mol-Kelvin
 Total                  142.820             46.036            111.262
 Electronic               0.000              0.000              0.000
 Translational            0.889              2.981             41.601
 Rotational               0.889              2.981             31.543
 Vibrational            141.042             40.075             38.117
 Vibration     1          0.593              1.984              5.974
 Vibration     2          0.595              1.980              5.060
 Vibration     3          0.596              1.976              4.688
 Vibration     4          0.603              1.952              3.524
 Vibration     5          0.613              1.919              2.880
 Vibration     6          0.643              1.824              2.037
 Vibration     7          0.661              1.767              1.750
 Vibration     8          0.686              1.693              1.476
 Vibration     9          0.705              1.638              1.318
 Vibration    10          0.738              1.544              1.100
 Vibration    11          0.780              1.434              0.903
 Vibration    12          0.792              1.404              0.858
 Vibration    13          0.819              1.337              0.764
 Vibration    14          0.828              1.315              0.735
 Vibration    15          0.887              1.179              0.582

 Normal termination of Gaussian 16 at Thu Dec 17 20:35:00 2020.

 ----------------------------------------------------------------------
 # B3LYP/6-311++G(d,p) empiricaldispersion=gd3bj scf=xqc pop=npa geom=c
 heck
 ----------------------------------------------------------------------

 ---------------------------------------
 CID_130573248_JID_4203_Energie_neutraal
 ---------------------------------------
 Structure from the checkpoint file:  "JID_4203.chk"
 Charge =  0 Multiplicity = 1

 SCF Done:  E(RB3LYP) =  -607.481954457     A.U. after   15 cycles
 Normal termination of Gaussian 16 at Thu Dec 17 20:37:26 2020.

 ----------------------------------------------------------------------
 # B3LYP/6-311++G(d,p) empiricaldispersion=gd3bj scf=xqc pop=npa geom=c
 heck
 ----------------------------------------------------------------------

 -------------------------------------
 CID_130573248_JID_4203_Energie_kation
 -------------------------------------
 Structure from the checkpoint file:  "JID_4203.chk"
 Charge =  1 Multiplicity = 2

 SCF Done:  E(UB3LYP) =  -607.173665251     A.U. after   33 cycles
 SCF Done:  E(UB3LYP) =  -607.173665251     a.u. after    1 cycles
 Normal termination of Gaussian 16 at Thu Dec 17 20:44:32 2020.
 Gaussian 16:  ES64L-G16RevA.03 25-Dec-2016

 ----------------------------------------------------------------------
 # B3LYP/6-311++G(d,p) empiricaldispersion=gd3bj scf=xqc pop=npa geom=c
 heck
 ----------------------------------------------------------------------

 ------------------------------------
 CID_130573248_JID_4203_Energie_anion
 ------------------------------------
 Structure from the checkpoint file:  "JID_4203.chk"
 Charge = -1 Multiplicity = 2

                         Standard orientation:
 ---------------------------------------------------------------------
 Center     Atomic      Atomic             Coordinates (Angstroms)
 Number     Number       Type             X           Y           Z
 ---------------------------------------------------------------------
      1          6           0       -3.090575    0.055866    0.985671
      2          6           0       -3.294928   -0.977481    0.071646
      3          6           0       -2.456132   -1.043945   -1.039871
      4          7           0       -1.458089   -0.183902   -1.273454
      5          6           0       -1.255201    0.802446   -0.385849
      6          6           0       -2.058738    0.959960    0.751924
      7          6           0       -0.076542    1.709056   -0.628849
      8          6           0        1.099143    1.436137    0.341441
      9          6           0        1.568160    0.001605    0.276031
     10          6           0        2.674877   -0.499283   -0.387740
     11          7           0        2.672427   -1.844393   -0.186251
     12          7           0        1.637146   -2.266781    0.571161
     13          6           0        0.966175   -1.150353    0.849065
     14          7           0        2.136027    2.443291    0.079193
     15          1           0       -3.724044    0.155560    1.862895
     16          1           0       -4.084372   -1.709321    0.211253
     17          1           0       -2.587728   -1.829982   -1.781435
     18          1           0       -1.868537    1.778564    1.440559
     19          1           0        0.265987    1.553681   -1.657173
     20          1           0       -0.358409    2.761693   -0.511936
     21          1           0        0.730953    1.625357    1.358756
     22          1           0        3.445032   -0.012625   -0.968188
     23          1           0        3.341163   -2.522240   -0.517680
     24          1           0        0.065797   -1.201584    1.446656
     25          1           0        2.947271    2.250330    0.665697
     26          1           0        2.456876    2.349017   -0.884759
 ---------------------------------------------------------------------

 SCF Done:  E(UB3LYP) =  -607.471067872     A.U. after   33 cycles
 SCF Done:  E(UB3LYP) =  -607.471067872     a.u. after    1 cycles

 The electronic state is 2-A.
 Alpha  occ. eigenvalues --  -14.27437 -14.22157 -14.19419 -14.19197 -10.10828
 Alpha  occ. eigenvalues --  -10.10439 -10.09630 -10.09548 -10.07883 -10.07794
 Alpha  occ. eigenvalues --  -10.07504 -10.07216 -10.06648 -10.06123  -0.93624
 Alpha  occ. eigenvalues --   -0.83514  -0.79300  -0.70846  -0.69712  -0.68718
 Alpha  occ. eigenvalues --   -0.67021  -0.61562  -0.54589  -0.52524  -0.50245
 Alpha  occ. eigenvalues --   -0.49121  -0.46087  -0.43733  -0.41532  -0.38859
 Alpha  occ. eigenvalues --   -0.38060  -0.36465  -0.34756  -0.33775  -0.32935
 Alpha  occ. eigenvalues --   -0.32453  -0.30850  -0.30295  -0.29279  -0.28391
 Alpha  occ. eigenvalues --   -0.26520  -0.25133  -0.24703  -0.19443  -0.18510
 Alpha  occ. eigenvalues --   -0.15832  -0.15270  -0.14891  -0.14773  -0.13236
 Alpha  occ. eigenvalues --    0.04492
 Alpha virt. eigenvalues --    0.05981   0.06636   0.07598   0.08075   0.08135
 Alpha virt. eigenvalues --    0.09160   0.09816   0.10633   0.10988   0.11208
 Alpha virt. eigenvalues --    0.11895   0.12797   0.13085   0.14156   0.15120

  Beta  occ. eigenvalues --  -14.27401 -14.22157 -14.19391 -14.19037 -10.10824
  Beta  occ. eigenvalues --  -10.10438 -10.09581 -10.09511 -10.07792 -10.07734
  Beta  occ. eigenvalues --  -10.07514 -10.07185 -10.06643 -10.06126  -0.93593
  Beta  occ. eigenvalues --   -0.83300  -0.79253  -0.70800  -0.69484  -0.68646
  Beta  occ. eigenvalues --   -0.66963  -0.61487  -0.54540  -0.52311  -0.50140
  Beta  occ. eigenvalues --   -0.49066  -0.46040  -0.43644  -0.41462  -0.38793
  Beta  occ. eigenvalues --   -0.37986  -0.36400  -0.34680  -0.33728  -0.32905
  Beta  occ. eigenvalues --   -0.32415  -0.30796  -0.30038  -0.29210  -0.28345
  Beta  occ. eigenvalues --   -0.26296  -0.25080  -0.24673  -0.19421  -0.17758
  Beta  occ. eigenvalues --   -0.15691  -0.15174  -0.14765  -0.14626  -0.13213
  Beta virt. eigenvalues --    0.06605   0.07607   0.07817   0.07979   0.08158
  Beta virt. eigenvalues --    0.08954   0.09473   0.09968   0.10707   0.11101
  Beta virt. eigenvalues --    0.11582   0.12259   0.12857   0.13294   0.14281

 Mulliken charges and spin densities:
               1          2
     1  C   -0.337089   0.169493
     2  C    0.545374  -0.735101
     3  C   -0.396363   0.400717
     4  N    0.052559   0.086527
     5  C   -0.648478   0.812652
     6  C   -0.052224  -0.175885
     7  C    0.495078  -1.217712
     8  C    0.922305  -1.569673
     9  C   -0.158355   0.838819
    10  C    1.377867  -1.247141
    11  N    0.103214  -0.220941
    12  N   -0.190382   0.146098
    13  C   -1.308565   0.211951
    14  N   -0.249914   0.025200
    15  H   -0.293926   0.456511
    16  H   -0.046836   0.200286
    17  H    0.071141   0.093266
    18  H    0.033992   0.113460
    19  H    0.126413   0.034225
    20  H    0.146503   0.038043
    21  H    0.114938   0.084814
    22  H   -1.450493   1.628699
    23  H   -0.189549   0.528104
    24  H    0.219019  -0.068339
    25  H   -0.033850   0.271311
    26  H    0.147621   0.094618
 Sum of Mulliken charges =  -1.00000   1.00000

 Dipole moment (field-independent basis, Debye):
    X=             -5.7847    Y=              1.4305    Z=              1.6112  Tot=              6.1729
 Quadrupole moment (field-independent basis, Debye-Ang):
   XX=           -153.5973   YY=           -120.4239   ZZ=           -109.4426
   XY=              1.4931   XZ=              8.9311   YZ=              1.1033

 Summary of Natural Population Analysis:

                                       Natural Population
                Natural  -----------------------------------------------
    Atom  No    Charge         Core      Valence    Rydberg      Total
 -----------------------------------------------------------------------
      C    1   -0.06217      0.99957     2.05237    0.01023     3.06217
      C    2   -0.13422      0.99956     2.12493    0.00973     3.13422
      C    3    0.03622      0.99959     1.95037    0.01383     2.96378
      N    4   -0.21799      0.99968     2.70716    0.01115     3.71799
      C    5    0.10966      0.99953     1.87648    0.01432     2.89034
      C    6   -0.12301      0.99950     2.11478    0.00873     3.12301
      C    7   -0.20028      0.99957     2.19159    0.00911     3.20028
      C    8   -0.01216      0.99956     2.00070    0.01190     3.01216
      C    9   -0.08479      0.99950     2.07219    0.01309     3.08479
      C   10   -0.01020      0.99950     1.99678    0.01392     3.01020
      N   11   -0.16784      0.99970     2.65354    0.01460     3.66784
      N   12   -0.15662      0.99974     2.64355    0.01334     3.65662
      C   13   -0.00847      0.99957     1.99489    0.01401     3.00847
      N   14   -0.41880      0.99978     2.90951    0.00952     3.91880
      H   15    0.09785      0.00000     0.40121    0.00095     0.40215
      H   16    0.10045      0.00000     0.39869    0.00086     0.39955
      H   17    0.08685      0.00000     0.41213    0.00101     0.41315
      H   18    0.10039      0.00000     0.39854    0.00108     0.39961
      H   19    0.10679      0.00000     0.39147    0.00174     0.39321
      H   20    0.10481      0.00000     0.39412    0.00107     0.39519
      H   21    0.09199      0.00000     0.40594    0.00208     0.40801
      H   22    0.10971      0.00000     0.38274    0.00755     0.39029
      H   23    0.20170      0.00000     0.29294    0.00536     0.29830
      H   24    0.10033      0.00000     0.39816    0.00150     0.39967
      H   25    0.17713      0.00000     0.32103    0.00184     0.32287
      H   26    0.17267      0.00000     0.32524    0.00210     0.32733
 =======================================================================
   * Total *    0.00000     13.99436    35.81103    0.19461    50.00000

 Normal termination of Gaussian 16 at Thu Dec 17 20:51:45 2020.
