 Gaussian 16, Revision A.03,

 -----------------------------------------------------------
 # opt freq B3LYP/6-31G(d) empiricaldispersion=gd3bj scf=xqc
 -----------------------------------------------------------

 -------------------------------
 CID_103470773_JID_9848_neutraal
 -------------------------------
 Symbolic Z-matrix:
 Charge =  0 Multiplicity = 1

 SCF Done:  E(RB3LYP) =  -1515.63104502     A.U. after   16 cycles
 SCF Done:  E(RB3LYP) =  -1515.63858139     A.U. after   13 cycles
 SCF Done:  E(RB3LYP) =  -1515.63987553     A.U. after   13 cycles
 SCF Done:  E(RB3LYP) =  -1515.64010323     A.U. after   12 cycles
 SCF Done:  E(RB3LYP) =  -1515.64020315     A.U. after   12 cycles
 SCF Done:  E(RB3LYP) =  -1515.64024938     A.U. after   12 cycles
 SCF Done:  E(RB3LYP) =  -1515.64027599     A.U. after   12 cycles
 SCF Done:  E(RB3LYP) =  -1515.64028428     A.U. after   11 cycles
 SCF Done:  E(RB3LYP) =  -1515.64028947     A.U. after   11 cycles
 SCF Done:  E(RB3LYP) =  -1515.64029176     A.U. after   11 cycles
 SCF Done:  E(RB3LYP) =  -1515.64029767     A.U. after   11 cycles
 SCF Done:  E(RB3LYP) =  -1515.64029856     A.U. after   11 cycles
 SCF Done:  E(RB3LYP) =  -1515.64029870     A.U. after    8 cycles
 SCF Done:  E(RB3LYP) =  -1515.64029875     A.U. after    8 cycles
 SCF Done:  E(RB3LYP) =  -1515.64029874     A.U. after    7 cycles
 Optimization completed.
    -- Stationary point found.
 Normal termination of Gaussian 16 at Mon Dec 14 17:21:52 2020.

 --------------------------------------------------------------------
 #N Geom=AllCheck Guess=TCheck SCRF=Check GenChk RB3LYP/6-31G(d) Freq
 --------------------------------------------------------------------

 Structure from the checkpoint file:  "JID_9848.chk"
 -------------------------------
 CID_103470773_JID_9848_neutraal
 -------------------------------
 Charge =  0 Multiplicity = 1

 SCF Done:  E(RB3LYP) =  -1515.64029874     A.U. after    1 cycles

  Exact polarizability: 299.339  16.411 173.816  -1.540  -2.148 131.561
 Approx polarizability: 423.447  50.593 331.346  -0.616  -7.280 237.974

                      1                      2                      3
                      A                      A                      A
 Frequencies --      6.7573                18.6560                35.6629
 Red. masses --      8.2234                 7.6609                 6.3952
 Frc consts  --      0.0002                 0.0016                 0.0048
 IR Inten    --      3.9640                 0.3053                 1.8025

                      4                      5                      6
                      A                      A                      A
 Frequencies --     93.4020               115.8119               129.2338
 Red. masses --      7.4101                 5.2055                10.7965
 Frc consts  --      0.0381                 0.0411                 0.1062
 IR Inten    --      1.6169                 0.3519                 3.1366

                      7                      8                      9
                      A                      A                      A
 Frequencies --    145.3547               191.8217               192.7913
 Red. masses --      8.8340                 6.6107                 6.7236
 Frc consts  --      0.1100                 0.1433                 0.1472
 IR Inten    --      0.9356                 2.2582                 4.1358

                     10                     11                     12
                      A                      A                      A
 Frequencies --    254.2569               287.8147               308.9133
 Red. masses --      6.6662                 6.9149                 1.4032
 Frc consts  --      0.2539                 0.3375                 0.0789
 IR Inten    --      3.4210                 0.0431               179.0469

                     13                     14                     15
                      A                      A                      A
 Frequencies --    317.9107               374.7367               400.8843
 Red. masses --      4.0985                 7.8464                 7.7337
 Frc consts  --      0.2441                 0.6492                 0.7323
 IR Inten    --     78.4147                 0.7825                 3.2682

                     16                     17                     18
                      A                      A                      A
 Frequencies --    404.0103               412.4125               435.7204
 Red. masses --      3.9158                 7.3725                 3.3032
 Frc consts  --      0.3766                 0.7388                 0.3695
 IR Inten    --      1.4033                 8.4989                 2.9161

                     19                     20                     21
                      A                      A                      A
 Frequencies --    441.0188               448.3665               490.8870
 Red. masses --      3.4397                 1.4096                 8.5429
 Frc consts  --      0.3942                 0.1670                 1.2129
 IR Inten    --      5.8215                39.9910                 2.7051

                     22                     23                     24
                      A                      A                      A
 Frequencies --    510.6635               513.8341               525.1099
 Red. masses --      8.4768                 4.9549                 6.0458
 Frc consts  --      1.3024                 0.7708                 0.9822
 IR Inten    --      0.0201                 0.8531                 0.1549

                     25                     26                     27
                      A                      A                      A
 Frequencies --    595.1222               597.9366               600.4250
 Red. masses --      7.5356                 5.7003                 7.1655
 Frc consts  --      1.5725                 1.2008                 1.5220
 IR Inten    --      1.5035                 0.0159                 1.8101

                     28                     29                     30
                      A                      A                      A
 Frequencies --    638.7506               669.1126               678.5621
 Red. masses --      7.2412                 8.1214                 8.2240
 Frc consts  --      1.7407                 2.1423                 2.2311
 IR Inten    --      5.9199                 9.3836                 3.0413

                     31                     32                     33
                      A                      A                      A
 Frequencies --    717.5637               737.5121               769.4998
 Red. masses --      6.9033                 2.7473                 1.5758
 Frc consts  --      2.0943                 0.8804                 0.5497
 IR Inten    --      4.2476                10.7483                40.8100

                     34                     35                     36
                      A                      A                      A
 Frequencies --    776.9901               778.9789               848.0423
 Red. masses --      7.2738                 7.7373                 1.5308
 Frc consts  --      2.5873                 2.7663                 0.6486
 IR Inten    --      1.0960                 3.6176                21.9350

                     37                     38                     39
                      A                      A                      A
 Frequencies --    868.1176               871.6592               905.6543
 Red. masses --      1.3625                 6.7112                 6.7988
 Frc consts  --      0.6050                 3.0043                 3.2855
 IR Inten    --      0.6872                 0.1105                 7.8165

                     40                     41                     42
                      A                      A                      A
 Frequencies --    940.4349               975.7451               982.0550
 Red. masses --      1.3521                 1.3126                 1.2559
 Frc consts  --      0.7046                 0.7363                 0.7137
 IR Inten    --      1.5807                 0.8163                 0.0170

                     43                     44                     45
                      A                      A                      A
 Frequencies --   1010.4830              1050.9822              1069.6032
 Red. masses --     10.3556                 2.0812                 1.6559
 Frc consts  --      6.2299                 1.3544                 1.1162
 IR Inten    --    113.4019                 0.5879                 1.4668

                     46                     47                     48
                      A                      A                      A
 Frequencies --   1092.3564              1154.3562              1157.9468
 Red. masses --      5.6979                 1.4825                 2.8927
 Frc consts  --      4.0058                 1.1639                 2.2852
 IR Inten    --      6.1647                 4.1999                15.0959

                     49                     50                     51
                      A                      A                      A
 Frequencies --   1180.2008              1194.3793              1226.8900
 Red. masses --      1.2754                 1.1614                 3.9263
 Frc consts  --      1.0466                 0.9762                 3.4821
 IR Inten    --     29.4309                 0.0780                 1.2518

                     52                     53                     54
                      A                      A                      A
 Frequencies --   1274.4863              1314.2744              1335.9085
 Red. masses --      2.8283                 1.9111                 8.5776
 Frc consts  --      2.7067                 1.9449                 9.0192
 IR Inten    --     20.0556                 6.5247                36.6455

                     55                     56                     57
                      A                      A                      A
 Frequencies --   1359.7063              1365.3692              1436.5958
 Red. masses --      2.6102                 6.1467                 4.0896
 Frc consts  --      2.8433                 6.7514                 4.9728
 IR Inten    --     29.6287                 4.4505                 8.8160

                     58                     59                     60
                      A                      A                      A
 Frequencies --   1481.5008              1497.8422              1505.4910
 Red. masses --      2.5992                 3.7031                 2.5271
 Frc consts  --      3.3611                 4.8949                 3.3746
 IR Inten    --     95.8073               185.7128                10.0655

                     61                     62                     63
                      A                      A                      A
 Frequencies --   1542.9780              1592.9003              1618.9075
 Red. masses --      9.6407                 5.4700                 5.5717
 Frc consts  --     13.5232                 8.1774                 8.6036
 IR Inten    --    146.9910                 1.3032                 1.9592

                     64                     65                     66
                      A                      A                      A
 Frequencies --   1635.7011              1655.2442              1691.8025
 Red. masses --      4.1414                 6.3380                 1.3359
 Frc consts  --      6.5284                10.2312                 2.2528
 IR Inten    --     29.9474                 4.2332               234.4402

                     67                     68                     69
                      A                      A                      A
 Frequencies --   2341.8459              3191.7692              3198.0623
 Red. masses --     12.6786                 1.0857                 1.0902
 Frc consts  --     40.9673                 6.5169                 6.5696
 IR Inten    --     21.3762                 1.5925                10.7460

                     70                     71                     72
                      A                      A                      A
 Frequencies --   3203.7048              3214.3473              3223.7254
 Red. masses --      1.0899                 1.0948                 1.0954
 Frc consts  --      6.5907                 6.6646                 6.7069
 IR Inten    --     10.0857                22.5669                14.9778

                     73                     74                     75
                      A                      A                      A
 Frequencies --   3233.0994              3586.0049              3699.9738
 Red. masses --      1.0943                 1.0470                 1.1025
 Frc consts  --      6.7395                 7.9326                 8.8924
 IR Inten    --      0.8388                97.0258                38.7796

 - Thermochemistry -
 -------------------
 Temperature   298.150 Kelvin.  Pressure   1.00000 Atm.
 Atom     1 has atomic number  6 and mass  12.00000

 Molecular mass:   284.01904 amu.
 Principal axes and moments of inertia in atomic units:
                           1         2         3
     Eigenvalues --  2493.48014********************
           X            0.99995  -0.00376  -0.00917
           Y            0.00366   0.99994  -0.01032
           Z            0.00921   0.01028   0.99990
 This molecule is an asymmetric top.
 Rotational symmetry number  1.
 Warning -- assumption of classical behavior for rotation
           may cause significant error
 Rotational temperatures (Kelvin)      0.03474     0.00786     0.00732
 Rotational constants (GHZ):           0.72378     0.16383     0.15257
 Zero-point vibrational energy     492542.2 (Joules/Mol)
                                  117.72042 (Kcal/Mol)
 Warning -- explicit consideration of  27 degrees of freedom as
           vibrations may cause significant error
 Vibrational temperatures:      9.72    26.84    51.31   134.38   166.63
          (Kelvin)            185.94   209.13   275.99   277.38   365.82
                              414.10   444.46   457.40   539.16   576.78
                              581.28   593.37   626.90   634.53   645.10
                              706.28   734.73   739.29   755.52   856.25
                              860.30   863.88   919.02   962.70   976.30
                             1032.41  1061.12  1107.14  1117.92  1120.78
                             1220.14  1249.03  1254.12  1303.03  1353.08
                             1403.88  1412.96  1453.86  1512.13  1538.92
                             1571.66  1660.86  1666.03  1698.05  1718.45
                             1765.22  1833.70  1890.95  1922.07  1956.31
                             1964.46  2066.94  2131.55  2155.06  2166.07
                             2220.00  2291.83  2329.25  2353.41  2381.53
                             2434.13  3369.39  4592.24  4601.30  4609.42
                             4624.73  4638.22  4651.71  5159.46  5323.44

 Zero-point correction=                           0.187599 (Hartree/Particle)
 Thermal correction to Energy=                    0.203706
 Thermal correction to Enthalpy=                  0.204650
 Thermal correction to Gibbs Free Energy=         0.140514
 Sum of electronic and zero-point Energies=          -1515.452699
 Sum of electronic and thermal Energies=             -1515.436593
 Sum of electronic and thermal Enthalpies=           -1515.435649
 Sum of electronic and thermal Free Energies=        -1515.499785

                     E (Thermal)             CV                S
                      KCal/Mol        Cal/Mol-Kelvin    Cal/Mol-Kelvin
 Total                  127.827             61.551            134.985
 Electronic               0.000              0.000              0.000
 Translational            0.889              2.981             42.830
 Rotational               0.889              2.981             34.140
 Vibrational            126.050             55.589             58.015
 Vibration     1          0.593              1.987              8.790
 Vibration     2          0.593              1.986              6.772
 Vibration     3          0.594              1.982              5.487
 Vibration     4          0.602              1.954              3.588
 Vibration     5          0.608              1.936              3.169
 Vibration     6          0.612              1.924              2.957
 Vibration     7          0.617              1.908              2.732
 Vibration     8          0.634              1.851              2.210
 Vibration     9          0.635              1.850              2.201
 Vibration    10          0.665              1.756              1.701
 Vibration    11          0.685              1.696              1.487
 Vibration    12          0.698              1.657              1.368
 Vibration    13          0.704              1.639              1.321
 Vibration    14          0.746              1.524              1.060
 Vibration    15          0.767              1.468              0.959
 Vibration    16          0.769              1.461              0.948
 Vibration    17          0.776              1.443              0.918
 Vibration    18          0.796              1.392              0.840
 Vibration    19          0.801              1.381              0.823
 Vibration    20          0.807              1.364              0.801
 Vibration    21          0.847              1.270              0.681
 Vibration    22          0.866              1.226              0.632
 Vibration    23          0.869              1.219              0.624
 Vibration    24          0.880              1.194              0.598
 Vibration    25          0.953              1.042              0.458
 Vibration    26          0.956              1.036              0.453
 Vibration    27          0.959              1.031              0.449

 Optimization completed.
    -- Stationary point found.
 Normal termination of Gaussian 16 at Mon Dec 14 17:32:43 2020.

 ----------------------------------------------------------------------
 # B3LYP/6-311++G(d,p) empiricaldispersion=gd3bj scf=xqc pop=npa geom=c
 heck
 ----------------------------------------------------------------------

 ---------------------------------------
 CID_103470773_JID_9848_Energie_neutraal
 ---------------------------------------
 Structure from the checkpoint file:  "JID_9848.chk"
 Charge =  0 Multiplicity = 1

 SCF Done:  E(RB3LYP) =  -1515.88095264     A.U. after   17 cycles
 Normal termination of Gaussian 16 at Mon Dec 14 17:38:01 2020.

 ----------------------------------------------------------------------
 # B3LYP/6-311++G(d,p) empiricaldispersion=gd3bj scf=xqc pop=npa geom=c
 heck
 ----------------------------------------------------------------------

 -------------------------------------
 CID_103470773_JID_9848_Energie_kation
 -------------------------------------
 Structure from the checkpoint file:  "JID_9848.chk"
 Charge =  1 Multiplicity = 2

 SCF Done:  E(UB3LYP) =  -1515.59184112     A.U. after   33 cycles
 SCF Done:  E(UB3LYP) =  -1515.59184112     a.u. after    1 cycles
 Normal termination of Gaussian 16 at Mon Dec 14 17:52:08 2020.
 Gaussian 16:  ES64L-G16RevA.03 25-Dec-2016

 ----------------------------------------------------------------------
 # B3LYP/6-311++G(d,p) empiricaldispersion=gd3bj scf=xqc pop=npa geom=c
 heck
 ----------------------------------------------------------------------

 ------------------------------------
 CID_103470773_JID_9848_Energie_anion
 ------------------------------------
 Structure from the checkpoint file:  "JID_9848.chk"
 Charge = -1 Multiplicity = 2

                         Standard orientation:
 ---------------------------------------------------------------------
 Center     Atomic      Atomic             Coordinates (Angstroms)
 Number     Number       Type             X           Y           Z
 ---------------------------------------------------------------------
      1          6           0       -5.402516    0.627242    0.040598
      2          6           0       -4.791121    1.843760   -0.302204
      3          6           0       -3.405210    1.946131   -0.402776
      4          6           0       -2.642608    0.805778   -0.152039
      5          6           0       -3.247838   -0.427479    0.193798
      6          6           0       -4.642204   -0.509954    0.289394
      7          7           0       -2.367561   -1.479468    0.407543
      8          6           0       -1.145547   -1.098892    0.246436
      9         16           0       -0.896164    0.615974   -0.191523
     10         16           0        0.199553   -2.222366    0.474175
     11          6           0        1.569750   -1.188250   -0.053654
     12          7           0        2.192221   -0.471339    0.873753
     13          6           0        3.219000    0.300066    0.499232
     14          6           0        3.690666    0.402995   -0.838358
     15          6           0        3.020732   -0.381680   -1.797296
     16          6           0        1.960701   -1.177570   -1.405279
     17          7           0        4.713593    1.241827   -1.169690
     18          6           0        3.894300    1.065344    1.508909
     19          7           0        4.519153    1.720257    2.240097
     20          1           0       -6.484749    0.574787    0.112918
     21          1           0       -5.404729    2.719595   -0.491078
     22          1           0       -2.935178    2.888391   -0.665987
     23          1           0       -5.099981   -1.456857    0.555497
     24          1           0        3.336591   -0.349794   -2.836257
     25          1           0        1.425850   -1.784811   -2.126613
     26          1           0        5.170716    1.131721   -2.062263
     27          1           0        5.266765    1.655364   -0.431136
 ---------------------------------------------------------------------

 SCF Done:  E(UB3LYP) =  -1515.91004991     A.U. after   27 cycles

 The electronic state is 2-A.
 Alpha  occ. eigenvalues --  -88.77707 -88.75171 -14.22296 -14.21024 -14.16309
 Alpha  occ. eigenvalues --  -14.16075 -10.15997 -10.11780 -10.11504 -10.10767
 Alpha  occ. eigenvalues --  -10.09704 -10.09579 -10.09167 -10.09116 -10.08760
 Alpha  occ. eigenvalues --  -10.07700 -10.06336 -10.04458 -10.04001  -7.86269
 Alpha  occ. eigenvalues --   -7.83750  -5.82584  -5.82232  -5.81787  -5.80135
 Alpha  occ. eigenvalues --   -5.79736  -5.79175  -0.87111  -0.83456  -0.80480
 Alpha  occ. eigenvalues --   -0.76540  -0.76309  -0.70625  -0.68790  -0.66537
 Alpha  occ. eigenvalues --   -0.65407  -0.63387  -0.60293  -0.53587  -0.52596
 Alpha  occ. eigenvalues --   -0.50938  -0.49795  -0.46537  -0.42800  -0.41674
 Alpha  occ. eigenvalues --   -0.40148  -0.40016  -0.39185  -0.37419  -0.35388
 Alpha  occ. eigenvalues --   -0.34131  -0.33014  -0.32575  -0.30955  -0.30187
 Alpha  occ. eigenvalues --   -0.28955  -0.28575  -0.27401  -0.26256  -0.25024
 Alpha  occ. eigenvalues --   -0.24214  -0.22935  -0.22557  -0.21435  -0.20906
 Alpha  occ. eigenvalues --   -0.19991  -0.18054  -0.17888  -0.15721  -0.14378
 Alpha  occ. eigenvalues --   -0.13216  -0.11784  -0.10327   0.02827
 Alpha virt. eigenvalues --    0.05836   0.06185   0.07200   0.07326   0.07968
 Alpha virt. eigenvalues --    0.08481   0.09576   0.09711   0.10986   0.11185
 Alpha virt. eigenvalues --    0.11235   0.11858   0.12612   0.12886   0.13236

  Beta  occ. eigenvalues --  -88.77702 -88.75172 -14.22306 -14.21012 -14.16001
  Beta  occ. eigenvalues --  -14.15445 -10.15970 -10.11784 -10.11511 -10.10848
  Beta  occ. eigenvalues --  -10.09817 -10.09550 -10.09163 -10.09112 -10.08732
  Beta  occ. eigenvalues --  -10.07413 -10.06355 -10.04188 -10.03703  -7.86264
  Beta  occ. eigenvalues --   -7.83750  -5.82580  -5.82230  -5.81772  -5.80134
  Beta  occ. eigenvalues --   -5.79737  -5.79174  -0.87084  -0.83156  -0.79925
  Beta  occ. eigenvalues --   -0.76496  -0.75869  -0.70575  -0.68670  -0.65864
  Beta  occ. eigenvalues --   -0.65321  -0.63210  -0.60005  -0.52958  -0.52423
  Beta  occ. eigenvalues --   -0.50919  -0.49657  -0.46433  -0.42698  -0.41424
  Beta  occ. eigenvalues --   -0.40039  -0.39907  -0.39084  -0.37308  -0.35365
  Beta  occ. eigenvalues --   -0.33909  -0.32920  -0.32448  -0.30861  -0.29485
  Beta  occ. eigenvalues --   -0.28558  -0.28429  -0.27139  -0.26141  -0.24962
  Beta  occ. eigenvalues --   -0.24024  -0.22447  -0.21695  -0.20843  -0.20278
  Beta  occ. eigenvalues --   -0.19785  -0.17979  -0.17809  -0.14477  -0.13034
  Beta  occ. eigenvalues --   -0.12502  -0.11661  -0.09327
  Beta virt. eigenvalues --    0.06006   0.06180   0.07222   0.07313   0.07974
  Beta virt. eigenvalues --    0.08570   0.09434   0.09679   0.09927   0.11020
  Beta virt. eigenvalues --    0.11231   0.11371   0.11920   0.12630   0.12873

 Mulliken charges and spin densities:
               1          2
     1  C   -0.359180   0.002888
     2  C   -0.097874   0.005205
     3  C   -0.003608   0.020974
     4  C    1.660653  -0.003254
     5  C   -1.242834   0.003782
     6  C   -0.629167   0.020608
     7  N    0.129925   0.006863
     8  C   -0.039133   0.021562
     9  S   -0.631828   0.005022
    10  S    0.397068   0.007339
    11  C    0.362008  -0.107988
    12  N    0.110517   0.303321
    13  C    0.885334   0.241888
    14  C   -0.226405  -0.014888
    15  C   -0.534595   0.220558
    16  C   -0.419660   0.239727
    17  N   -0.308981   0.001664
    18  C   -1.038645  -0.094825
    19  N   -0.365817   0.158556
    20  H    0.139565  -0.000205
    21  H    0.134067  -0.000364
    22  H    0.165458  -0.000909
    23  H    0.163095  -0.001737
    24  H    0.119901  -0.021507
    25  H    0.146612  -0.016933
    26  H    0.216444   0.002783
    27  H    0.267079  -0.000128
 Sum of Mulliken charges =  -1.00000   1.00000

 Dipole moment (field-independent basis, Debye):
    X=             -6.2489    Y=              0.6781    Z=             -5.9657  Tot=              8.6659
 Quadrupole moment (field-independent basis, Debye-Ang):
   XX=           -173.5761   YY=           -141.9042   ZZ=           -144.8118
   XY=            -11.8998   XZ=            -24.6083   YZ=             -8.2681

 Summary of Natural Population Analysis:

                                       Natural Population
                Natural  -----------------------------------------------
    Atom  No    Charge         Core      Valence    Rydberg      Total
 -----------------------------------------------------------------------
      C    1   -0.11089      0.99958     2.10215    0.00916     3.11089
      C    2   -0.11110      0.99958     2.10214    0.00938     3.11110
      C    3   -0.10551      0.99951     2.09614    0.00986     3.10551
      C    4   -0.10659      0.99940     2.09701    0.01018     3.10659
      C    5    0.06045      0.99942     1.92747    0.01266     2.93955
      C    6   -0.09729      0.99952     2.08889    0.00888     3.09729
      N    7   -0.26387      0.99960     2.74803    0.01624     3.76387
      C    8   -0.02934      0.99959     2.01125    0.01850     3.02934
      S    9    0.20190      4.99940     2.77921    0.01950     7.79810
      S   10    0.16950      4.99938     2.80883    0.02229     7.83050
      C   11   -0.02964      0.99944     2.01133    0.01888     3.02964
      N   12   -0.12455      0.99961     2.61246    0.01248     3.62455
      C   13    0.04404      0.99940     1.94057    0.01599     2.95596
      C   14    0.08900      0.99950     1.90130    0.01020     2.91100
      C   15   -0.07147      0.99953     2.06288    0.00906     3.07147
      C   16   -0.05683      0.99949     2.04736    0.00998     3.05683
      N   17   -0.39685      0.99970     2.88871    0.00845     3.89685
      C   18    0.13968      0.99964     1.84111    0.01956     2.86032
      N   19   -0.16594      0.99979     2.65456    0.01159     3.66594
      H   20    0.09640      0.00000     0.40262    0.00098     0.40360
      H   21    0.09658      0.00000     0.40246    0.00097     0.40342
      H   22    0.10182      0.00000     0.39665    0.00153     0.39818
      H   23    0.10391      0.00000     0.39474    0.00135     0.39609
      H   24    0.08784      0.00000     0.41040    0.00176     0.41216
      H   25    0.09700      0.00000     0.40181    0.00119     0.40300
      H   26    0.18454      0.00000     0.31405    0.00141     0.31546
      H   27    0.19722      0.00000     0.30141    0.00137     0.30278
 =======================================================================
   * Total *    0.00000     26.99108    45.74553    0.26340    73.00000

 Normal termination of Gaussian 16 at Mon Dec 14 18:03:35 2020.
