 Gaussian 16, Revision A.03,

 -----------------------------------------------------------
 # opt freq B3LYP/6-31G(d) empiricaldispersion=gd3bj scf=xqc
 -----------------------------------------------------------

 ------------------------------
 CID_80868121_JID_8372_neutraal
 ------------------------------
 Symbolic Z-matrix:
 Charge =  0 Multiplicity = 1

 SCF Done:  E(RB3LYP) =  -1144.55877762     A.U. after   14 cycles
 SCF Done:  E(RB3LYP) =  -1144.56945236     A.U. after   13 cycles
 SCF Done:  E(RB3LYP) =  -1144.56997429     A.U. after   14 cycles
 SCF Done:  E(RB3LYP) =  -1144.57137479     A.U. after   14 cycles
 SCF Done:  E(RB3LYP) =  -1144.57099405     A.U. after   14 cycles
 SCF Done:  E(RB3LYP) =  -1144.57503257     A.U. after   12 cycles
 SCF Done:  E(RB3LYP) =  -1144.57565021     A.U. after   11 cycles
 SCF Done:  E(RB3LYP) =  -1144.57597657     A.U. after   12 cycles
 SCF Done:  E(RB3LYP) =  -1144.57606350     A.U. after   11 cycles
 SCF Done:  E(RB3LYP) =  -1144.57610803     A.U. after   11 cycles
 SCF Done:  E(RB3LYP) =  -1144.57612834     A.U. after    8 cycles
 SCF Done:  E(RB3LYP) =  -1144.57613003     A.U. after    8 cycles
 SCF Done:  E(RB3LYP) =  -1144.57613092     A.U. after    8 cycles
 SCF Done:  E(RB3LYP) =  -1144.57613140     A.U. after    8 cycles
 SCF Done:  E(RB3LYP) =  -1144.57613153     A.U. after    8 cycles
 Optimization completed.
    -- Stationary point found.
 Normal termination of Gaussian 16 at Fri Dec 11 20:19:59 2020.

 --------------------------------------------------------------------
 #N Geom=AllCheck Guess=TCheck SCRF=Check GenChk RB3LYP/6-31G(d) Freq
 --------------------------------------------------------------------

 Structure from the checkpoint file:  "JID_8372.chk"
 ------------------------------
 CID_80868121_JID_8372_neutraal
 ------------------------------
 Charge =  0 Multiplicity = 1

 SCF Done:  E(RB3LYP) =  -1144.57613153     A.U. after    1 cycles

  Exact polarizability: 203.258  10.358 187.823 -20.388  -8.118 133.095
 Approx polarizability: 270.436  13.209 293.442 -42.862 -15.009 212.314

                      1                      2                      3
                      A                      A                      A
 Frequencies --     23.1417                34.5467                45.3737
 Red. masses --      5.2114                 3.7915                 4.6799
 Frc consts  --      0.0016                 0.0027                 0.0057
 IR Inten    --      0.0843                 0.3653                 0.4737

                      4                      5                      6
                      A                      A                      A
 Frequencies --     77.9633               113.3955               137.9460
 Red. masses --      3.2960                 3.3328                 3.7519
 Frc consts  --      0.0118                 0.0252                 0.0421
 IR Inten    --      4.0144                 0.0574                 3.7434

                      7                      8                      9
                      A                      A                      A
 Frequencies --    148.9258               158.5191               170.0546
 Red. masses --      2.0861                 2.2119                 3.1240
 Frc consts  --      0.0273                 0.0327                 0.0532
 IR Inten    --      0.9327                 0.6926                 1.2913

                     10                     11                     12
                      A                      A                      A
 Frequencies --    181.3719               202.1665               222.5541
 Red. masses --      1.7702                 4.4337                 6.7196
 Frc consts  --      0.0343                 0.1068                 0.1961
 IR Inten    --      0.8309                 1.1098                 1.6025

                     13                     14                     15
                      A                      A                      A
 Frequencies --    232.6390               257.8661               265.0816
 Red. masses --      1.2530                 2.6572                 4.3077
 Frc consts  --      0.0400                 0.1041                 0.1783
 IR Inten    --      2.5870                 1.2965                 4.8265

                     16                     17                     18
                      A                      A                      A
 Frequencies --    293.6119               320.9651               367.0890
 Red. masses --      2.8559                 3.7131                 2.2942
 Frc consts  --      0.1451                 0.2254                 0.1822
 IR Inten    --      0.9494                 3.0753                 0.0475

                     19                     20                     21
                      A                      A                      A
 Frequencies --    396.5046               401.1806               432.7079
 Red. masses --      1.2483                 1.9326                 7.5664
 Frc consts  --      0.1156                 0.1833                 0.8347
 IR Inten    --    256.9014                 3.3257                 5.9354

                     22                     23                     24
                      A                      A                      A
 Frequencies --    441.8894               481.0090               488.4413
 Red. masses --      3.0025                 2.4694                 1.4632
 Frc consts  --      0.3454                 0.3366                 0.2057
 IR Inten    --     27.4647                66.6893                73.9284

                     25                     26                     27
                      A                      A                      A
 Frequencies --    527.8292               550.2529               571.5682
 Red. masses --      2.8480                 4.7555                 3.6247
 Frc consts  --      0.4675                 0.8483                 0.6977
 IR Inten    --      2.1887                 2.6482                 1.0531

                     28                     29                     30
                      A                      A                      A
 Frequencies --    595.6882               652.2689               658.1807
 Red. masses --      4.9349                 4.9506                 4.4788
 Frc consts  --      1.0317                 1.2410                 1.1431
 IR Inten    --     12.0603                 2.2640                 0.1535

                     31                     32                     33
                      A                      A                      A
 Frequencies --    673.4925               694.7964               722.0157
 Red. masses --      1.2905                11.4870                 6.0573
 Frc consts  --      0.3449                 3.2672                 1.8605
 IR Inten    --     26.6405                 3.0181                 0.8451

                     34                     35                     36
                      A                      A                      A
 Frequencies --    743.8340               770.5582               811.5386
 Red. masses --      2.7761                 2.1938                 2.7254
 Frc consts  --      0.9050                 0.7675                 1.0575
 IR Inten    --      2.6881                 1.2632                55.1007

                     37                     38                     39
                      A                      A                      A
 Frequencies --    827.7319               893.0572               904.6667
 Red. masses --      2.3639                 2.4364                 2.4084
 Frc consts  --      0.9543                 1.1449                 1.1614
 IR Inten    --      4.8106                 1.2555                 2.4381

                     40                     41                     42
                      A                      A                      A
 Frequencies --    927.3048               949.2435               954.7694
 Red. masses --      2.9872                 1.7003                 3.3302
 Frc consts  --      1.5134                 0.9027                 1.7886
 IR Inten    --     30.3660                 2.0739                41.2714

                     43                     44                     45
                      A                      A                      A
 Frequencies --    987.8460               996.7256               997.4729
 Red. masses --      3.3110                 1.2071                 3.6082
 Frc consts  --      1.9037                 0.7065                 2.1152
 IR Inten    --     12.0945                 4.7592                13.6385

                     46                     47                     48
                      A                      A                      A
 Frequencies --    999.7882              1001.4826              1012.6802
 Red. masses --      1.3666                 1.6618                 1.6765
 Frc consts  --      0.8048                 0.9820                 1.0130
 IR Inten    --      1.5854                 3.2570                18.6553

                     49                     50                     51
                      A                      A                      A
 Frequencies --   1030.9078              1041.0351              1080.4004
 Red. masses --      1.8887                 1.8068                 2.9576
 Frc consts  --      1.1826                 1.1537                 2.0341
 IR Inten    --      2.1906                 8.3969                80.3585

                     52                     53                     54
                      A                      A                      A
 Frequencies --   1100.5659              1112.8406              1126.0242
 Red. masses --      1.4554                 1.6025                 2.3047
 Frc consts  --      1.0386                 1.1693                 1.7217
 IR Inten    --     11.1947                 7.0173                 0.5987

                     55                     56                     57
                      A                      A                      A
 Frequencies --   1138.8066              1152.4736              1216.1211
 Red. masses --      1.8931                 1.7831                 1.1622
 Frc consts  --      1.4465                 1.3953                 1.0127
 IR Inten    --      0.5096                 8.6497                 9.9896

                     58                     59                     60
                      A                      A                      A
 Frequencies --   1233.3339              1245.2869              1260.7757
 Red. masses --      1.5990                 1.4970                 1.2781
 Frc consts  --      1.4331                 1.3677                 1.1970
 IR Inten    --    192.9972                77.9387                26.3121

                     61                     62                     63
                      A                      A                      A
 Frequencies --   1294.7681              1324.4787              1328.5008
 Red. masses --      1.2974                 1.2246                 1.5650
 Frc consts  --      1.2815                 1.2657                 1.6274
 IR Inten    --     22.6105                 2.3244                 2.9131

                     64                     65                     66
                      A                      A                      A
 Frequencies --   1336.0007              1349.8254              1375.1914
 Red. masses --      6.7411                 3.9484                 1.4412
 Frc consts  --      7.0891                 4.2386                 1.6058
 IR Inten    --     67.9494               212.3666                 4.5809

                     67                     68                     69
                      A                      A                      A
 Frequencies --   1383.0218              1392.0367              1405.2181
 Red. masses --      1.4276                 1.3054                 1.5252
 Frc consts  --      1.6088                 1.4904                 1.7745
 IR Inten    --      8.3965                25.6589                84.5216

                     70                     71                     72
                      A                      A                      A
 Frequencies --   1414.8495              1424.9772              1435.7121
 Red. masses --      1.3521                 1.6790                 1.5313
 Frc consts  --      1.5947                 2.0087                 1.8597
 IR Inten    --      6.2069                10.9460                 2.8861

                     73                     74                     75
                      A                      A                      A
 Frequencies --   1447.0166              1480.1355              1490.8859
 Red. masses --      1.2931                 2.8055                 1.1239
 Frc consts  --      1.5952                 3.6213                 1.4718
 IR Inten    --      5.4492                95.2912                11.1869

                     76                     77                     78
                      A                      A                      A
 Frequencies --   1493.7651              1507.7815              1508.9894
 Red. masses --      3.2035                 1.0855                 1.0687
 Frc consts  --      4.2115                 1.4539                 1.4338
 IR Inten    --     84.6019                 4.1884                28.8975

                     79                     80                     81
                      A                      A                      A
 Frequencies --   1510.4885              1533.9949              1538.0491
 Red. masses --      1.0953                 1.1594                 1.0592
 Frc consts  --      1.4723                 1.6074                 1.4763
 IR Inten    --      0.2056                13.8961                 1.8399

                     82                     83                     84
                      A                      A                      A
 Frequencies --   1550.5348              1608.9157              1633.3699
 Red. masses --      1.0799                 6.9704                 3.9048
 Frc consts  --      1.5297                10.6310                 6.1379
 IR Inten    --      0.5928               329.3915               530.2676

                     85                     86                     87
                      A                      A                      A
 Frequencies --   1674.6169              1740.7748              3002.4332
 Red. masses --      1.5331                 6.2188                 1.0690
 Frc consts  --      2.5330                11.1031                 5.6779
 IR Inten    --    470.6901                 3.0637                19.3104

                     88                     89                     90
                      A                      A                      A
 Frequencies --   3009.0045              3025.4942              3044.7917
 Red. masses --      1.0681                 1.0809                 1.0931
 Frc consts  --      5.6981                 5.8294                 5.9707
 IR Inten    --     30.4981                25.6635                36.0179

                     91                     92                     93
                      A                      A                      A
 Frequencies --   3050.1340              3054.8639              3056.8619
 Red. masses --      1.0886                 1.0843                 1.0426
 Frc consts  --      5.9668                 5.9618                 5.7401
 IR Inten    --     18.4114                35.1189                31.5611

                     94                     95                     96
                      A                      A                      A
 Frequencies --   3075.4109              3079.2370              3116.0266
 Red. masses --      1.0676                 1.0297                 1.1004
 Frc consts  --      5.9492                 5.7525                 6.2953
 IR Inten    --     53.3200                16.6504                29.0531

                     97                     98                     99
                      A                      A                      A
 Frequencies --   3141.8047              3151.7647              3162.8614
 Red. masses --      1.1011                 1.0841                 1.0974
 Frc consts  --      6.4039                 6.3452                 6.4681
 IR Inten    --     17.4654                 9.9555                 6.8987

                    100                    101                    102
                      A                      A                      A
 Frequencies --   3166.6482              3174.7960              3177.1090
 Red. masses --      1.1046                 1.0969                 1.1077
 Frc consts  --      6.5259                 6.5137                 6.5875
 IR Inten    --      9.5096                60.8555                 5.3889

                    103                    104                    105
                      A                      A                      A
 Frequencies --   3234.0715              3587.8446              3704.9883
 Red. masses --      1.0926                 1.0462                 1.1021
 Frc consts  --      6.7333                 7.9350                 8.9136
 IR Inten    --      2.7600                58.5347                28.4593

 - Thermochemistry -
 -------------------
 Temperature   298.150 Kelvin.  Pressure   1.00000 Atm.
 Atom     1 has atomic number  6 and mass  12.00000

 Molecular mass:   265.12488 amu.
 Principal axes and moments of inertia in atomic units:
                           1         2         3
     Eigenvalues --  2923.078178325.687569730.33273
           X            0.99995   0.01020   0.00169
           Y           -0.01015   0.99960  -0.02631
           Z           -0.00196   0.02630   0.99965
 This molecule is an asymmetric top.
 Rotational symmetry number  1.
 Warning -- assumption of classical behavior for rotation
           may cause significant error
 Rotational temperatures (Kelvin)      0.02963     0.01040     0.00890
 Rotational constants (GHZ):           0.61741     0.21677     0.18548
 Zero-point vibrational energy     820987.3 (Joules/Mol)
                                  196.22067 (Kcal/Mol)
 Warning -- explicit consideration of  28 degrees of freedom as
           vibrations may cause significant error
 Vibrational temperatures:     33.30    49.71    65.28   112.17   163.15
          (Kelvin)            198.47   214.27   228.07   244.67   260.95
                              290.87   320.21   334.72   371.01   381.39
                              422.44   461.80   528.16   570.48   577.21
                              622.57   635.78   692.06   702.76   759.43
                              791.69   822.36   857.06   938.47   946.98
                              969.01   999.66  1038.82  1070.21  1108.66
                             1167.62  1190.92  1284.91  1301.61  1334.18
                             1365.75  1373.70  1421.29  1434.07  1435.14
                             1438.47  1440.91  1457.02  1483.25  1497.82
                             1554.46  1583.47  1601.13  1620.10  1638.49
                             1658.15  1749.73  1774.49  1791.69  1813.98
                             1862.88  1905.63  1911.42  1922.21  1942.10
                             1978.59  1989.86  2002.83  2021.80  2035.65
                             2050.22  2065.67  2081.93  2129.58  2145.05
                             2149.19  2169.36  2171.10  2173.26  2207.08
                             2212.91  2230.87  2314.87  2350.05  2409.40
                             2504.59  4319.83  4329.29  4353.01  4380.78
                             4388.46  4395.27  4398.14  4424.83  4430.34
                             4483.27  4520.36  4534.69  4550.65  4556.10
                             4567.82  4571.15  4653.11  5162.11  5330.65

 Zero-point correction=                           0.312698 (Hartree/Particle)
 Thermal correction to Energy=                    0.330661
 Thermal correction to Enthalpy=                  0.331605
 Thermal correction to Gibbs Free Energy=         0.265911
 Sum of electronic and zero-point Energies=          -1144.263434
 Sum of electronic and thermal Energies=             -1144.245471
 Sum of electronic and thermal Enthalpies=           -1144.244527
 Sum of electronic and thermal Free Energies=        -1144.310221

                     E (Thermal)             CV                S
                      KCal/Mol        Cal/Mol-Kelvin    Cal/Mol-Kelvin
 Total                  207.493             68.741            138.266
 Electronic               0.000              0.000              0.000
 Translational            0.889              2.981             42.624
 Rotational               0.889              2.981             33.826
 Vibrational            205.715             62.780             61.815
 Vibration     1          0.593              1.985              6.345
 Vibration     2          0.594              1.983              5.550
 Vibration     3          0.595              1.979              5.009
 Vibration     4          0.599              1.964              3.942
 Vibration     5          0.607              1.938              3.210
 Vibration     6          0.614              1.915              2.832
 Vibration     7          0.618              1.904              2.686
 Vibration     8          0.621              1.893              2.567
 Vibration     9          0.625              1.879              2.435
 Vibration    10          0.630              1.865              2.314
 Vibration    11          0.639              1.837              2.113
 Vibration    12          0.648              1.807              1.938
 Vibration    13          0.653              1.791              1.858
 Vibration    14          0.667              1.749              1.676
 Vibration    15          0.671              1.737              1.628
 Vibration    16          0.688              1.686              1.453
 Vibration    17          0.706              1.633              1.305
 Vibration    18          0.740              1.540              1.092
 Vibration    19          0.763              1.478              0.976
 Vibration    20          0.767              1.468              0.958
 Vibration    21          0.794              1.399              0.850
 Vibration    22          0.802              1.379              0.821
 Vibration    23          0.837              1.292              0.707
 Vibration    24          0.844              1.276              0.688
 Vibration    25          0.883              1.188              0.592
 Vibration    26          0.906              1.139              0.544
 Vibration    27          0.928              1.093              0.501
 Vibration    28          0.953              1.041              0.457

 Optimization completed.
    -- Stationary point found.
 Normal termination of Gaussian 16 at Fri Dec 11 20:36:18 2020.

 ----------------------------------------------------------------------
 # B3LYP/6-311++G(d,p) empiricaldispersion=gd3bj scf=xqc pop=npa geom=c
 heck
 ----------------------------------------------------------------------

 --------------------------------------
 CID_80868121_JID_8372_Energie_neutraal
 --------------------------------------
 Structure from the checkpoint file:  "JID_8372.chk"
 Charge =  0 Multiplicity = 1

 SCF Done:  E(RB3LYP) =  -1144.81040209     A.U. after   16 cycles
 Normal termination of Gaussian 16 at Fri Dec 11 20:43:11 2020.

 ----------------------------------------------------------------------
 # B3LYP/6-311++G(d,p) empiricaldispersion=gd3bj scf=xqc pop=npa geom=c
 heck
 ----------------------------------------------------------------------

 ------------------------------------
 CID_80868121_JID_8372_Energie_kation
 ------------------------------------
 Structure from the checkpoint file:  "JID_8372.chk"
 Charge =  1 Multiplicity = 2

 SCF Done:  E(UB3LYP) =  -1144.52604978     A.U. after   29 cycles
 Normal termination of Gaussian 16 at Fri Dec 11 21:00:14 2020.
 Gaussian 16:  ES64L-G16RevA.03 25-Dec-2016

 ----------------------------------------------------------------------
 # B3LYP/6-311++G(d,p) empiricaldispersion=gd3bj scf=xqc pop=npa geom=c
 heck
 ----------------------------------------------------------------------

 -----------------------------------
 CID_80868121_JID_8372_Energie_anion
 -----------------------------------
 Structure from the checkpoint file:  "JID_8372.chk"
 Charge = -1 Multiplicity = 2

                         Standard orientation:
 ---------------------------------------------------------------------
 Center     Atomic      Atomic             Coordinates (Angstroms)
 Number     Number       Type             X           Y           Z
 ---------------------------------------------------------------------
      1          6           0       -1.670855   -0.898776   -1.299180
      2          6           0       -2.163474    0.464807   -0.794031
      3          6           0       -3.454411    0.892209   -1.518995
      4          6           0       -4.674729    0.182674   -0.987665
      5          6           0       -4.704326   -0.444572    0.191306
      6          6           0       -3.526217   -0.495729    1.128287
      7          6           0       -2.426146    0.502262    0.728167
      8          6           0       -1.181102    0.270161    1.578556
      9          8           0       -0.203137    1.295040    1.307120
     10          6           0        0.968282    0.971601    0.730620
     11          7           0        1.282621   -0.313998    0.526920
     12          6           0        2.467048   -0.531256   -0.051782
     13          7           0        3.357913    0.374935   -0.446491
     14          6           0        3.024138    1.662065   -0.224061
     15          6           0        1.809213    2.023045    0.374956
     16          7           0        3.959593    2.593158   -0.588071
     17         16           0        2.972030   -2.204351   -0.362667
     18          6           0        1.564319   -3.141075    0.319346
     19          1           0       -2.420668   -1.681486   -1.141879
     20          1           0       -0.741705   -1.194258   -0.804278
     21          1           0       -1.468964   -0.849250   -2.375229
     22          1           0       -1.386618    1.206768   -1.015662
     23          1           0       -3.595383    1.979986   -1.422432
     24          1           0       -3.355066    0.701986   -2.596284
     25          1           0       -5.567985    0.195578   -1.610424
     26          1           0       -5.612606   -0.951920    0.512653
     27          1           0       -3.119478   -1.519434    1.155599
     28          1           0       -3.858530   -0.287244    2.154924
     29          1           0       -2.793606    1.511789    0.961188
     30          1           0       -1.425619    0.363206    2.642040
     31          1           0       -0.739320   -0.710753    1.404221
     32          1           0        1.525931    3.051303    0.562658
     33          1           0        4.689243    2.255159   -1.200481
     34          1           0        3.659352    3.545583   -0.733941
     35          1           0        1.397340   -2.877027    1.364691
     36          1           0        0.653933   -2.958006   -0.253752
     37          1           0        1.841034   -4.195841    0.242456
 ---------------------------------------------------------------------

 SCF Done:  E(UB3LYP) =  -1144.80068201     A.U. after   33 cycles
 SCF Done:  E(UB3LYP) =  -1144.80068201     a.u. after    1 cycles

 The electronic state is 2-A.
 Alpha  occ. eigenvalues --  -88.76671 -19.07205 -14.23529 -14.21755 -14.21384
 Alpha  occ. eigenvalues --  -10.18775 -10.17948 -10.16776 -10.13340 -10.11110
 Alpha  occ. eigenvalues --  -10.08799 -10.08613 -10.08392 -10.08157 -10.08079
 Alpha  occ. eigenvalues --  -10.07994 -10.07869 -10.06383  -7.85305  -5.81698
 Alpha  occ. eigenvalues --   -5.81283  -5.80720  -0.99624  -0.90434  -0.84222
 Alpha  occ. eigenvalues --   -0.77908  -0.76034  -0.72126  -0.69082  -0.67381
 Alpha  occ. eigenvalues --   -0.66786  -0.61815  -0.59744  -0.58535  -0.54039
 Alpha  occ. eigenvalues --   -0.52693  -0.52606  -0.49040  -0.46694  -0.45122
 Alpha  occ. eigenvalues --   -0.41949  -0.41339  -0.40686  -0.39587  -0.37702
 Alpha  occ. eigenvalues --   -0.37062  -0.36459  -0.35894  -0.35486  -0.34695
 Alpha  occ. eigenvalues --   -0.33371  -0.32976  -0.31637  -0.31110  -0.30795
 Alpha  occ. eigenvalues --   -0.30212  -0.28302  -0.28036  -0.27368  -0.26926
 Alpha  occ. eigenvalues --   -0.25560  -0.25198  -0.23411  -0.22405  -0.22023
 Alpha  occ. eigenvalues --   -0.21348  -0.17899  -0.17729  -0.16067  -0.15837
 Alpha  occ. eigenvalues --   -0.13448   0.03778
 Alpha virt. eigenvalues --    0.05093   0.05961   0.06707   0.06795   0.07344
 Alpha virt. eigenvalues --    0.08153   0.08377   0.08624   0.08824   0.09380
 Alpha virt. eigenvalues --    0.09647   0.09733   0.10209   0.10972   0.11515

  Beta  occ. eigenvalues --  -88.76668 -19.07203 -14.23462 -14.21749 -14.21382
  Beta  occ. eigenvalues --  -10.18772 -10.17928 -10.16765 -10.13331 -10.11092
  Beta  occ. eigenvalues --  -10.08795 -10.08596 -10.08388 -10.08147 -10.08069
  Beta  occ. eigenvalues --  -10.07985 -10.07848 -10.06370  -7.85303  -5.81692
  Beta  occ. eigenvalues --   -5.81280  -5.80716  -0.99618  -0.90409  -0.84163
  Beta  occ. eigenvalues --   -0.77870  -0.76014  -0.72095  -0.69061  -0.67356
  Beta  occ. eigenvalues --   -0.66755  -0.61786  -0.59704  -0.58506  -0.53991
  Beta  occ. eigenvalues --   -0.52645  -0.52567  -0.49014  -0.46661  -0.45091
  Beta  occ. eigenvalues --   -0.41910  -0.41297  -0.40618  -0.39559  -0.37656
  Beta  occ. eigenvalues --   -0.37020  -0.36421  -0.35863  -0.35466  -0.34674
  Beta  occ. eigenvalues --   -0.33339  -0.32955  -0.31614  -0.31084  -0.30773
  Beta  occ. eigenvalues --   -0.30188  -0.28276  -0.28007  -0.27341  -0.26907
  Beta  occ. eigenvalues --   -0.25507  -0.25173  -0.23393  -0.22381  -0.22001
  Beta  occ. eigenvalues --   -0.21337  -0.17888  -0.17715  -0.16049  -0.15789
  Beta  occ. eigenvalues --   -0.13404
  Beta virt. eigenvalues --    0.05571   0.06276   0.06721   0.06942   0.07154
  Beta virt. eigenvalues --    0.07795   0.08225   0.08530   0.08929   0.09307
  Beta virt. eigenvalues --    0.09539   0.09756   0.09925   0.10510   0.11189

 Mulliken charges and spin densities:
               1          2
     1  C   -0.695045  -0.123468
     2  C    0.167118   0.484586
     3  C   -0.313766  -0.394654
     4  C    0.660399  -0.787930
     5  C   -0.100393  -0.067110
     6  C    0.450664  -0.993567
     7  C    0.089379   0.294711
     8  C   -0.097566  -0.511120
     9  O    0.016796  -0.013376
    10  C    0.802583  -1.320788
    11  N    0.125534   0.013383
    12  C   -0.255945  -0.083342
    13  N    0.054457  -0.116993
    14  C    1.176597  -1.291244
    15  C   -1.270066   1.772524
    16  N   -0.379502   0.095440
    17  S   -0.336242   0.166243
    18  C   -0.292478  -0.388708
    19  H    0.036491   0.136546
    20  H    0.564749  -0.544426
    21  H   -0.010694   0.162281
    22  H    0.068765   0.151030
    23  H   -0.094894   0.262311
    24  H    0.052381   0.087416
    25  H   -0.196111   0.373903
    26  H   -0.514274   0.705163
    27  H   -0.109899   0.271573
    28  H   -0.031935   0.177482
    29  H    0.131743   0.093712
    30  H   -0.172155   0.342860
    31  H    0.413185  -0.179459
    32  H   -0.433837   0.646104
    33  H    0.050739   0.215578
    34  H   -0.595408   0.872632
    35  H    0.090183   0.096347
    36  H   -0.025657   0.215308
    37  H   -0.025895   0.179051
 Sum of Mulliken charges =  -1.00000   1.00000

 Dipole moment (field-independent basis, Debye):
    X=             -0.5267    Y=             -4.7637    Z=              1.2666  Tot=              4.9573
 Quadrupole moment (field-independent basis, Debye-Ang):
   XX=           -218.0343   YY=           -176.0451   ZZ=           -147.0467
   XY=            -20.2775   XZ=              6.7150   YZ=              5.2300

 Summary of Natural Population Analysis:

                                       Natural Population
                Natural  -----------------------------------------------
    Atom  No    Charge         Core      Valence    Rydberg      Total
 -----------------------------------------------------------------------
      C    1   -0.29344      0.99964     2.28808    0.00572     3.29344
      C    2   -0.11071      0.99959     2.10034    0.01078     3.11071
      C    3   -0.20552      0.99960     2.19633    0.00960     3.20552
      C    4   -0.10480      0.99957     2.09118    0.01404     3.10480
      C    5   -0.06858      0.99953     2.06305    0.00600     3.06858
      C    6   -0.21804      0.99962     2.20484    0.01358     3.21804
      C    7   -0.11701      0.99957     2.10583    0.01161     3.11701
      C    8   -0.01251      0.99950     2.00093    0.01208     3.01251
      O    9   -0.27212      0.99985     3.26336    0.00891     4.27212
      C   10    0.29310      0.99945     1.69011    0.01735     2.70690
      N   11   -0.31649      0.99960     2.80638    0.01051     3.81649
      C   12    0.15966      0.99959     1.81959    0.02117     2.84034
      N   13   -0.29178      0.99962     2.78179    0.01037     3.79178
      C   14    0.21834      0.99955     1.76629    0.01582     2.78166
      C   15   -0.19030      0.99947     2.18094    0.00989     3.19030
      N   16   -0.38305      0.99970     2.87362    0.00973     3.88305
      S   17    0.13150      4.99953     2.84877    0.02020     7.86850
      C   18   -0.35064      0.99961     2.34523    0.00580     3.35064
      H   19    0.09811      0.00000     0.40080    0.00110     0.40189
      H   20    0.10540      0.00000     0.39308    0.00152     0.39460
      H   21    0.09924      0.00000     0.39976    0.00099     0.40076
      H   22    0.10370      0.00000     0.39449    0.00180     0.39630
      H   23    0.10470      0.00000     0.39419    0.00111     0.39530
      H   24    0.10199      0.00000     0.39696    0.00106     0.39801
      H   25    0.09662      0.00000     0.40240    0.00098     0.40338
      H   26    0.09439      0.00000     0.40412    0.00149     0.40561
      H   27    0.10244      0.00000     0.39619    0.00137     0.39756
      H   28    0.10489      0.00000     0.39382    0.00129     0.39511
      H   29    0.10032      0.00000     0.39792    0.00177     0.39968
      H   30    0.09018      0.00000     0.40881    0.00101     0.40982
      H   31    0.10262      0.00000     0.39546    0.00192     0.39738
      H   32    0.11482      0.00000     0.38380    0.00138     0.38518
      H   33    0.19488      0.00000     0.30275    0.00238     0.30512
      H   34    0.19808      0.00000     0.28673    0.01519     0.30192
      H   35    0.10859      0.00000     0.38982    0.00158     0.39141
      H   36    0.10739      0.00000     0.39085    0.00176     0.39261
      H   37    0.10407      0.00000     0.39486    0.00107     0.39593
 =======================================================================
   * Total *    0.00003     21.99257    48.75347    0.25392    70.99997

 Normal termination of Gaussian 16 at Fri Dec 11 21:19:49 2020.
