 Gaussian 16, Revision A.03,

 -----------------------------------------------------------
 # opt freq B3LYP/6-31G(d) empiricaldispersion=gd3bj scf=xqc
 -----------------------------------------------------------

 ------------------------------
 CID_83880165_JID_4966_neutraal
 ------------------------------
 Symbolic Z-matrix:
 Charge =  0 Multiplicity = 1

 SCF Done:  E(RB3LYP) =  -632.055178302     A.U. after   14 cycles
 SCF Done:  E(RB3LYP) =  -632.060009011     A.U. after   11 cycles
 SCF Done:  E(RB3LYP) =  -632.060569252     A.U. after   11 cycles
 SCF Done:  E(RB3LYP) =  -632.060777181     A.U. after   11 cycles
 SCF Done:  E(RB3LYP) =  -632.060847827     A.U. after   10 cycles
 SCF Done:  E(RB3LYP) =  -632.060917408     A.U. after   11 cycles
 SCF Done:  E(RB3LYP) =  -632.060945954     A.U. after   10 cycles
 SCF Done:  E(RB3LYP) =  -632.060970490     A.U. after   10 cycles
 SCF Done:  E(RB3LYP) =  -632.060993510     A.U. after    9 cycles
 SCF Done:  E(RB3LYP) =  -632.060999143     A.U. after    9 cycles
 SCF Done:  E(RB3LYP) =  -632.061000033     A.U. after    8 cycles
 SCF Done:  E(RB3LYP) =  -632.061000434     A.U. after    8 cycles
 SCF Done:  E(RB3LYP) =  -632.061000527     A.U. after    7 cycles
 SCF Done:  E(RB3LYP) =  -632.061000570     A.U. after    6 cycles
 Optimization completed.
    -- Stationary point found.
 Normal termination of Gaussian 16 at Thu Dec 10 11:02:44 2020.

 --------------------------------------------------------------------
 #N Geom=AllCheck Guess=TCheck SCRF=Check GenChk RB3LYP/6-31G(d) Freq
 --------------------------------------------------------------------

 Structure from the checkpoint file:  "JID_4966.chk"
 ------------------------------
 CID_83880165_JID_4966_neutraal
 ------------------------------
 Charge =  0 Multiplicity = 1

 SCF Done:  E(RB3LYP) =  -632.061000570     A.U. after    1 cycles

  Exact polarizability: 141.773   1.038 121.447  -1.356  -1.030 100.890
 Approx polarizability: 177.592  -5.224 184.045   3.258  -5.258 150.190

                      1                      2                      3
                      A                      A                      A
 Frequencies --     37.6354                44.3928                61.0624
 Red. masses --      2.7249                 2.7381                 3.2631
 Frc consts  --      0.0023                 0.0032                 0.0072
 IR Inten    --      0.3104                 1.4059                 0.7913

                      4                      5                      6
                      A                      A                      A
 Frequencies --    103.4442               149.8312               170.8072
 Red. masses --      4.2569                 1.6682                 2.5114
 Frc consts  --      0.0268                 0.0221                 0.0432
 IR Inten    --      6.2419                 0.6905                 2.3861

                      7                      8                      9
                      A                      A                      A
 Frequencies --    181.2739               204.5970               237.9376
 Red. masses --      2.7163                 1.9138                 1.0882
 Frc consts  --      0.0526                 0.0472                 0.0363
 IR Inten    --      0.8763                 2.7024                 0.0229

                     10                     11                     12
                      A                      A                      A
 Frequencies --    259.1444               262.6120               293.4985
 Red. masses --      1.3385                 1.5446                 2.3570
 Frc consts  --      0.0530                 0.0628                 0.1196
 IR Inten    --      2.2317                 3.3008                 1.8299

                     13                     14                     15
                      A                      A                      A
 Frequencies --    306.2761               322.2229               388.2052
 Red. masses --      2.2252                 2.7511                 3.2847
 Frc consts  --      0.1230                 0.1683                 0.2917
 IR Inten    --      2.4441                10.3445                 3.3581

                     16                     17                     18
                      A                      A                      A
 Frequencies --    391.8772               428.0375               457.7976
 Red. masses --      3.3519                 2.9259                 3.4243
 Frc consts  --      0.3033                 0.3158                 0.4228
 IR Inten    --      2.2701                 5.8545                 5.0844

                     19                     20                     21
                      A                      A                      A
 Frequencies --    475.1100               578.0390               589.5702
 Red. masses --      2.9097                 3.7488                 2.2676
 Frc consts  --      0.3870                 0.7380                 0.4644
 IR Inten    --      3.5418                 4.1739                 2.5641

                     22                     23                     24
                      A                      A                      A
 Frequencies --    636.1003               720.1957               749.5812
 Red. masses --      2.6367                 4.2811                 3.6984
 Frc consts  --      0.6286                 1.3083                 1.2243
 IR Inten    --      5.1960                 4.4185                 8.2852

                     25                     26                     27
                      A                      A                      A
 Frequencies --    763.0147               809.0741               845.8716
 Red. masses --     10.8198                 3.0177                 1.6517
 Frc consts  --      3.7114                 1.1639                 0.6963
 IR Inten    --     18.2924                24.7664               127.1818

                     28                     29                     30
                      A                      A                      A
 Frequencies --    864.6923               882.8483               931.3705
 Red. masses --      2.2146                 2.3020                 2.0272
 Frc consts  --      0.9756                 1.0571                 1.0361
 IR Inten    --      3.8663                15.9077                 5.7689

                     31                     32                     33
                      A                      A                      A
 Frequencies --    937.9559               943.8197               961.3801
 Red. masses --      2.4235                 1.2995                 1.6873
 Frc consts  --      1.2562                 0.6820                 0.9188
 IR Inten    --      1.7627                 2.1490                 5.4384

                     34                     35                     36
                      A                      A                      A
 Frequencies --    962.9432               981.4972              1040.5678
 Red. masses --      1.8511                 1.6903                 2.5200
 Frc consts  --      1.0113                 0.9594                 1.6076
 IR Inten    --      3.6770                 9.4911                38.2105

                     37                     38                     39
                      A                      A                      A
 Frequencies --   1056.0061              1093.2758              1100.5956
 Red. masses --      1.5637                 1.8640                 1.6054
 Frc consts  --      1.0274                 1.3127                 1.1457
 IR Inten    --     16.8808                 8.7370                 5.3970

                     40                     41                     42
                      A                      A                      A
 Frequencies --   1104.8459              1132.1422              1147.8012
 Red. masses --      2.6940                 3.4989                 2.2008
 Frc consts  --      1.9375                 2.6423                 1.7083
 IR Inten    --      5.0718                20.0830                 1.5792

                     43                     44                     45
                      A                      A                      A
 Frequencies --   1160.9194              1168.5944              1201.3061
 Red. masses --      1.9008                 1.4835                 2.0776
 Frc consts  --      1.5094                 1.1936                 1.7665
 IR Inten    --     23.7323                 5.0748                 0.7528

                     46                     47                     48
                      A                      A                      A
 Frequencies --   1225.9130              1229.5445              1246.8084
 Red. masses --      1.6719                 1.8598                 1.4953
 Frc consts  --      1.4804                 1.6566                 1.3696
 IR Inten    --     25.0970                60.1044                13.9826

                     49                     50                     51
                      A                      A                      A
 Frequencies --   1264.7262              1289.3658              1304.7608
 Red. masses --      2.3776                 1.8058                 2.6642
 Frc consts  --      2.2407                 1.7688                 2.6723
 IR Inten    --      5.6259                55.7452                75.9358

                     52                     53                     54
                      A                      A                      A
 Frequencies --   1316.6586              1333.3796              1358.5405
 Red. masses --      1.5929                 1.4159                 1.3516
 Frc consts  --      1.6270                 1.4831                 1.4698
 IR Inten    --      5.6409                16.6709                21.9076

                     55                     56                     57
                      A                      A                      A
 Frequencies --   1374.4049              1389.7775              1394.8586
 Red. masses --      1.4388                 2.0971                 1.4219
 Frc consts  --      1.6014                 2.3865                 1.6299
 IR Inten    --      6.4818                40.4125                 7.1400

                     58                     59                     60
                      A                      A                      A
 Frequencies --   1417.7066              1425.4308              1442.6982
 Red. masses --      1.5788                 1.2798                 1.4492
 Frc consts  --      1.8696                 1.5321                 1.7772
 IR Inten    --     39.5959                12.9005                45.1458

                     61                     62                     63
                      A                      A                      A
 Frequencies --   1452.1764              1474.2266              1487.0907
 Red. masses --      1.4782                 1.3938                 1.1425
 Frc consts  --      1.8367                 1.7848                 1.4886
 IR Inten    --    110.6836               113.9418                 9.3421

                     64                     65                     66
                      A                      A                      A
 Frequencies --   1509.8546              1517.2476              1520.0912
 Red. masses --      1.0843                 1.0450                 1.0771
 Frc consts  --      1.4563                 1.4173                 1.4664
 IR Inten    --      0.2148                 1.7650                 0.6592

                     67                     68                     69
                      A                      A                      A
 Frequencies --   1521.5290              1532.2970              1532.5116
 Red. masses --      1.0547                 1.0671                 1.0465
 Frc consts  --      1.4386                 1.4762                 1.4481
 IR Inten    --      0.8167                13.4277                 8.4154

                     70                     71                     72
                      A                      A                      A
 Frequencies --   1536.4837              1538.5605              1545.6317
 Red. masses --      1.0942                 1.0596                 1.0766
 Frc consts  --      1.5220                 1.4778                 1.5154
 IR Inten    --      3.4908                 1.9717                 4.5241

                     73                     74                     75
                      A                      A                      A
 Frequencies --   1554.7281              1809.8401              2994.8220
 Red. masses --      1.1047                11.4139                 1.0711
 Frc consts  --      1.5732                22.0275                 5.6602
 IR Inten    --     25.6920               373.7166                38.6041

                     76                     77                     78
                      A                      A                      A
 Frequencies --   3020.0707              3047.3433              3051.6651
 Red. masses --      1.0513                 1.0366                 1.0690
 Frc consts  --      5.6497                 5.6718                 5.8657
 IR Inten    --     54.5537                15.0744                35.0866

                     79                     80                     81
                      A                      A                      A
 Frequencies --   3051.9896              3059.7432              3067.0757
 Red. masses --      1.0380                 1.0641                 1.0639
 Frc consts  --      5.6964                 5.8694                 5.8968
 IR Inten    --     23.5434                24.9399                23.8597

                     82                     83                     84
                      A                      A                      A
 Frequencies --   3093.5164              3099.9477              3101.6452
 Red. masses --      1.0868                 1.0911                 1.0868
 Frc consts  --      6.1279                 6.1775                 6.1602
 IR Inten    --      1.6390                28.6835                40.2350

                     85                     86                     87
                      A                      A                      A
 Frequencies --   3111.4650              3114.7055              3115.5629
 Red. masses --      1.1007                 1.1033                 1.0969
 Frc consts  --      6.2786                 6.3064                 6.2731
 IR Inten    --      2.0149                28.5368                13.3994

                     88                     89                     90
                      A                      A                      A
 Frequencies --   3122.2671              3123.4711              3132.0126
 Red. masses --      1.1032                 1.0975                 1.1031
 Frc consts  --      6.3366                 6.3087                 6.3757
 IR Inten    --     34.5891                71.5878                24.5595

                     91                     92                     93
                      A                      A                      A
 Frequencies --   3134.7048              3167.9631              3474.3698
 Red. masses --      1.1026                 1.0991                 1.0745
 Frc consts  --      6.3834                 6.4991                 7.6423
 IR Inten    --     25.4695                 2.1336                 1.7104

 - Thermochemistry -
 -------------------
 Temperature   298.150 Kelvin.  Pressure   1.00000 Atm.
 Atom     1 has atomic number  6 and mass  12.00000

 Molecular mass:   197.15281 amu.
 Principal axes and moments of inertia in atomic units:
                           1         2         3
     Eigenvalues --  1503.854043765.772344451.63995
           X            0.99952   0.02960  -0.00914
           Y           -0.02946   0.99944   0.01567
           Z            0.00960  -0.01539   0.99984
 This molecule is an asymmetric top.
 Rotational symmetry number  1.
 Warning -- assumption of classical behavior for rotation
           may cause significant error
 Rotational temperatures (Kelvin)      0.05759     0.02300     0.01946
 Rotational constants (GHZ):           1.20008     0.47925     0.40541
 Zero-point vibrational energy     776202.7 (Joules/Mol)
                                  185.51689 (Kcal/Mol)
 Warning -- explicit consideration of  21 degrees of freedom as
           vibrations may cause significant error
 Vibrational temperatures:     54.15    63.87    87.86   148.83   215.57
          (Kelvin)            245.75   260.81   294.37   342.34   372.85
                              377.84   422.28   440.66   463.61   558.54
                              563.82   615.85   658.67   683.58   831.67
                              848.26   915.21  1036.20  1078.48  1097.81
                             1164.08  1217.02  1244.10  1270.22  1340.03
                             1349.51  1357.95  1383.21  1385.46  1412.16
                             1497.14  1519.36  1572.98  1583.51  1589.63
                             1628.90  1651.43  1670.30  1681.35  1728.41
                             1763.82  1769.04  1793.88  1819.66  1855.11
                             1877.26  1894.38  1918.44  1954.64  1977.46
                             1999.58  2006.89  2039.76  2050.88  2075.72
                             2089.36  2121.08  2139.59  2172.34  2182.98
                             2187.07  2189.14  2204.63  2204.94  2210.66
                             2213.65  2223.82  2236.91  2603.96  4308.88
                             4345.21  4384.45  4390.67  4391.13  4402.29
                             4412.84  4450.88  4460.13  4462.58  4476.70
                             4481.37  4482.60  4492.25  4493.98  4506.27
                             4510.14  4557.99  4998.84

 Zero-point correction=                           0.295640 (Hartree/Particle)
 Thermal correction to Energy=                    0.309960
 Thermal correction to Enthalpy=                  0.310904
 Thermal correction to Gibbs Free Energy=         0.254218
 Sum of electronic and zero-point Energies=           -631.765361
 Sum of electronic and thermal Energies=              -631.751041
 Sum of electronic and thermal Enthalpies=            -631.750097
 Sum of electronic and thermal Free Energies=         -631.806782

                     E (Thermal)             CV                S
                      KCal/Mol        Cal/Mol-Kelvin    Cal/Mol-Kelvin
 Total                  194.503             54.456            119.306
 Electronic               0.000              0.000              0.000
 Translational            0.889              2.981             41.741
 Rotational               0.889              2.981             31.600
 Vibrational            192.725             48.494             45.964
 Vibration     1          0.594              1.982              5.380
 Vibration     2          0.595              1.980              5.053
 Vibration     3          0.597              1.973              4.423
 Vibration     4          0.605              1.946              3.388
 Vibration     5          0.618              1.903              2.674
 Vibration     6          0.626              1.878              2.427
 Vibration     7          0.630              1.865              2.315
 Vibration     8          0.640              1.833              2.091
 Vibration     9          0.656              1.783              1.818
 Vibration    10          0.668              1.747              1.668
 Vibration    11          0.670              1.741              1.644
 Vibration    12          0.688              1.686              1.454
 Vibration    13          0.697              1.662              1.382
 Vibration    14          0.707              1.631              1.299
 Vibration    15          0.756              1.495              1.007
 Vibration    16          0.759              1.488              0.993
 Vibration    17          0.790              1.409              0.865
 Vibration    18          0.816              1.344              0.773
 Vibration    19          0.832              1.305              0.723
 Vibration    20          0.935              1.079              0.489
 Vibration    21          0.947              1.054              0.468

 Optimization completed.
    -- Stationary point found.
 Normal termination of Gaussian 16 at Thu Dec 10 11:13:20 2020.

 ----------------------------------------------------------------------
 # B3LYP/6-311++G(d,p) empiricaldispersion=gd3bj scf=xqc pop=npa geom=c
 heck
 ----------------------------------------------------------------------

 --------------------------------------
 CID_83880165_JID_4966_Energie_neutraal
 --------------------------------------
 Structure from the checkpoint file:  "JID_4966.chk"
 Charge =  0 Multiplicity = 1

 SCF Done:  E(RB3LYP) =  -632.240341979     A.U. after   14 cycles
 Normal termination of Gaussian 16 at Thu Dec 10 11:17:12 2020.

 ----------------------------------------------------------------------
 # B3LYP/6-311++G(d,p) empiricaldispersion=gd3bj scf=xqc pop=npa geom=c
 heck
 ----------------------------------------------------------------------

 ------------------------------------
 CID_83880165_JID_4966_Energie_kation
 ------------------------------------
 Structure from the checkpoint file:  "JID_4966.chk"
 Charge =  1 Multiplicity = 2

 SCF Done:  E(UB3LYP) =  -631.945434029     A.U. after   23 cycles
 Normal termination of Gaussian 16 at Thu Dec 10 11:25:32 2020.
 Gaussian 16:  ES64L-G16RevA.03 25-Dec-2016

 ----------------------------------------------------------------------
 # B3LYP/6-311++G(d,p) empiricaldispersion=gd3bj scf=xqc pop=npa geom=c
 heck
 ----------------------------------------------------------------------

 -----------------------------------
 CID_83880165_JID_4966_Energie_anion
 -----------------------------------
 Structure from the checkpoint file:  "JID_4966.chk"
 Charge = -1 Multiplicity = 2

                         Standard orientation:
 ---------------------------------------------------------------------
 Center     Atomic      Atomic             Coordinates (Angstroms)
 Number     Number       Type             X           Y           Z
 ---------------------------------------------------------------------
      1          6           0       -3.081427   -1.636409   -0.905392
      2          6           0       -2.730578   -0.317429   -0.216348
      3          6           0       -3.286176   -0.238648    1.212148
      4          7           0       -1.285385   -0.089489   -0.259079
      5          6           0       -0.323386   -1.002283    0.335716
      6          6           0        1.011015   -0.245412    0.162581
      7          6           0        1.753862   -0.575788   -1.167438
      8          6           0        3.236040   -0.622930   -0.756313
      9          7           0        3.252690   -1.166717    0.610824
     10          6           0        2.077094   -0.570526    1.259217
     11          7           0        0.526834    1.138788    0.225608
     12          6           0       -0.803892    1.208647   -0.167757
     13          8           0       -1.438811    2.230548   -0.390284
     14          6           0        1.384978    2.284280    0.008684
     15          1           0       -2.701321   -2.498189   -0.343218
     16          1           0       -2.659885   -1.671045   -1.915144
     17          1           0       -4.168282   -1.746299   -0.978687
     18          1           0       -3.152501    0.511064   -0.792500
     19          1           0       -2.878588   -1.034403    1.847113
     20          1           0       -3.039775    0.728574    1.660800
     21          1           0       -4.376540   -0.345162    1.205509
     22          1           0       -0.533817   -1.171176    1.403858
     23          1           0       -0.312387   -1.972328   -0.169127
     24          1           0        1.441970   -1.562244   -1.530389
     25          1           0        1.527655    0.149767   -1.954193
     26          1           0        3.662430    0.388025   -0.733042
     27          1           0        3.860669   -1.228837   -1.418911
     28          1           0        3.111498   -2.174373    0.549843
     29          1           0        2.369999    0.360450    1.757272
     30          1           0        1.686287   -1.236980    2.033509
     31          1           0        2.145058    2.352835    0.792724
     32          1           0        1.891235    2.253994   -0.967325
     33          1           0        0.752623    3.172862    0.042120
 ---------------------------------------------------------------------

 SCF Done:  E(UB3LYP) =  -632.230100566     A.U. after   30 cycles

 The electronic state is 2-A.
 Alpha  occ. eigenvalues --  -18.98592 -14.23707 -14.23109 -14.19873 -10.18730
 Alpha  occ. eigenvalues --  -10.12482 -10.11251 -10.10790 -10.10622 -10.09532
 Alpha  occ. eigenvalues --  -10.09405 -10.06880 -10.06516 -10.06483  -0.95416
 Alpha  occ. eigenvalues --   -0.87231  -0.82618  -0.80959  -0.69676  -0.66782
 Alpha  occ. eigenvalues --   -0.63632  -0.61043  -0.59576  -0.58062  -0.51261
 Alpha  occ. eigenvalues --   -0.50775  -0.48427  -0.45123  -0.41458  -0.40441
 Alpha  occ. eigenvalues --   -0.38955  -0.38127  -0.36945  -0.35127  -0.34991
 Alpha  occ. eigenvalues --   -0.32897  -0.32803  -0.32129  -0.31799  -0.30217
 Alpha  occ. eigenvalues --   -0.29270  -0.28959  -0.28618  -0.28025  -0.26551
 Alpha  occ. eigenvalues --   -0.26203  -0.25478  -0.25214  -0.24683  -0.23568
 Alpha  occ. eigenvalues --   -0.17566  -0.15582  -0.14151  -0.13034   0.04274
 Alpha virt. eigenvalues --    0.06473   0.07148   0.07616   0.08663   0.09299
 Alpha virt. eigenvalues --    0.09659   0.10072   0.10295   0.11184   0.11541
 Alpha virt. eigenvalues --    0.12096   0.12363   0.12684   0.13522   0.13797

  Beta  occ. eigenvalues --  -18.98590 -14.23706 -14.23108 -14.19844 -10.18730
  Beta  occ. eigenvalues --  -10.12484 -10.11247 -10.10783 -10.10587 -10.09511
  Beta  occ. eigenvalues --  -10.09385 -10.06851 -10.06496 -10.06453  -0.95413
  Beta  occ. eigenvalues --   -0.87223  -0.82587  -0.80934  -0.69655  -0.66748
  Beta  occ. eigenvalues --   -0.63585  -0.61018  -0.59527  -0.58006  -0.51203
  Beta  occ. eigenvalues --   -0.50715  -0.48387  -0.45103  -0.41387  -0.40419
  Beta  occ. eigenvalues --   -0.38918  -0.38088  -0.36923  -0.35103  -0.34966
  Beta  occ. eigenvalues --   -0.32865  -0.32772  -0.32104  -0.31770  -0.30172
  Beta  occ. eigenvalues --   -0.29242  -0.28935  -0.28586  -0.27999  -0.26509
  Beta  occ. eigenvalues --   -0.26174  -0.25437  -0.25189  -0.24643  -0.23528
  Beta  occ. eigenvalues --   -0.17557  -0.15571  -0.14130  -0.13014
  Beta virt. eigenvalues --    0.06598   0.07022   0.07976   0.08314   0.09140
  Beta virt. eigenvalues --    0.09634   0.09973   0.10516   0.10707   0.11598
  Beta virt. eigenvalues --    0.11726   0.12294   0.12688   0.13009   0.13816

 Mulliken charges and spin densities:
               1          2
     1  C    0.709838  -1.280305
     2  C   -1.601758   1.707381
     3  C    0.732270  -1.238030
     4  N    0.176882   0.020153
     5  C    0.465260  -1.355424
     6  C   -0.253517   0.680736
     7  C   -0.239036  -0.141791
     8  C    0.643711  -1.067874
     9  N   -0.373204   0.349490
    10  C    0.661382  -1.349417
    11  N    0.014006   0.021704
    12  C    0.094944   0.020902
    13  O   -0.403674   0.005789
    14  C   -0.032420  -0.233612
    15  H   -0.288982   0.444404
    16  H   -0.032380   0.181825
    17  H   -0.286819   0.435625
    18  H    0.078337   0.115705
    19  H   -0.228636   0.374232
    20  H    0.118170   0.056646
    21  H   -0.102376   0.250227
    22  H    0.282001  -0.105748
    23  H   -0.286122   0.483666
    24  H   -0.359734   0.530553
    25  H    0.102262   0.058827
    26  H    0.186988  -0.046179
    27  H   -0.590125   0.801472
    28  H   -0.124668   0.372232
    29  H    0.163924  -0.001705
    30  H   -0.542510   0.742378
    31  H    0.034561   0.096029
    32  H    0.097201   0.059680
    33  H    0.184225   0.010430
 Sum of Mulliken charges =  -1.00000   1.00000

 Dipole moment (field-independent basis, Debye):
    X=             -0.2575    Y=              6.6208    Z=              0.0871  Tot=              6.6264
 Quadrupole moment (field-independent basis, Debye-Ang):
   XX=           -153.9957   YY=           -142.3620   ZZ=           -121.9581
   XY=             12.1377   XZ=              0.0141   YZ=              0.3602

 Summary of Natural Population Analysis:

                                       Natural Population
                Natural  -----------------------------------------------
    Atom  No    Charge         Core      Valence    Rydberg      Total
 -----------------------------------------------------------------------
      C    1   -0.28817      0.99965     2.28289    0.00564     3.28817
      C    2   -0.00888      0.99961     1.99713    0.01214     3.00888
      C    3   -0.29356      0.99964     2.28872    0.00519     3.29356
      N    4   -0.26738      0.99963     2.75715    0.01060     3.76738
      C    5   -0.07761      0.99956     2.06554    0.01251     3.07761
      C    6    0.06110      0.99956     1.92230    0.01704     2.93890
      C    7   -0.20853      0.99959     2.19910    0.00985     3.20853
      C    8   -0.09027      0.99964     2.07910    0.01152     3.09027
      N    9   -0.33498      0.99976     2.82236    0.01285     3.83498
      C   10   -0.09077      0.99958     2.07859    0.01260     3.09077
      N   11   -0.26993      0.99961     2.76045    0.00988     3.76993
      C   12    0.41961      0.99963     1.55696    0.02380     2.58039
      O   13   -0.34155      0.99987     3.33699    0.00469     4.34155
      C   14   -0.17930      0.99965     2.17279    0.00686     3.17930
      H   15    0.10064      0.00000     0.39796    0.00140     0.39936
      H   16    0.10384      0.00000     0.39493    0.00123     0.39616
      H   17    0.10041      0.00000     0.39871    0.00088     0.39959
      H   18    0.10634      0.00000     0.39176    0.00190     0.39366
      H   19    0.09894      0.00000     0.40008    0.00098     0.40106
      H   20    0.10426      0.00000     0.39497    0.00077     0.39574
      H   21    0.09990      0.00000     0.39930    0.00080     0.40010
      H   22    0.09098      0.00000     0.40701    0.00201     0.40902
      H   23    0.10572      0.00000     0.39160    0.00268     0.39428
      H   24    0.10708      0.00000     0.39057    0.00234     0.39292
      H   25    0.10311      0.00000     0.39571    0.00118     0.39689
      H   26    0.08454      0.00000     0.41400    0.00146     0.41546
      H   27    0.10014      0.00000     0.39845    0.00142     0.39986
      H   28    0.17563      0.00000     0.31846    0.00592     0.32437
      H   29    0.09211      0.00000     0.40654    0.00135     0.40789
      H   30    0.10289      0.00000     0.39556    0.00154     0.39711
      H   31    0.09355      0.00000     0.40531    0.00114     0.40645
      H   32    0.08789      0.00000     0.41093    0.00118     0.41211
      H   33    0.11223      0.00000     0.38675    0.00102     0.38777
 =======================================================================
   * Total *    0.00000     13.99498    39.81865    0.18637    54.00000

 Normal termination of Gaussian 16 at Thu Dec 10 11:36:36 2020.
