 Gaussian 16, Revision A.03,

 -----------------------------------------------------------
 # opt freq B3LYP/6-31G(d) empiricaldispersion=gd3bj scf=xqc
 -----------------------------------------------------------

 -------------------------------
 CID_102981994_JID_8580_neutraal
 -------------------------------
 Symbolic Z-matrix:
 Charge =  0 Multiplicity = 1

 SCF Done:  E(RB3LYP) =  -822.751238282     A.U. after   14 cycles
 SCF Done:  E(RB3LYP) =  -822.755285728     A.U. after   13 cycles
 SCF Done:  E(RB3LYP) =  -822.754977913     A.U. after   13 cycles
 SCF Done:  E(RB3LYP) =  -822.756718576     A.U. after   12 cycles
 SCF Done:  E(RB3LYP) =  -822.757227021     A.U. after   12 cycles
 SCF Done:  E(RB3LYP) =  -822.757415690     A.U. after   12 cycles
 SCF Done:  E(RB3LYP) =  -822.757557315     A.U. after   11 cycles
 SCF Done:  E(RB3LYP) =  -822.757650440     A.U. after   12 cycles
 SCF Done:  E(RB3LYP) =  -822.757718720     A.U. after   11 cycles
 SCF Done:  E(RB3LYP) =  -822.757790217     A.U. after   12 cycles
 SCF Done:  E(RB3LYP) =  -822.761018461     A.U. after   11 cycles
 SCF Done:  E(RB3LYP) =  -822.761157254     A.U. after   11 cycles
 SCF Done:  E(RB3LYP) =  -822.761166471     A.U. after    9 cycles
 SCF Done:  E(RB3LYP) =  -822.761168051     A.U. after    9 cycles
 SCF Done:  E(RB3LYP) =  -822.761168149     A.U. after    7 cycles
 Optimization completed.
    -- Stationary point found.
 Normal termination of Gaussian 16 at Fri Dec 11 21:57:49 2020.

 --------------------------------------------------------------------
 #N Geom=AllCheck Guess=TCheck SCRF=Check GenChk RB3LYP/6-31G(d) Freq
 --------------------------------------------------------------------

 Structure from the checkpoint file:  "JID_8580.chk"
 -------------------------------
 CID_102981994_JID_8580_neutraal
 -------------------------------
 Charge =  0 Multiplicity = 1

 SCF Done:  E(RB3LYP) =  -822.761168149     A.U. after    1 cycles

  Exact polarizability: 180.874   3.087 198.513 -16.992  -3.509 116.758
 Approx polarizability: 242.346   7.246 291.315 -39.490  -6.664 197.898

                      1                      2                      3
                      A                      A                      A
 Frequencies --     26.5928                44.8020                52.5792
 Red. masses --      3.1712                 3.0334                 4.5034
 Frc consts  --      0.0013                 0.0036                 0.0073
 IR Inten    --      0.2619                 0.1485                 0.1361

                      4                      5                      6
                      A                      A                      A
 Frequencies --     58.8675                70.2780                81.8540
 Red. masses --      1.2305                 2.2927                 4.2506
 Frc consts  --      0.0025                 0.0067                 0.0168
 IR Inten    --      0.3238                 0.0584                 0.6443

                      7                      8                      9
                      A                      A                      A
 Frequencies --    100.7956               129.3398               150.7496
 Red. masses --      3.9239                 2.1172                 1.6915
 Frc consts  --      0.0235                 0.0209                 0.0226
 IR Inten    --      1.2871                 0.3109                 0.1685

                     10                     11                     12
                      A                      A                      A
 Frequencies --    157.0895               191.9368               206.7873
 Red. masses --      1.7886                 3.6375                 2.2958
 Frc consts  --      0.0260                 0.0790                 0.0578
 IR Inten    --      1.2507                 3.1457                 1.0704

                     13                     14                     15
                      A                      A                      A
 Frequencies --    213.9287               240.0989               246.7242
 Red. masses --      3.1459                 2.5928                 3.3210
 Frc consts  --      0.0848                 0.0881                 0.1191
 IR Inten    --      0.5968                 0.4924                 0.5346

                     16                     17                     18
                      A                      A                      A
 Frequencies --    264.1670               292.2929               304.3961
 Red. masses --      1.2088                 2.8319                 1.5930
 Frc consts  --      0.0497                 0.1425                 0.0870
 IR Inten    --      0.1019                 1.5676                84.2857

                     19                     20                     21
                      A                      A                      A
 Frequencies --    313.0162               344.7130               348.0338
 Red. masses --      1.5618                 3.2289                 2.9791
 Frc consts  --      0.0902                 0.2261                 0.2126
 IR Inten    --      1.1537                 4.6499                29.1529

                     22                     23                     24
                      A                      A                      A
 Frequencies --    363.0996               384.7661               411.3731
 Red. masses --      3.1542                 2.4740                 2.8573
 Frc consts  --      0.2450                 0.2158                 0.2849
 IR Inten    --     15.7513                 7.7696                 0.4672

                     25                     26                     27
                      A                      A                      A
 Frequencies --    441.4992               463.9528               490.4029
 Red. masses --      3.1016                 3.0448                 1.3028
 Frc consts  --      0.3562                 0.3862                 0.1846
 IR Inten    --      9.3048                 1.3061                10.3891

                     28                     29                     30
                      A                      A                      A
 Frequencies --    523.7913               536.9573               570.1624
 Red. masses --      3.1873                 4.7433                 3.0172
 Frc consts  --      0.5152                 0.8058                 0.5779
 IR Inten    --      1.6246                11.5585                30.2121

                     31                     32                     33
                      A                      A                      A
 Frequencies --    586.2354               606.0595               614.4678
 Red. masses --      4.4164                 3.6565                 4.7861
 Frc consts  --      0.8943                 0.7913                 1.0647
 IR Inten    --      6.7258                 8.5589                 7.5470

                     34                     35                     36
                      A                      A                      A
 Frequencies --    644.2513               681.1402               728.6020
 Red. masses --      1.5657                 4.3170                 4.2072
 Frc consts  --      0.3829                 1.1801                 1.3159
 IR Inten    --    226.0919                 3.8917                96.9310

                     37                     38                     39
                      A                      A                      A
 Frequencies --    750.7851               798.8819               811.7553
 Red. masses --      1.4181                 4.4485                 3.3966
 Frc consts  --      0.4710                 1.6728                 1.3187
 IR Inten    --      5.6542                 4.4450                43.7106

                     40                     41                     42
                      A                      A                      A
 Frequencies --    837.5018               878.5382               883.5927
 Red. masses --      1.9551                 1.4610                 1.9171
 Frc consts  --      0.8080                 0.6644                 0.8818
 IR Inten    --     12.2306                 1.7564                 1.0900

                     43                     44                     45
                      A                      A                      A
 Frequencies --    903.9916               927.6689               951.4416
 Red. masses --      1.6894                 2.0215                 8.6512
 Frc consts  --      0.8134                 1.0249                 4.6141
 IR Inten    --     19.5117                12.7113               103.2051

                     46                     47                     48
                      A                      A                      A
 Frequencies --    981.0405               999.7169              1023.0307
 Red. masses --      2.0780                 3.7621                 1.7512
 Frc consts  --      1.1784                 2.2153                 1.0798
 IR Inten    --     37.2034                 2.5633                25.1282

                     49                     50                     51
                      A                      A                      A
 Frequencies --   1026.2057              1059.6709              1068.2057
 Red. masses --      1.3086                 1.7196                 1.5721
 Frc consts  --      0.8120                 1.1377                 1.0569
 IR Inten    --      3.2591                16.3351                 7.3950

                     52                     53                     54
                      A                      A                      A
 Frequencies --   1076.1014              1078.3189              1087.5583
 Red. masses --      2.0485                 1.6043                 2.6777
 Frc consts  --      1.3976                 1.0991                 1.8660
 IR Inten    --     16.8459                 1.5893                72.0935

                     55                     56                     57
                      A                      A                      A
 Frequencies --   1106.6228              1147.4544              1169.2998
 Red. masses --      4.6413                 2.1210                 2.0155
 Frc consts  --      3.3488                 1.6454                 1.6236
 IR Inten    --     31.9770               113.7274                28.0342

                     58                     59                     60
                      A                      A                      A
 Frequencies --   1176.3118              1195.5176              1213.1243
 Red. masses --      1.6335                 2.0503                 1.4998
 Frc consts  --      1.3317                 1.7266                 1.3005
 IR Inten    --     24.6487                 9.5981                33.5151

                     61                     62                     63
                      A                      A                      A
 Frequencies --   1283.5855              1296.6067              1311.2961
 Red. masses --      1.3369                 8.0979                 1.2605
 Frc consts  --      1.2978                 8.0212                 1.2770
 IR Inten    --      0.7040                 0.7397                 4.4290

                     64                     65                     66
                      A                      A                      A
 Frequencies --   1345.1640              1345.8753              1373.6703
 Red. masses --      2.8610                 1.8447                 1.3175
 Frc consts  --      3.0501                 1.9687                 1.4647
 IR Inten    --     39.1111               104.5648                 5.8087

                     67                     68                     69
                      A                      A                      A
 Frequencies --   1389.5027              1406.7647              1417.9328
 Red. masses --      1.4468                 1.5642                 1.7137
 Frc consts  --      1.6458                 1.8238                 2.0300
 IR Inten    --     13.2665                 8.1899                11.5445

                     70                     71                     72
                      A                      A                      A
 Frequencies --   1424.6997              1435.6938              1439.1441
 Red. masses --      1.5517                 1.4427                 1.4891
 Frc consts  --      1.8556                 1.7520                 1.8171
 IR Inten    --      4.8600                 2.7516                 8.1699

                     73                     74                     75
                      A                      A                      A
 Frequencies --   1444.0523              1446.2448              1446.8807
 Red. masses --      1.5151                 1.3478                 1.4696
 Frc consts  --      1.8615                 1.6610                 1.8126
 IR Inten    --      5.9922                14.8460                 5.5780

                     76                     77                     78
                      A                      A                      A
 Frequencies --   1495.7194              1505.1871              1506.0632
 Red. masses --      2.0166                 1.0517                 1.1142
 Frc consts  --      2.6581                 1.4039                 1.4890
 IR Inten    --     23.2497                 9.2690                 7.8840

                     79                     80                     81
                      A                      A                      A
 Frequencies --   1514.0727              1515.6071              1520.5560
 Red. masses --      1.0664                 1.1967                 1.1222
 Frc consts  --      1.4403                 1.6196                 1.5287
 IR Inten    --      0.9587                22.8725                13.6848

                     82                     83                     84
                      A                      A                      A
 Frequencies --   1522.9620              1525.9662              1532.8910
 Red. masses --      1.3377                 1.0626                 1.0470
 Frc consts  --      1.8280                 1.4578                 1.4495
 IR Inten    --     37.8609                 5.8815                 4.3511

                     85                     86                     87
                      A                      A                      A
 Frequencies --   1536.5121              1543.2430              1605.4879
 Red. masses --      1.0606                 1.0715                 6.0920
 Frc consts  --      1.4753                 1.5036                 9.2517
 IR Inten    --      4.7031                 7.7235               103.8110

                     88                     89                     90
                      A                      A                      A
 Frequencies --   1638.2853              1664.2897              1721.9634
 Red. masses --      6.5526                 1.2612                 5.4248
 Frc consts  --     10.3620                 2.0582                 9.4772
 IR Inten    --    176.7841                21.1597               134.2883

                     91                     92                     93
                      A                      A                      A
 Frequencies --   3042.1767              3046.4072              3047.5494
 Red. masses --      1.0596                 1.0531                 1.0477
 Frc consts  --      5.7775                 5.7581                 5.7333
 IR Inten    --     23.5543                 4.7348                32.1089

                     94                     95                     96
                      A                      A                      A
 Frequencies --   3056.4436              3070.0258              3072.4298
 Red. masses --      1.0358                 1.0438                 1.0354
 Frc consts  --      5.7011                 5.7966                 5.7588
 IR Inten    --     20.8156                 5.2408                10.6240

                     97                     98                     99
                      A                      A                      A
 Frequencies --   3075.5185              3084.3806              3102.0829
 Red. masses --      1.0926                 1.0940                 1.0950
 Frc consts  --      6.0889                 6.1318                 6.2083
 IR Inten    --     13.8474                 3.3263                57.5804

                    100                    101                    102
                      A                      A                      A
 Frequencies --   3112.9136              3116.5003              3118.2709
 Red. masses --      1.1021                 1.1007                 1.1013
 Frc consts  --      6.2920                 6.2988                 6.3091
 IR Inten    --     46.9337                11.9880                45.7560

                    103                    104                    105
                      A                      A                      A
 Frequencies --   3133.4106              3136.6860              3137.8906
 Red. masses --      1.1000                 1.1010                 1.1033
 Frc consts  --      6.3633                 6.3825                 6.4007
 IR Inten    --      8.3134                34.8622                19.0726

                    106                    107                    108
                      A                      A                      A
 Frequencies --   3158.5357              3162.8608              3230.6417
 Red. masses --      1.1016                 1.1045                 1.0918
 Frc consts  --      6.4751                 6.5097                 6.7136
 IR Inten    --     12.9428                14.1008                 7.2903

                    109                    110                    111
                      A                      A                      A
 Frequencies --   3555.8166              3663.7390              3784.8753
 Red. masses --      1.0457                 1.1002                 1.0679
 Frc consts  --      7.7898                 8.7013                 9.0130
 IR Inten    --     26.7616                49.9625                79.3592

 - Thermochemistry -
 -------------------
 Temperature   298.150 Kelvin.  Pressure   1.00000 Atm.
 Atom     1 has atomic number  6 and mass  12.00000

 Molecular mass:   251.16338 amu.
 Principal axes and moments of inertia in atomic units:
                           1         2         3
     Eigenvalues --  3787.950235556.487828443.58542
           X            0.99986  -0.01639   0.00136
           Y            0.01639   0.99987  -0.00014
           Z           -0.00136   0.00016   1.00000
 This molecule is an asymmetric top.
 Rotational symmetry number  1.
 Warning -- assumption of classical behavior for rotation
           may cause significant error
 Rotational temperatures (Kelvin)      0.02287     0.01559     0.01026
 Rotational constants (GHZ):           0.47644     0.32480     0.21374
 Zero-point vibrational energy     879872.6 (Joules/Mol)
                                  210.29460 (Kcal/Mol)
 Warning -- explicit consideration of  33 degrees of freedom as
           vibrations may cause significant error
 Vibrational temperatures:     38.26    64.46    75.65    84.70   101.11
          (Kelvin)            117.77   145.02   186.09   216.90   226.02
                              276.15   297.52   307.80   345.45   354.98
                              380.08   420.54   437.96   450.36   495.97
                              500.74   522.42   553.59   591.87   635.22
                              667.52   705.58   753.62   772.56   820.34
                              843.46   871.98   884.08   926.93   980.01
                             1048.30  1080.21  1149.41  1167.93  1204.98
                             1264.02  1271.29  1300.64  1334.71  1368.91
                             1411.50  1438.37  1471.91  1476.48  1524.63
                             1536.91  1548.27  1551.46  1564.75  1592.18
                             1650.93  1682.36  1692.45  1720.08  1745.42
                             1846.79  1865.53  1886.66  1935.39  1936.41
                             1976.41  1999.18  2024.02  2040.09  2049.83
                             2065.64  2070.61  2077.67  2080.82  2081.74
                             2152.01  2165.63  2166.89  2178.41  2180.62
                             2187.74  2191.20  2195.52  2205.49  2210.70
                             2220.38  2309.94  2357.13  2394.54  2477.52
                             4377.01  4383.10  4384.74  4397.54  4417.08
                             4420.54  4424.99  4437.74  4463.21  4478.79
                             4483.95  4486.50  4508.28  4512.99  4514.72
                             4544.43  4550.65  4648.17  5116.03  5271.30
                             5445.59

 Zero-point correction=                           0.335126 (Hartree/Particle)
 Thermal correction to Energy=                    0.354984
 Thermal correction to Enthalpy=                  0.355928
 Thermal correction to Gibbs Free Energy=         0.286438
 Sum of electronic and zero-point Energies=           -822.426042
 Sum of electronic and thermal Energies=              -822.406184
 Sum of electronic and thermal Enthalpies=            -822.405240
 Sum of electronic and thermal Free Energies=         -822.474730

                     E (Thermal)             CV                S
                      KCal/Mol        Cal/Mol-Kelvin    Cal/Mol-Kelvin
 Total                  222.756             74.076            146.254
 Electronic               0.000              0.000              0.000
 Translational            0.889              2.981             42.463
 Rotational               0.889              2.981             33.541
 Vibrational            220.978             68.115             70.250
 Vibration     1          0.593              1.984              6.069
 Vibration     2          0.595              1.979              5.035
 Vibration     3          0.596              1.977              4.718
 Vibration     4          0.596              1.974              4.495
 Vibration     5          0.598              1.968              4.146
 Vibration     6          0.600              1.962              3.846
 Vibration     7          0.604              1.948              3.439
 Vibration     8          0.612              1.924              2.956
 Vibration     9          0.618              1.902              2.663
 Vibration    10          0.621              1.895              2.585
 Vibration    11          0.634              1.851              2.209
 Vibration    12          0.641              1.830              2.072
 Vibration    13          0.644              1.820              2.010
 Vibration    14          0.657              1.779              1.802
 Vibration    15          0.661              1.768              1.754
 Vibration    16          0.671              1.739              1.634
 Vibration    17          0.688              1.688              1.461
 Vibration    18          0.695              1.665              1.393
 Vibration    19          0.701              1.649              1.346
 Vibration    20          0.723              1.586              1.190
 Vibration    21          0.726              1.579              1.175
 Vibration    22          0.737              1.548              1.109
 Vibration    23          0.754              1.503              1.020
 Vibration    24          0.775              1.446              0.922
 Vibration    25          0.801              1.380              0.822
 Vibration    26          0.821              1.330              0.755
 Vibration    27          0.846              1.271              0.683
 Vibration    28          0.879              1.197              0.601
 Vibration    29          0.892              1.168              0.572
 Vibration    30          0.926              1.096              0.504
 Vibration    31          0.943              1.061              0.474
 Vibration    32          0.965              1.019              0.439
 Vibration    33          0.974              1.001              0.425

 Optimization completed.
    -- Stationary point found.
 Normal termination of Gaussian 16 at Fri Dec 11 22:16:51 2020.

 ----------------------------------------------------------------------
 # B3LYP/6-311++G(d,p) empiricaldispersion=gd3bj scf=xqc pop=npa geom=c
 heck
 ----------------------------------------------------------------------

 ---------------------------------------
 CID_102981994_JID_8580_Energie_neutraal
 ---------------------------------------
 Structure from the checkpoint file:  "JID_8580.chk"
 Charge =  0 Multiplicity = 1

 SCF Done:  E(RB3LYP) =  -823.001483449     A.U. after   15 cycles
 Normal termination of Gaussian 16 at Fri Dec 11 22:25:35 2020.

 ----------------------------------------------------------------------
 # B3LYP/6-311++G(d,p) empiricaldispersion=gd3bj scf=xqc pop=npa geom=c
 heck
 ----------------------------------------------------------------------

 -------------------------------------
 CID_102981994_JID_8580_Energie_kation
 -------------------------------------
 Structure from the checkpoint file:  "JID_8580.chk"
 Charge =  1 Multiplicity = 2

 SCF Done:  E(UB3LYP) =  -822.711858704     A.U. after   26 cycles
 Normal termination of Gaussian 16 at Fri Dec 11 22:46:32 2020.
 Gaussian 16:  ES64L-G16RevA.03 25-Dec-2016

 ----------------------------------------------------------------------
 # B3LYP/6-311++G(d,p) empiricaldispersion=gd3bj scf=xqc pop=npa geom=c
 heck
 ----------------------------------------------------------------------

 ------------------------------------
 CID_102981994_JID_8580_Energie_anion
 ------------------------------------
 Structure from the checkpoint file:  "JID_8580.chk"
 Charge = -1 Multiplicity = 2

                         Standard orientation:
 ---------------------------------------------------------------------
 Center     Atomic      Atomic             Coordinates (Angstroms)
 Number     Number       Type             X           Y           Z
 ---------------------------------------------------------------------
      1          6           0        5.130523   -0.365790    0.039756
      2          6           0        4.131971    0.446957    0.870306
      3          6           0        2.806471    0.746958    0.151497
      4          6           0        2.030353   -0.492673   -0.302949
      5          6           0        1.589470   -1.393289    0.844991
      6          8           0        0.910431   -0.119111   -1.165412
      7          6           0       -0.152726    0.568738   -0.620894
      8          6           0       -1.317032   -0.112270   -0.228996
      9          6           0       -2.398688    0.670123    0.242184
     10          7           0       -2.332697    2.004238    0.335913
     11          6           0       -1.215099    2.642069   -0.045873
     12          6           0       -0.106881    1.959942   -0.542614
     13          6           0       -1.227451    4.143120    0.080563
     14          6           0       -3.712602    0.060348    0.660508
     15          6           0       -1.396858   -1.592157   -0.332659
     16          7           0       -1.852754   -2.236805    0.691771
     17          8           0       -1.812778   -3.639650    0.415723
     18          7           0       -1.010956   -2.183288   -1.516798
     19          1           0        4.771702   -1.382977   -0.153882
     20          1           0        6.091439   -0.452563    0.558154
     21          1           0        5.315849    0.110695   -0.930714
     22          1           0        3.934600   -0.068609    1.818419
     23          1           0        4.588840    1.406783    1.141943
     24          1           0        2.169042    1.344126    0.814148
     25          1           0        3.008922    1.358939   -0.737068
     26          1           0        2.649936   -1.068981   -0.995418
     27          1           0        0.926417   -0.862951    1.535706
     28          1           0        1.060145   -2.273780    0.474630
     29          1           0        2.465156   -1.733201    1.406987
     30          1           0        0.776774    2.488233   -0.879657
     31          1           0       -2.054926    4.565793   -0.499649
     32          1           0       -1.388400    4.433928    1.124718
     33          1           0       -0.290258    4.587677   -0.266794
     34          1           0       -3.617839   -0.447833    1.624614
     35          1           0       -4.453576    0.857671    0.744735
     36          1           0       -4.052780   -0.693361   -0.055745
     37          1           0       -2.125517   -4.010876    1.253069
     38          1           0       -0.277977   -1.686281   -2.007161
     39          1           0       -0.872631   -3.183816   -1.444650
 ---------------------------------------------------------------------

 SCF Done:  E(UB3LYP) =  -822.995435290     A.U. after   33 cycles
 SCF Done:  E(UB3LYP) =  -822.995435290     a.u. after    1 cycles

 The electronic state is 2-A.
 Alpha  occ. eigenvalues --  -19.04946 -19.03372 -14.22527 -14.21010 -14.18368
 Alpha  occ. eigenvalues --  -10.12741 -10.12657 -10.12052 -10.10738 -10.09562
 Alpha  occ. eigenvalues --  -10.07489 -10.07040 -10.06852 -10.06836 -10.06340
 Alpha  occ. eigenvalues --  -10.06256 -10.05696 -10.05375  -0.96367  -0.94730
 Alpha  occ. eigenvalues --   -0.83260  -0.81944  -0.72278  -0.71434  -0.68591
 Alpha  occ. eigenvalues --   -0.68087  -0.64533  -0.61593  -0.59583  -0.58639
 Alpha  occ. eigenvalues --   -0.54227  -0.51007  -0.49303  -0.47030  -0.44944
 Alpha  occ. eigenvalues --   -0.42625  -0.41778  -0.39933  -0.39284  -0.38624
 Alpha  occ. eigenvalues --   -0.36510  -0.34933  -0.33791  -0.33509  -0.33011
 Alpha  occ. eigenvalues --   -0.32634  -0.32480  -0.31189  -0.30768  -0.30106
 Alpha  occ. eigenvalues --   -0.30033  -0.29228  -0.28255  -0.27846  -0.26827
 Alpha  occ. eigenvalues --   -0.26652  -0.25596  -0.25209  -0.24468  -0.23387
 Alpha  occ. eigenvalues --   -0.22360  -0.21838  -0.17733  -0.17528  -0.15894
 Alpha  occ. eigenvalues --   -0.14711  -0.14461  -0.11381   0.04132
 Alpha virt. eigenvalues --    0.06079   0.06936   0.07181   0.07904   0.08443
 Alpha virt. eigenvalues --    0.08671   0.08971   0.09410   0.09871   0.10463
 Alpha virt. eigenvalues --    0.11072   0.11331   0.11908   0.12137   0.12627

  Beta  occ. eigenvalues --  -19.04895 -19.03379 -14.22442 -14.20970 -14.18269
  Beta  occ. eigenvalues --  -10.12729 -10.12613 -10.11826 -10.10764 -10.09389
  Beta  occ. eigenvalues --  -10.07476 -10.06955 -10.06866 -10.06828 -10.06317
  Beta  occ. eigenvalues --  -10.06299 -10.05681 -10.05373  -0.96234  -0.94640
  Beta  occ. eigenvalues --   -0.83082  -0.81839  -0.72139  -0.71353  -0.68449
  Beta  occ. eigenvalues --   -0.67898  -0.64470  -0.61536  -0.59524  -0.58576
  Beta  occ. eigenvalues --   -0.54089  -0.50867  -0.49207  -0.46945  -0.44812
  Beta  occ. eigenvalues --   -0.42554  -0.41668  -0.39830  -0.39176  -0.38541
  Beta  occ. eigenvalues --   -0.36451  -0.34861  -0.33729  -0.33311  -0.32895
  Beta  occ. eigenvalues --   -0.32557  -0.32409  -0.31112  -0.30724  -0.30036
  Beta  occ. eigenvalues --   -0.29848  -0.29163  -0.28170  -0.27786  -0.26783
  Beta  occ. eigenvalues --   -0.26592  -0.25466  -0.25020  -0.24405  -0.23348
  Beta  occ. eigenvalues --   -0.22228  -0.21659  -0.17622  -0.17484  -0.15264
  Beta  occ. eigenvalues --   -0.14581  -0.14050  -0.11010
  Beta virt. eigenvalues --    0.06404   0.07006   0.07288   0.08087   0.08321
  Beta virt. eigenvalues --    0.08723   0.08982   0.09125   0.09516   0.10109
  Beta virt. eigenvalues --    0.10569   0.11106   0.11491   0.12123   0.12209

 Mulliken charges and spin densities:
               1          2
     1  C    0.974409  -1.580968
     2  C   -1.186170   0.815473
     3  C    0.351601  -0.554229
     4  C    0.126393  -0.058182
     5  C   -0.447648  -0.271872
     6  O   -0.122564   0.007902
     7  C   -0.195816  -0.135234
     8  C    1.330500   0.132658
     9  C   -0.658490   0.099794
    10  N    0.057543   0.072043
    11  C   -0.176150   0.113515
    12  C    0.413629  -0.114948
    13  C   -0.278923  -0.229303
    14  C   -0.413645  -0.090876
    15  C   -0.587730  -0.516804
    16  N   -0.339547   0.125398
    17  O   -0.122288   0.007938
    18  N   -0.373338   0.086443
    19  H   -0.260342   0.406459
    20  H   -0.420186   0.564168
    21  H   -0.134629   0.274834
    22  H    0.115865   0.018463
    23  H   -0.194645   0.347181
    24  H    0.148785   0.010464
    25  H    0.070051   0.093902
    26  H   -0.093052   0.322844
    27  H    0.131156   0.058197
    28  H    0.116801   0.082084
    29  H   -0.046596   0.199110
    30  H    0.032712   0.129307
    31  H    0.157909  -0.005348
    32  H    0.099807   0.056989
    33  H    0.106791   0.026501
    34  H    0.166550   0.021964
    35  H    0.142805  -0.006269
    36  H    0.143912   0.021044
    37  H    0.107134   0.155582
    38  H    0.189126   0.102304
    39  H    0.068281   0.211472
 Sum of Mulliken charges =  -1.00000   1.00000

 Dipole moment (field-independent basis, Debye):
    X=             -3.4490    Y=              2.2849    Z=              0.7306  Tot=              4.2012
 Quadrupole moment (field-independent basis, Debye-Ang):
   XX=           -193.3354   YY=           -151.7937   ZZ=           -132.2693
   XY=              4.4133   XZ=              1.0261   YZ=             -3.9400

 Summary of Natural Population Analysis:

                                       Natural Population
                Natural  -----------------------------------------------
    Atom  No    Charge         Core      Valence    Rydberg      Total
 -----------------------------------------------------------------------
      C    1   -0.28832      0.99967     2.28367    0.00499     3.28832
      C    2   -0.18985      0.99964     2.18164    0.00857     3.18985
      C    3   -0.20494      0.99960     2.19565    0.00969     3.20494
      C    4    0.07487      0.99951     1.91222    0.01339     2.92513
      C    5   -0.30614      0.99963     2.29959    0.00692     3.30614
      O    6   -0.30815      0.99986     3.29770    0.01060     4.30815
      C    7    0.21685      0.99933     1.77020    0.01362     2.78315
      C    8   -0.07216      0.99936     2.06319    0.00960     3.07216
      C    9    0.12940      0.99954     1.85908    0.01198     2.87060
      N   10   -0.24939      0.99965     2.73833    0.01141     3.74939
      C   11    0.13867      0.99956     1.85027    0.01150     2.86133
      C   12   -0.15914      0.99946     2.15181    0.00788     3.15914
      C   13   -0.29694      0.99964     2.29191    0.00539     3.29694
      C   14   -0.30005      0.99963     2.29513    0.00529     3.30005
      C   15    0.19470      0.99960     1.78620    0.01950     2.80530
      N   16   -0.12046      0.99961     2.60798    0.01286     3.62046
      O   17   -0.30662      0.99990     3.30003    0.00668     4.30662
      N   18   -0.40359      0.99969     2.89512    0.00878     3.90359
      H   19    0.09743      0.00000     0.40130    0.00128     0.40257
      H   20    0.09991      0.00000     0.39883    0.00126     0.40009
      H   21    0.09709      0.00000     0.40170    0.00120     0.40291
      H   22    0.09360      0.00000     0.40531    0.00109     0.40640
      H   23    0.09607      0.00000     0.40297    0.00096     0.40393
      H   24    0.10167      0.00000     0.39707    0.00126     0.39833
      H   25    0.09958      0.00000     0.39922    0.00120     0.40042
      H   26    0.09140      0.00000     0.40659    0.00201     0.40860
      H   27    0.10460      0.00000     0.39433    0.00106     0.39540
      H   28    0.10969      0.00000     0.38876    0.00155     0.39031
      H   29    0.10179      0.00000     0.39732    0.00089     0.39821
      H   30    0.10449      0.00000     0.39408    0.00142     0.39551
      H   31    0.10445      0.00000     0.39447    0.00107     0.39555
      H   32    0.10492      0.00000     0.39362    0.00146     0.39508
      H   33    0.09596      0.00000     0.40330    0.00074     0.40404
      H   34    0.11051      0.00000     0.38815    0.00134     0.38949
      H   35    0.10243      0.00000     0.39644    0.00113     0.39757
      H   36    0.10513      0.00000     0.39392    0.00095     0.39487
      H   37    0.23401      0.00000     0.26247    0.00352     0.26599
      H   38    0.20019      0.00000     0.29788    0.00193     0.29981
      H   39    0.19632      0.00000     0.30166    0.00202     0.30368
 =======================================================================
   * Total *   -0.00000     17.99289    49.79909    0.20802    68.00000

 Normal termination of Gaussian 16 at Fri Dec 11 23:13:08 2020.
