 Gaussian 16, Revision A.03,

 -----------------------------------------------------------
 # opt freq B3LYP/6-31G(d) empiricaldispersion=gd3bj scf=xqc
 -----------------------------------------------------------

 ------------------------------
 CID_79506900_JID_3404_neutraal
 ------------------------------
 Symbolic Z-matrix:
 Charge =  0 Multiplicity = 1

 SCF Done:  E(RB3LYP) =  -1035.51466230     A.U. after   14 cycles
 SCF Done:  E(RB3LYP) =  -1035.52005201     A.U. after   13 cycles
 SCF Done:  E(RB3LYP) =  -1035.52160874     A.U. after   12 cycles
 SCF Done:  E(RB3LYP) =  -1035.52195191     A.U. after   12 cycles
 SCF Done:  E(RB3LYP) =  -1035.52209245     A.U. after   12 cycles
 SCF Done:  E(RB3LYP) =  -1035.52215572     A.U. after   12 cycles
 SCF Done:  E(RB3LYP) =  -1035.52223676     A.U. after   10 cycles
 SCF Done:  E(RB3LYP) =  -1035.52229317     A.U. after   11 cycles
 SCF Done:  E(RB3LYP) =  -1035.52230317     A.U. after   10 cycles
 SCF Done:  E(RB3LYP) =  -1035.52231077     A.U. after   10 cycles
 SCF Done:  E(RB3LYP) =  -1035.52232163     A.U. after    9 cycles
 SCF Done:  E(RB3LYP) =  -1035.52232283     A.U. after    9 cycles
 SCF Done:  E(RB3LYP) =  -1035.52232372     A.U. after    9 cycles
 SCF Done:  E(RB3LYP) =  -1035.52232410     A.U. after    9 cycles
 SCF Done:  E(RB3LYP) =  -1035.52232434     A.U. after    8 cycles
 SCF Done:  E(RB3LYP) =  -1035.52232442     A.U. after    7 cycles
 Optimization completed.
    -- Stationary point found.
 Normal termination of Gaussian 16 at Wed Dec  9 23:10:40 2020.

 --------------------------------------------------------------------
 #N Geom=AllCheck Guess=TCheck SCRF=Check GenChk RB3LYP/6-31G(d) Freq
 --------------------------------------------------------------------

 Structure from the checkpoint file:  "JID_3404.chk"
 ------------------------------
 CID_79506900_JID_3404_neutraal
 ------------------------------
 Charge =  0 Multiplicity = 1

 SCF Done:  E(RB3LYP) =  -1035.52232442     A.U. after    1 cycles

  Exact polarizability:  97.623  -1.946 100.859  -9.686  -1.133  91.436
 Approx polarizability: 128.209  -6.770 176.348 -25.019  -0.478 149.057

                      1                      2                      3
                      A                      A                      A
 Frequencies --     22.7903                29.5649                48.7421
 Red. masses --      5.7025                 5.8297                 8.3079
 Frc consts  --      0.0017                 0.0030                 0.0116
 IR Inten    --      6.8350                 0.6439                 7.9959

                      4                      5                      6
                      A                      A                      A
 Frequencies --     92.2741               142.5214               161.1655
 Red. masses --      4.7411                 5.0397                 2.3646
 Frc consts  --      0.0238                 0.0603                 0.0362
 IR Inten    --      1.8825                 0.2656                 1.7595

                      7                      8                      9
                      A                      A                      A
 Frequencies --    190.2917               205.7021               275.3559
 Red. masses --      1.5878                 3.1818                 1.1728
 Frc consts  --      0.0339                 0.0793                 0.0524
 IR Inten    --     30.8307                 1.6822                35.2534

                     10                     11                     12
                      A                      A                      A
 Frequencies --    294.6241               305.0782               318.9406
 Red. masses --      3.1194                 2.6617                 3.2037
 Frc consts  --      0.1595                 0.1460                 0.1920
 IR Inten    --      0.8506                 6.6339                 4.2735

                     13                     14                     15
                      A                      A                      A
 Frequencies --    335.5137               402.9333               437.0599
 Red. masses --      3.5626                 3.8585                 4.0884
 Frc consts  --      0.2363                 0.3691                 0.4601
 IR Inten    --      3.2055                 4.1969                 8.5006

                     16                     17                     18
                      A                      A                      A
 Frequencies --    456.1691               463.7619               545.6324
 Red. masses --      3.5219                 6.7082                 4.5272
 Frc consts  --      0.4318                 0.8501                 0.7941
 IR Inten    --     28.1189                11.8176                27.7879

                     19                     20                     21
                      A                      A                      A
 Frequencies --    667.3325               671.7685               683.7435
 Red. masses --      2.3459                 3.0571                 3.3313
 Frc consts  --      0.6155                 0.8128                 0.9176
 IR Inten    --     92.3243                24.0509               167.6374

                     22                     23                     24
                      A                      A                      A
 Frequencies --    712.1327               741.1026               751.2083
 Red. masses --      5.2835                 2.5661                 3.3708
 Frc consts  --      1.5787                 0.8304                 1.1207
 IR Inten    --     32.3096                30.5206                25.8607

                     25                     26                     27
                      A                      A                      A
 Frequencies --    774.0044               802.6969               884.3953
 Red. masses --      2.9014                 1.5960                 1.9278
 Frc consts  --      1.0241                 0.6059                 0.8884
 IR Inten    --     70.2195                26.9735                24.5884

                     28                     29                     30
                      A                      A                      A
 Frequencies --    905.5329               984.1892              1002.8572
 Red. masses --      2.3649                 2.6953                 3.7113
 Frc consts  --      1.1426                 1.5382                 2.1992
 IR Inten    --     94.1257                 2.2502                12.6574

                     31                     32                     33
                      A                      A                      A
 Frequencies --   1049.2260              1075.5618              1102.8293
 Red. masses --      3.5475                 2.1946                 1.5992
 Frc consts  --      2.3010                 1.4958                 1.1460
 IR Inten    --     31.1940                 5.3060                19.7504

                     34                     35                     36
                      A                      A                      A
 Frequencies --   1107.6891              1127.8985              1144.0711
 Red. masses --      2.4831                 2.8579                 3.3202
 Frc consts  --      1.7951                 2.1421                 2.5604
 IR Inten    --     36.2693                56.9423                89.6119

                     37                     38                     39
                      A                      A                      A
 Frequencies --   1146.5786              1208.5218              1284.1925
 Red. masses --      2.8453                 1.5028                 1.6425
 Frc consts  --      2.2039                 1.2931                 1.5960
 IR Inten    --     30.6166                 9.0979                 2.9786

                     40                     41                     42
                      A                      A                      A
 Frequencies --   1304.8341              1327.4135              1332.5332
 Red. masses --      2.8374                 1.9053                 1.4877
 Frc consts  --      2.8463                 1.9780                 1.5564
 IR Inten    --      6.8967                27.0189                54.2931

                     43                     44                     45
                      A                      A                      A
 Frequencies --   1357.7232              1377.1454              1408.6164
 Red. masses --      3.1482                 3.1714                 1.3870
 Frc consts  --      3.4193                 3.5438                 1.6215
 IR Inten    --    111.2621                27.2017                25.0236

                     46                     47                     48
                      A                      A                      A
 Frequencies --   1417.7520              1485.2140              1507.3517
 Red. masses --      1.4694                 1.1006                 1.1992
 Frc consts  --      1.7401                 1.4304                 1.6054
 IR Inten    --      4.3436                 4.8729                14.7074

                     49                     50                     51
                      A                      A                      A
 Frequencies --   1522.5401              1533.6996              1616.0748
 Red. masses --      1.1397                 3.2220                 2.9712
 Frc consts  --      1.5566                 4.4653                 4.5720
 IR Inten    --     19.4071                51.5529                66.0131

                     52                     53                     54
                      A                      A                      A
 Frequencies --   1624.4861              1689.4425              3073.5916
 Red. masses --      1.0961                 1.4676                 1.0647
 Frc consts  --      1.7043                 2.4681                 5.9261
 IR Inten    --     44.0273               160.9524                19.6669

                     55                     56                     57
                      A                      A                      A
 Frequencies --   3080.7421              3094.4256              3125.0189
 Red. masses --      1.0613                 1.0605                 1.1041
 Frc consts  --      5.9346                 5.9831                 6.3530
 IR Inten    --     12.8072                 3.2657                 3.7404

                     58                     59                     60
                      A                      A                      A
 Frequencies --   3140.4369              3155.9248              3495.2474
 Red. masses --      1.1009                 1.1053                 1.0471
 Frc consts  --      6.3973                 6.4859                 7.5372
 IR Inten    --      6.5558                 2.6102                34.1351

                     61                     62                     63
                      A                      A                      A
 Frequencies --   3541.4679              3604.5704              3639.6009
 Red. masses --      1.0482                 1.0977                 1.0977
 Frc consts  --      7.7459                 8.4033                 8.5675
 IR Inten    --     27.4533                37.3376                31.3426

 - Thermochemistry -
 -------------------
 Temperature   298.150 Kelvin.  Pressure   1.00000 Atm.
 Atom     1 has atomic number  6 and mass  12.00000

 Molecular mass:   206.05860 amu.
 Principal axes and moments of inertia in atomic units:
                           1         2         3
     Eigenvalues --  1309.356205013.101255178.98198
           X            0.99991   0.01276   0.00505
           Y           -0.01268   0.99981  -0.01469
           Z           -0.00523   0.01462   0.99988
 This molecule is an asymmetric top.
 Rotational symmetry number  1.
 Warning -- assumption of classical behavior for rotation
           may cause significant error
 Rotational temperatures (Kelvin)      0.06615     0.01728     0.01672
 Rotational constants (GHZ):           1.37834     0.36000     0.34847
 Zero-point vibrational energy     466612.4 (Joules/Mol)
                                  111.52305 (Kcal/Mol)
 Warning -- explicit consideration of  18 degrees of freedom as
           vibrations may cause significant error
 Vibrational temperatures:     32.79    42.54    70.13   132.76   205.06
          (Kelvin)            231.88   273.79   295.96   396.18   423.90
                              438.94   458.88   482.73   579.73   628.83
                              656.33   667.25   785.04   960.14   966.52
                              983.75  1024.60  1066.28  1080.82  1113.62
                             1154.90  1272.45  1302.86  1416.03  1442.89
                             1509.60  1547.49  1586.73  1593.72  1622.79
                             1646.06  1649.67  1738.79  1847.67  1877.37
                             1909.85  1917.22  1953.46  1981.41  2026.68
                             2039.83  2136.89  2168.74  2190.60  2206.65
                             2325.17  2337.27  2430.73  4422.21  4432.50
                             4452.19  4496.21  4518.39  4540.67  5028.88
                             5095.38  5186.17  5236.57

 Zero-point correction=                           0.177723 (Hartree/Particle)
 Thermal correction to Energy=                    0.190982
 Thermal correction to Enthalpy=                  0.191926
 Thermal correction to Gibbs Free Energy=         0.135691
 Sum of electronic and zero-point Energies=          -1035.344601
 Sum of electronic and thermal Energies=             -1035.331343
 Sum of electronic and thermal Enthalpies=           -1035.330399
 Sum of electronic and thermal Free Energies=        -1035.386634

                     E (Thermal)             CV                S
                      KCal/Mol        Cal/Mol-Kelvin    Cal/Mol-Kelvin
 Total                  119.843             47.948            118.357
 Electronic               0.000              0.000              0.000
 Translational            0.889              2.981             41.873
 Rotational               0.889              2.981             31.897
 Vibrational            118.065             41.987             44.586
 Vibration     1          0.593              1.985              6.375
 Vibration     2          0.593              1.984              5.858
 Vibration     3          0.595              1.978              4.868
 Vibration     4          0.602              1.955              3.611
 Vibration     5          0.616              1.911              2.770
 Vibration     6          0.622              1.890              2.536
 Vibration     7          0.634              1.853              2.225
 Vibration     8          0.640              1.832              2.081
 Vibration     9          0.677              1.719              1.562
 Vibration    10          0.689              1.684              1.447
 Vibration    11          0.696              1.664              1.389
 Vibration    12          0.705              1.637              1.316
 Vibration    13          0.717              1.605              1.233
 Vibration    14          0.768              1.464              0.952
 Vibration    15          0.797              1.389              0.836
 Vibration    16          0.814              1.347              0.777
 Vibration    17          0.821              1.330              0.755
 Vibration    18          0.901              1.149              0.553

                           ! Non-Optimized Parameters !
 Normal termination of Gaussian 16 at Wed Dec  9 23:16:22 2020.

 ----------------------------------------------------------------------
 # B3LYP/6-311++G(d,p) empiricaldispersion=gd3bj scf=xqc pop=npa geom=c
 heck
 ----------------------------------------------------------------------

 --------------------------------------
 CID_79506900_JID_3404_Energie_neutraal
 --------------------------------------
 Structure from the checkpoint file:  "JID_3404.chk"
 Charge =  0 Multiplicity = 1

 SCF Done:  E(RB3LYP) =  -1035.74446498     A.U. after   15 cycles
 Normal termination of Gaussian 16 at Wed Dec  9 23:18:57 2020.

 ----------------------------------------------------------------------
 # B3LYP/6-311++G(d,p) empiricaldispersion=gd3bj scf=xqc pop=npa geom=c
 heck
 ----------------------------------------------------------------------

 ------------------------------------
 CID_79506900_JID_3404_Energie_kation
 ------------------------------------
 Structure from the checkpoint file:  "JID_3404.chk"
 Charge =  1 Multiplicity = 2

 SCF Done:  E(UB3LYP) =  -1035.39514818     A.U. after   30 cycles
 Normal termination of Gaussian 16 at Wed Dec  9 23:26:17 2020.
 Gaussian 16:  ES64L-G16RevA.03 25-Dec-2016

 ----------------------------------------------------------------------
 # B3LYP/6-311++G(d,p) empiricaldispersion=gd3bj scf=xqc pop=npa geom=c
 heck
 ----------------------------------------------------------------------

 -----------------------------------
 CID_79506900_JID_3404_Energie_anion
 -----------------------------------
 Structure from the checkpoint file:  "JID_3404.chk"
 Charge = -1 Multiplicity = 2

                         Standard orientation:
 ---------------------------------------------------------------------
 Center     Atomic      Atomic             Coordinates (Angstroms)
 Number     Number       Type             X           Y           Z
 ---------------------------------------------------------------------
      1          6           0        0.252075   -0.960389   -0.888045
      2          6           0       -1.130296   -0.764290   -1.520246
      3          7           0       -2.024291   -0.014688   -0.653330
      4          6           0       -2.669207   -0.391443    0.472925
      5          7           0       -3.225981    0.673409    1.027765
      6          7           0       -2.891648    1.720919    0.221932
      7          7           0       -2.180752    1.342571   -0.782643
      8          7           0       -2.661322   -1.671048    0.984891
      9          6           0        0.978526    0.367440   -0.700173
     10         16           0        2.573917    0.161480    0.117828
     11          8           0        3.270748   -0.970228   -0.503014
     12          8           0        3.189611    1.486056    0.224507
     13          7           0        2.099090   -0.361582    1.663668
     14          1           0        0.848519   -1.616621   -1.529325
     15          1           0        0.137033   -1.457080    0.081174
     16          1           0       -1.071756   -0.205287   -2.457304
     17          1           0       -1.588988   -1.734250   -1.740836
     18          1           0       -3.304765   -1.760735    1.763437
     19          1           0       -2.792348   -2.410937    0.304138
     20          1           0        1.214929    0.846660   -1.655754
     21          1           0        0.408163    1.079835   -0.098807
     22          1           0        2.656616   -1.175688    1.914534
     23          1           0        2.234801    0.388820    2.338811
 ---------------------------------------------------------------------

 SCF Done:  E(UB3LYP) =  -1035.74895165     A.U. after   30 cycles

 The electronic state is 2-A.
 Alpha  occ. eigenvalues --  -88.97862 -19.03531 -19.03426 -14.30929 -14.28190
 Alpha  occ. eigenvalues --  -14.27263 -14.25771 -14.24050 -14.23082 -10.18616
 Alpha  occ. eigenvalues --  -10.13958 -10.12666 -10.10100  -8.04107  -6.00405
 Alpha  occ. eigenvalues --   -6.00349  -6.00152  -1.03766  -1.03669  -0.92834
 Alpha  occ. eigenvalues --   -0.86412  -0.84762  -0.82658  -0.76097  -0.73192
 Alpha  occ. eigenvalues --   -0.66376  -0.58106  -0.57002  -0.53256  -0.51411
 Alpha  occ. eigenvalues --   -0.45711  -0.44679  -0.43456  -0.42090  -0.42032
 Alpha  occ. eigenvalues --   -0.40424  -0.39687  -0.37957  -0.36296  -0.35171
 Alpha  occ. eigenvalues --   -0.32781  -0.30065  -0.28719  -0.28058  -0.27426
 Alpha  occ. eigenvalues --   -0.26112  -0.24322  -0.23590  -0.22760  -0.21195
 Alpha  occ. eigenvalues --   -0.20842  -0.20282  -0.19181  -0.15613   0.03321
 Alpha virt. eigenvalues --    0.05646   0.07177   0.08190   0.08854   0.09580
 Alpha virt. eigenvalues --    0.10373   0.10979   0.11872   0.12295   0.12983
 Alpha virt. eigenvalues --    0.13552   0.13866   0.14438   0.14820   0.15161

  Beta  occ. eigenvalues --  -88.97854 -19.03520 -19.03416 -14.30929 -14.28188
  Beta  occ. eigenvalues --  -14.27257 -14.25712 -14.23937 -14.23074 -10.18613
  Beta  occ. eigenvalues --  -10.13900 -10.12647 -10.10081  -8.04097  -6.00395
  Beta  occ. eigenvalues --   -6.00342  -6.00144  -1.03754  -1.03638  -0.92804
  Beta  occ. eigenvalues --   -0.86353  -0.84695  -0.82556  -0.76016  -0.73141
  Beta  occ. eigenvalues --   -0.66304  -0.58048  -0.56982  -0.53190  -0.51318
  Beta  occ. eigenvalues --   -0.45607  -0.44612  -0.43405  -0.42063  -0.41958
  Beta  occ. eigenvalues --   -0.40323  -0.39655  -0.37911  -0.36269  -0.35124
  Beta  occ. eigenvalues --   -0.32719  -0.30029  -0.28672  -0.28031  -0.27397
  Beta  occ. eigenvalues --   -0.26057  -0.24304  -0.23560  -0.22745  -0.21154
  Beta  occ. eigenvalues --   -0.20819  -0.20262  -0.19162  -0.15553
  Beta virt. eigenvalues --    0.06043   0.07205   0.07807   0.08347   0.09494
  Beta virt. eigenvalues --    0.10251   0.10656   0.11511   0.12271   0.12481
  Beta virt. eigenvalues --    0.13152   0.14012   0.14063   0.14728   0.14813

 Mulliken charges and spin densities:
               1          2
     1  C   -0.506985   0.680663
     2  C    0.876006  -1.442360
     3  N   -0.069744   0.088790
     4  C    0.795942  -0.857006
     5  N   -0.161437   0.054111
     6  N   -0.059156  -0.077046
     7  N   -0.072988   0.075274
     8  N   -0.360878   0.013962
     9  C   -0.637043  -0.244436
    10  S    0.925674  -0.733029
    11  O   -0.292326   0.023610
    12  O   -0.193261   0.012046
    13  N   -0.309652  -0.054746
    14  H   -0.059772   0.271138
    15  H    0.243443  -0.005888
    16  H    0.149570   0.040489
    17  H   -1.031640   1.269489
    18  H   -0.126715   0.420155
    19  H   -0.491202   0.772510
    20  H    0.156292   0.067161
    21  H    0.264536   0.022181
    22  H   -0.063136   0.358719
    23  H    0.024470   0.244212
 Sum of Mulliken charges =  -1.00000   1.00000

 Dipole moment (field-independent basis, Debye):
    X=              3.9352    Y=              3.4799    Z=             -0.6090  Tot=              5.2883
 Quadrupole moment (field-independent basis, Debye-Ang):
   XX=           -156.9668   YY=           -136.0364   ZZ=           -109.1901
   XY=             -7.4725   XZ=              2.5418   YZ=             -4.6004

 Summary of Natural Population Analysis:

                                       Natural Population
                Natural  -----------------------------------------------
    Atom  No    Charge         Core      Valence    Rydberg      Total
 -----------------------------------------------------------------------
      C    1   -0.21095      0.99961     2.20147    0.00987     3.21095
      C    2   -0.08542      0.99960     2.07284    0.01298     3.08542
      N    3   -0.13820      0.99961     2.62281    0.01578     3.63820
      C    4    0.27513      0.99960     1.70783    0.01744     2.72487
      N    5   -0.19071      0.99969     2.67754    0.01348     3.69071
      N    6   -0.04163      0.99981     2.52279    0.01903     3.54163
      N    7   -0.05361      0.99978     2.53921    0.01463     3.55361
      N    8   -0.39591      0.99971     2.88645    0.00975     3.89591
      C    9   -0.28577      0.99956     2.27553    0.01067     3.28577
      S   10    1.08694      4.99936     1.81320    0.10050     6.91306
      O   11   -0.46602      0.99991     3.46036    0.00576     4.46602
      O   12   -0.46512      0.99991     3.45973    0.00548     4.46512
      N   13   -0.51637      0.99979     3.00597    0.01061     4.01637
      H   14    0.11305      0.00000     0.38563    0.00132     0.38695
      H   15    0.11664      0.00000     0.38119    0.00217     0.38336
      H   16    0.10711      0.00000     0.39142    0.00146     0.39289
      H   17    0.11651      0.00000     0.37836    0.00513     0.38349
      H   18    0.19765      0.00000     0.29945    0.00290     0.30235
      H   19    0.20454      0.00000     0.27007    0.02539     0.29546
      H   20    0.11506      0.00000     0.38390    0.00104     0.38494
      H   21    0.12129      0.00000     0.37721    0.00150     0.37871
      H   22    0.19938      0.00000     0.29750    0.00311     0.30062
      H   23    0.19640      0.00000     0.30150    0.00209     0.30360
 =======================================================================
   * Total *   -0.00000     16.99593    36.71197    0.29210    54.00000

 Normal termination of Gaussian 16 at Wed Dec  9 23:33:35 2020.
