 Gaussian 16, Revision A.03,

 -----------------------------------------------------------
 # opt freq B3LYP/6-31G(d) empiricaldispersion=gd3bj scf=xqc
 -----------------------------------------------------------

 ------------------------------
 CID_80856258_JID_8054_neutraal
 ------------------------------
 Symbolic Z-matrix:
 Charge =  0 Multiplicity = 1

 SCF Done:  E(RB3LYP) =  -889.431385645     A.U. after   15 cycles
 SCF Done:  E(RB3LYP) =  -889.445034522     A.U. after   15 cycles
 SCF Done:  E(RB3LYP) =  -889.450845453     A.U. after   15 cycles
 SCF Done:  E(RB3LYP) =  -889.456622848     A.U. after   16 cycles
 SCF Done:  E(RB3LYP) =  -889.458102604     A.U. after   14 cycles
 SCF Done:  E(RB3LYP) =  -889.459266104     A.U. after   14 cycles
 SCF Done:  E(RB3LYP) =  -889.454432266     A.U. after   15 cycles
 SCF Done:  E(RB3LYP) =  -889.460437585     A.U. after   14 cycles
 SCF Done:  E(RB3LYP) =  -889.461179213     A.U. after   13 cycles
 SCF Done:  E(RB3LYP) =  -889.461573493     A.U. after   12 cycles
 SCF Done:  E(RB3LYP) =  -889.462481344     A.U. after    9 cycles
 SCF Done:  E(RB3LYP) =  -889.462481569     A.U. after    8 cycles
 SCF Done:  E(RB3LYP) =  -889.462481597     A.U. after    7 cycles
 SCF Done:  E(RB3LYP) =  -889.462481637     A.U. after    7 cycles
 SCF Done:  E(RB3LYP) =  -889.462481658     A.U. after    7 cycles
 Optimization completed.
    -- Stationary point found.
 Normal termination of Gaussian 16 at Fri Dec 11 18:46:34 2020.

 --------------------------------------------------------------------
 #N Geom=AllCheck Guess=TCheck SCRF=Check GenChk RB3LYP/6-31G(d) Freq
 --------------------------------------------------------------------

 Structure from the checkpoint file:  "JID_8054.chk"
 ------------------------------
 CID_80856258_JID_8054_neutraal
 ------------------------------
 Charge =  0 Multiplicity = 1

 SCF Done:  E(RB3LYP) =  -889.462481658     A.U. after    1 cycles

  Exact polarizability: 204.860  -9.556 150.796 -24.442  -6.198 105.880
 Approx polarizability: 296.859 -23.833 260.411 -35.469 -17.941 158.889

                      1                      2                      3
                      A                      A                      A
 Frequencies --     24.7822                34.6779                49.7886
 Red. masses --      5.6055                 5.8226                 2.8417
 Frc consts  --      0.0020                 0.0041                 0.0042
 IR Inten    --      0.7970                 1.3398                 1.1400

                      4                      5                      6
                      A                      A                      A
 Frequencies --     63.5554                75.9884                94.9624
 Red. masses --      3.9513                 5.2219                 6.4999
 Frc consts  --      0.0094                 0.0178                 0.0345
 IR Inten    --      2.9005                 1.3145                 1.2110

                      7                      8                      9
                      A                      A                      A
 Frequencies --    139.0009               160.3095               200.8641
 Red. masses --      3.8051                 5.9626                 1.4990
 Frc consts  --      0.0433                 0.0903                 0.0356
 IR Inten    --      0.6692                 2.8576                 2.8652

                     10                     11                     12
                      A                      A                      A
 Frequencies --    206.9085               214.8783               248.1162
 Red. masses --      3.9184                 4.7607                 6.4085
 Frc consts  --      0.0988                 0.1295                 0.2324
 IR Inten    --      0.4503                 9.3541                 4.6151

                     13                     14                     15
                      A                      A                      A
 Frequencies --    266.5960               290.9722               297.9728
 Red. masses --      3.1316                 1.3935                 1.9255
 Frc consts  --      0.1311                 0.0695                 0.1007
 IR Inten    --      3.5864                52.5685                38.9495

                     16                     17                     18
                      A                      A                      A
 Frequencies --    321.5834               369.2650               392.7259
 Red. masses --      3.5056                 4.4775                 7.7661
 Frc consts  --      0.2136                 0.3597                 0.7057
 IR Inten    --      5.6760                 1.8663                 1.7642

                     19                     20                     21
                      A                      A                      A
 Frequencies --    414.4200               442.1168               456.9123
 Red. masses --      2.7812                 1.6521                 3.9172
 Frc consts  --      0.2814                 0.1903                 0.4818
 IR Inten    --      7.5713                 3.0922                 7.3497

                     22                     23                     24
                      A                      A                      A
 Frequencies --    509.3721               525.1120               544.1126
 Red. masses --      2.9228                 3.7640                 4.1622
 Frc consts  --      0.4468                 0.6115                 0.7260
 IR Inten    --      5.4232                27.2352                26.7073

                     25                     26                     27
                      A                      A                      A
 Frequencies --    581.2544               623.4303               663.8814
 Red. masses --      3.6138                 1.8723                 1.1053
 Frc consts  --      0.7194                 0.4287                 0.2870
 IR Inten    --     13.1505                62.0044                85.2544

                     28                     29                     30
                      A                      A                      A
 Frequencies --    688.4913               700.6990               708.7643
 Red. masses --      4.3430                 4.3401                 4.6346
 Frc consts  --      1.2129                 1.2555                 1.3717
 IR Inten    --      1.5837                13.1533                 3.4794

                     31                     32                     33
                      A                      A                      A
 Frequencies --    757.0108               797.5522               801.7608
 Red. masses --     10.2303                 4.1130                 2.2411
 Frc consts  --      3.4542                 1.5415                 0.8488
 IR Inten    --      1.3288                25.5973                13.9624

                     34                     35                     36
                      A                      A                      A
 Frequencies --    820.2364               835.6512               885.5039
 Red. masses --      5.7000                 2.6429                 3.7036
 Frc consts  --      2.2594                 1.0874                 1.7110
 IR Inten    --     15.9007                13.3765                13.5591

                     37                     38                     39
                      A                      A                      A
 Frequencies --    900.9832               936.7693               951.5650
 Red. masses --      4.6361                 1.8792                 1.7609
 Frc consts  --      2.2174                 0.9716                 0.9394
 IR Inten    --     13.1406                 6.5357                10.6770

                     40                     41                     42
                      A                      A                      A
 Frequencies --    977.0892              1002.6120              1005.1391
 Red. masses --      2.4639                 1.9182                 2.0997
 Frc consts  --      1.3859                 1.1361                 1.2499
 IR Inten    --      3.4498                 7.7015                 0.9343

                     43                     44                     45
                      A                      A                      A
 Frequencies --   1034.9343              1093.9751              1101.5707
 Red. masses --      2.3264                 1.6233                 2.3313
 Frc consts  --      1.4681                 1.1447                 1.6668
 IR Inten    --      6.8668                10.8862                15.1497

                     46                     47                     48
                      A                      A                      A
 Frequencies --   1118.6121              1129.2585              1143.5425
 Red. masses --      4.5096                 2.1109                 2.2337
 Frc consts  --      3.3247                 1.5860                 1.7210
 IR Inten    --      4.7550                 5.1258               131.1551

                     49                     50                     51
                      A                      A                      A
 Frequencies --   1153.4363              1172.8594              1200.6458
 Red. masses --      1.4210                 2.3554                 1.7686
 Frc consts  --      1.1138                 1.9090                 1.5021
 IR Inten    --     14.6538                13.1615                14.2185

                     52                     53                     54
                      A                      A                      A
 Frequencies --   1218.9097              1232.9015              1272.8119
 Red. masses --      2.0253                 1.5273                 1.3005
 Frc consts  --      1.7729                 1.3678                 1.2413
 IR Inten    --     40.9056                10.2824                 1.2462

                     55                     56                     57
                      A                      A                      A
 Frequencies --   1281.5440              1285.2502              1287.8428
 Red. masses --      2.8166                 1.5705                 1.5545
 Frc consts  --      2.7255                 1.5285                 1.5191
 IR Inten    --    101.8080                 3.4397                 8.4617

                     58                     59                     60
                      A                      A                      A
 Frequencies --   1299.2925              1322.1530              1335.4692
 Red. masses --      2.0605                 2.6579                 1.8544
 Frc consts  --      2.0494                 2.7374                 1.9486
 IR Inten    --     53.3060               188.1322                56.7584

                     61                     62                     63
                      A                      A                      A
 Frequencies --   1354.3931              1377.9335              1406.4022
 Red. masses --      2.3566                 1.4033                 1.6474
 Frc consts  --      2.5470                 1.5699                 1.9199
 IR Inten    --     56.5219                38.4304                70.0481

                     64                     65                     66
                      A                      A                      A
 Frequencies --   1420.8433              1442.5756              1449.7134
 Red. masses --      1.4710                 2.1779                 1.2392
 Frc consts  --      1.7497                 2.6703                 1.5345
 IR Inten    --     35.8446                36.9530                89.0071

                     67                     68                     69
                      A                      A                      A
 Frequencies --   1466.3324              1488.6398              1495.2322
 Red. masses --      1.5786                 1.6508                 1.0884
 Frc consts  --      1.9998                 2.1553                 1.4337
 IR Inten    --     51.7824                34.0678                 4.0753

                     70                     71                     72
                      A                      A                      A
 Frequencies --   1503.8597              1510.9948              1520.6669
 Red. masses --      1.1119                 1.0797                 1.1281
 Frc consts  --      1.4816                 1.4524                 1.5370
 IR Inten    --      8.2075                26.3306                13.4795

                     73                     74                     75
                      A                      A                      A
 Frequencies --   1528.3145              1559.0106              1592.1442
 Red. masses --      1.2336                 2.7578                 4.8800
 Frc consts  --      1.6977                 3.9492                 7.2885
 IR Inten    --     20.9957                75.5443                53.3879

                     76                     77                     78
                      A                      A                      A
 Frequencies --   1617.9906              1631.5653              1656.0597
 Red. masses --      2.6399                 5.2820                 3.7986
 Frc consts  --      4.0719                 8.2843                 6.1380
 IR Inten    --    284.3633               400.3337               970.8496

                     79                     80                     81
                      A                      A                      A
 Frequencies --   3040.2025              3056.9486              3062.4701
 Red. masses --      1.0855                 1.0677                 1.0605
 Frc consts  --      5.9116                 5.8788                 5.8600
 IR Inten    --     20.2985                34.0023                52.8223

                     82                     83                     84
                      A                      A                      A
 Frequencies --   3064.2510              3078.3267              3110.8624
 Red. masses --      1.0342                 1.0607                 1.0921
 Frc consts  --      5.7214                 5.9219                 6.2268
 IR Inten    --     30.7198                12.8642                39.7315

                     85                     86                     87
                      A                      A                      A
 Frequencies --   3120.2646              3133.8578              3136.0177
 Red. masses --      1.1045                 1.1023                 1.1055
 Frc consts  --      6.3358                 6.3784                 6.4054
 IR Inten    --     30.9586                14.7523                13.7021

                     88                     89                     90
                      A                      A                      A
 Frequencies --   3144.3154              3150.9894              3180.2111
 Red. masses --      1.0970                 1.1056                 1.0907
 Frc consts  --      6.3901                 6.4674                 6.4992
 IR Inten    --     12.2401                16.5410                34.3911

                     91                     92                     93
                      A                      A                      A
 Frequencies --   3549.7048              3598.4934              3726.7421
 Red. masses --      1.0774                 1.0758                 1.0659
 Frc consts  --      7.9985                 8.2079                 8.7220
 IR Inten    --    101.9431                67.2064                 5.0938

 - Thermochemistry -
 -------------------
 Temperature   298.150 Kelvin.  Pressure   1.00000 Atm.
 Atom     1 has atomic number  6 and mass  12.00000

 Molecular mass:   253.11749 amu.
 Principal axes and moments of inertia in atomic units:
                           1         2         3
     Eigenvalues --  2192.148738663.144799456.82885
           X            0.99989  -0.00763  -0.01281
           Y            0.00771   0.99995   0.00615
           Z            0.01277  -0.00625   0.99990
 This molecule is an asymmetric top.
 Rotational symmetry number  1.
 Warning -- assumption of classical behavior for rotation
           may cause significant error
 Rotational temperatures (Kelvin)      0.03951     0.01000     0.00916
 Rotational constants (GHZ):           0.82327     0.20832     0.19084
 Zero-point vibrational energy     704868.0 (Joules/Mol)
                                  168.46749 (Kcal/Mol)
 Warning -- explicit consideration of  25 degrees of freedom as
           vibrations may cause significant error
 Vibrational temperatures:     35.66    49.89    71.63    91.44   109.33
          (Kelvin)            136.63   199.99   230.65   289.00   297.70
                              309.16   356.98   383.57   418.64   428.72
                              462.69   531.29   565.04   596.26   636.11
                              657.39   732.87   755.52   782.86   836.30
                              896.98   955.18   990.59  1008.15  1019.75
                             1089.17  1147.50  1153.55  1180.14  1202.32
                             1274.04  1296.31  1347.80  1369.09  1405.81
                             1442.54  1446.17  1489.04  1573.99  1584.91
                             1609.43  1624.75  1645.30  1659.54  1687.48
                             1727.46  1753.74  1773.87  1831.29  1843.86
                             1849.19  1852.92  1869.39  1902.28  1921.44
                             1948.67  1982.54  2023.50  2044.28  2075.54
                             2085.81  2109.73  2141.82  2151.31  2163.72
                             2173.98  2187.90  2198.90  2243.07  2290.74
                             2327.93  2347.46  2382.70  4374.17  4398.27
                             4406.21  4408.77  4429.03  4475.84  4489.36
                             4508.92  4512.03  4523.97  4533.57  4575.61
                             5107.23  5177.43  5361.95

 Zero-point correction=                           0.268470 (Hartree/Particle)
 Thermal correction to Energy=                    0.285359
 Thermal correction to Enthalpy=                  0.286303
 Thermal correction to Gibbs Free Energy=         0.222158
 Sum of electronic and zero-point Energies=           -889.194012
 Sum of electronic and thermal Energies=              -889.177123
 Sum of electronic and thermal Enthalpies=            -889.176179
 Sum of electronic and thermal Free Energies=         -889.240324

                     E (Thermal)             CV                S
                      KCal/Mol        Cal/Mol-Kelvin    Cal/Mol-Kelvin
 Total                  179.065             63.243            135.004
 Electronic               0.000              0.000              0.000
 Translational            0.889              2.981             42.486
 Rotational               0.889              2.981             33.551
 Vibrational            177.288             57.281             58.967
 Vibration     1          0.593              1.985              6.209
 Vibration     2          0.594              1.983              5.542
 Vibration     3          0.595              1.978              4.826
 Vibration     4          0.597              1.972              4.344
 Vibration     5          0.599              1.965              3.992
 Vibration     6          0.603              1.953              3.555
 Vibration     7          0.615              1.914              2.818
 Vibration     8          0.622              1.891              2.546
 Vibration     9          0.638              1.839              2.125
 Vibration    10          0.641              1.830              2.071
 Vibration    11          0.645              1.818              2.002
 Vibration    12          0.662              1.766              1.744
 Vibration    13          0.672              1.734              1.618
 Vibration    14          0.687              1.691              1.468
 Vibration    15          0.691              1.677              1.428
 Vibration    16          0.707              1.632              1.302
 Vibration    17          0.742              1.535              1.083
 Vibration    18          0.760              1.486              0.990
 Vibration    19          0.778              1.439              0.911
 Vibration    20          0.802              1.378              0.820
 Vibration    21          0.815              1.346              0.775
 Vibration    22          0.865              1.229              0.635
 Vibration    23          0.880              1.194              0.598
 Vibration    24          0.899              1.153              0.557
 Vibration    25          0.938              1.072              0.483

                           ! Non-Optimized Parameters !
 Normal termination of Gaussian 16 at Fri Dec 11 18:57:42 2020.

 ----------------------------------------------------------------------
 # B3LYP/6-311++G(d,p) empiricaldispersion=gd3bj scf=xqc pop=npa geom=c
 heck
 ----------------------------------------------------------------------

 --------------------------------------
 CID_80856258_JID_8054_Energie_neutraal
 --------------------------------------
 Structure from the checkpoint file:  "JID_8054.chk"
 Charge =  0 Multiplicity = 1

 SCF Done:  E(RB3LYP) =  -889.725877206     A.U. after   16 cycles
 Normal termination of Gaussian 16 at Fri Dec 11 19:03:18 2020.

 ----------------------------------------------------------------------
 # B3LYP/6-311++G(d,p) empiricaldispersion=gd3bj scf=xqc pop=npa geom=c
 heck
 ----------------------------------------------------------------------

 ------------------------------------
 CID_80856258_JID_8054_Energie_kation
 ------------------------------------
 Structure from the checkpoint file:  "JID_8054.chk"
 Charge =  1 Multiplicity = 2

 SCF Done:  E(UB3LYP) =  -889.414010158     A.U. after   33 cycles
 SCF Done:  E(UB3LYP) =  -889.414010161     a.u. after    2 cycles
 Normal termination of Gaussian 16 at Fri Dec 11 19:35:29 2020.
 Gaussian 16:  ES64L-G16RevA.03 25-Dec-2016

 ----------------------------------------------------------------------
 # B3LYP/6-311++G(d,p) empiricaldispersion=gd3bj scf=xqc pop=npa geom=c
 heck
 ----------------------------------------------------------------------

 -----------------------------------
 CID_80856258_JID_8054_Energie_anion
 -----------------------------------
 Structure from the checkpoint file:  "JID_8054.chk"
 Charge = -1 Multiplicity = 2

                         Standard orientation:
 ---------------------------------------------------------------------
 Center     Atomic      Atomic             Coordinates (Angstroms)
 Number     Number       Type             X           Y           Z
 ---------------------------------------------------------------------
      1          6           0       -4.222737    0.168879    1.679374
      2          7           0       -3.705200    1.070990    0.666322
      3          6           0       -2.539791    0.993244   -0.009988
      4          6           0       -1.745333   -0.177006   -0.177815
      5          6           0       -0.396330    0.013967   -0.642141
      6          7           0        0.003764    1.231402   -1.070139
      7          6           0       -0.897816    2.207544   -1.023600
      8          7           0       -2.114120    2.182648   -0.498201
      9          7           0        0.487745   -0.994118   -0.709174
     10          6           0        1.843304   -0.870018   -1.228895
     11          6           0        2.883658   -0.728924   -0.124168
     12          6           0        2.875505    0.581097    0.715168
     13          6           0        4.418942    0.670940    0.558571
     14          6           0        4.336686   -0.395999   -0.570505
     15          8           0        5.168437    0.285022    1.698044
     16          7           0       -2.301319   -1.486689   -0.062389
     17          8           0       -1.539054   -2.454273    0.154298
     18          8           0       -3.517765   -1.632841   -0.227362
     19          1           0       -3.400085   -0.326506    2.205558
     20          1           0       -4.868819   -0.602235    1.253400
     21          1           0       -4.784924    0.764727    2.402905
     22          1           0       -4.072608    2.014095    0.646840
     23          1           0       -0.582591    3.161554   -1.443552
     24          1           0        0.160625   -1.880114   -0.339646
     25          1           0        2.052970   -1.759548   -1.835654
     26          1           0        1.870671    0.003518   -1.882932
     27          1           0        2.853834   -1.618771    0.517950
     28          1           0        2.509543    0.522296    1.745377
     29          1           0        2.345225    1.386808    0.199677
     30          1           0        4.822291    1.645262    0.272427
     31          1           0        4.365508    0.052940   -1.570118
     32          1           0        5.083788   -1.194694   -0.524042
     33          1           0        4.819009   -0.564560    2.011038
 ---------------------------------------------------------------------

 SCF Done:  E(UB3LYP) =  -889.758690964     A.U. after   22 cycles

 The electronic state is 2-A.
 Alpha  occ. eigenvalues --  -19.04832 -18.93867 -18.93622 -14.31188 -14.20210
 Alpha  occ. eigenvalues --  -14.19702 -14.16230 -14.16114 -10.13795 -10.11799
 Alpha  occ. eigenvalues --  -10.11219 -10.09637 -10.08685 -10.08533 -10.08406
 Alpha  occ. eigenvalues --  -10.07733 -10.07081 -10.06611  -1.01656  -0.94999
 Alpha  occ. eigenvalues --   -0.86129  -0.84661  -0.82689  -0.79228  -0.75119
 Alpha  occ. eigenvalues --   -0.72208  -0.66771  -0.61762  -0.59175  -0.57909
 Alpha  occ. eigenvalues --   -0.55186  -0.53623  -0.49542  -0.47615  -0.45520
 Alpha  occ. eigenvalues --   -0.43762  -0.41578  -0.40755  -0.38869  -0.37598
 Alpha  occ. eigenvalues --   -0.36585  -0.35656  -0.34708  -0.33971  -0.33502
 Alpha  occ. eigenvalues --   -0.32524  -0.31785  -0.31406  -0.29915  -0.29256
 Alpha  occ. eigenvalues --   -0.29051  -0.28261  -0.27904  -0.26766  -0.25286
 Alpha  occ. eigenvalues --   -0.23114  -0.22338  -0.20981  -0.18722  -0.17918
 Alpha  occ. eigenvalues --   -0.17545  -0.13345  -0.12875  -0.12095  -0.10464
 Alpha  occ. eigenvalues --   -0.10064  -0.08745   0.03215
 Alpha virt. eigenvalues --    0.06380   0.07717   0.08372   0.08513   0.09850
 Alpha virt. eigenvalues --    0.10586   0.11094   0.11411   0.11740   0.11924
 Alpha virt. eigenvalues --    0.12716   0.13026   0.13206   0.13753   0.14178

  Beta  occ. eigenvalues --  -19.04832 -18.93378 -18.93053 -14.30360 -14.20098
  Beta  occ. eigenvalues --  -14.19629 -14.16320 -14.16179 -10.13795 -10.11654
  Beta  occ. eigenvalues --  -10.11011 -10.09640 -10.08529 -10.08405 -10.08401
  Beta  occ. eigenvalues --  -10.07726 -10.07081 -10.06725  -1.00402  -0.94999
  Beta  occ. eigenvalues --   -0.85932  -0.83921  -0.82223  -0.79057  -0.75101
  Beta  occ. eigenvalues --   -0.72169  -0.66423  -0.61638  -0.58942  -0.57905
  Beta  occ. eigenvalues --   -0.54969  -0.53201  -0.49160  -0.47482  -0.45151
  Beta  occ. eigenvalues --   -0.43573  -0.41567  -0.40685  -0.38779  -0.37458
  Beta  occ. eigenvalues --   -0.36107  -0.35399  -0.33876  -0.33322  -0.32415
  Beta  occ. eigenvalues --   -0.32083  -0.31262  -0.31195  -0.29564  -0.29125
  Beta  occ. eigenvalues --   -0.28734  -0.27854  -0.27672  -0.26279  -0.25170
  Beta  occ. eigenvalues --   -0.23074  -0.22048  -0.20834  -0.18713  -0.17611
  Beta  occ. eigenvalues --   -0.17032  -0.12886  -0.11663  -0.10570  -0.09757
  Beta  occ. eigenvalues --   -0.09342  -0.08048
  Beta virt. eigenvalues --    0.06366   0.07691   0.08275   0.08484   0.09761
  Beta virt. eigenvalues --    0.10412   0.10606   0.11089   0.11415   0.11700
  Beta virt. eigenvalues --    0.11960   0.13154   0.13393   0.13736   0.14154

 Mulliken charges and spin densities:
               1          2
     1  C   -0.356101  -0.036240
     2  N   -0.182011   0.049137
     3  C    0.072395   0.174893
     4  C   -0.324493  -0.129603
     5  C   -0.279594   0.101502
     6  N   -0.185712  -0.042904
     7  C   -0.066539   0.198829
     8  N   -0.186285  -0.055775
     9  N    0.051805   0.027010
    10  C   -0.669170   0.007024
    11  C    0.691938  -0.009396
    12  C   -0.435756  -0.001901
    13  C   -0.291027   0.003806
    14  C   -0.592845  -0.009013
    15  O   -0.209152  -0.000026
    16  N   -0.320795   0.263327
    17  O   -0.213912   0.188547
    18  O   -0.196434   0.215198
    19  H    0.155119   0.024050
    20  H    0.193677   0.004106
    21  H    0.060734   0.024227
    22  H    0.280891   0.007070
    23  H    0.160652  -0.016657
    24  H    0.320542   0.000835
    25  H    0.121663   0.009896
    26  H    0.211563   0.001273
    27  H    0.176316  -0.001594
    28  H    0.161979   0.000089
    29  H    0.150445   0.001275
    30  H    0.190840   0.001279
    31  H    0.108407  -0.000800
    32  H    0.159566   0.000600
    33  H    0.241292  -0.000063
 Sum of Mulliken charges =  -1.00000   1.00000

 Dipole moment (field-independent basis, Debye):
    X=              6.9886    Y=              2.2241    Z=              1.2500  Tot=              7.4397
 Quadrupole moment (field-independent basis, Debye-Ang):
   XX=           -159.7726   YY=           -135.5568   ZZ=           -114.9690
   XY=            -19.7682   XZ=            -12.2887   YZ=              0.2231

 Summary of Natural Population Analysis:

                                       Natural Population
                Natural  -----------------------------------------------
    Atom  No    Charge         Core      Valence    Rydberg      Total
 -----------------------------------------------------------------------
      C    1   -0.17770      0.99965     2.17100    0.00705     3.17770
      N    2   -0.27881      0.99965     2.76914    0.01003     3.77881
      C    3    0.25453      0.99953     1.73110    0.01484     2.74547
      C    4   -0.06374      0.99940     2.05066    0.01368     3.06374
      C    5    0.24384      0.99954     1.74269    0.01393     2.75616
      N    6   -0.32527      0.99968     2.81408    0.01151     3.82527
      C    7    0.20324      0.99968     1.77776    0.01931     2.79676
      N    8   -0.31372      0.99968     2.80300    0.01104     3.81372
      N    9   -0.30355      0.99963     2.79089    0.01302     3.80355
      C   10   -0.08869      0.99959     2.07844    0.01065     3.08869
      C   11   -0.11097      0.99961     2.10264    0.00872     3.11097
      C   12   -0.20705      0.99962     2.19935    0.00808     3.20705
      C   13    0.06441      0.99959     1.92186    0.01414     2.93559
      C   14   -0.20478      0.99963     2.19788    0.00727     3.20478
      O   15   -0.36921      0.99990     3.36270    0.00661     4.36921
      N   16    0.32540      0.99969     2.14960    0.02530     3.17460
      O   17   -0.22777      0.99990     3.22011    0.00777     4.22777
      O   18   -0.18705      0.99990     3.17908    0.00807     4.18705
      H   19    0.09590      0.00000     0.40231    0.00180     0.40410
      H   20    0.10847      0.00000     0.39024    0.00129     0.39153
      H   21    0.08168      0.00000     0.41695    0.00136     0.41832
      H   22    0.18575      0.00000     0.31149    0.00276     0.31425
      H   23    0.06865      0.00000     0.43002    0.00133     0.43135
      H   24    0.21553      0.00000     0.28262    0.00185     0.28447
      H   25    0.09037      0.00000     0.40857    0.00106     0.40963
      H   26    0.10832      0.00000     0.39043    0.00125     0.39168
      H   27    0.09228      0.00000     0.40635    0.00137     0.40772
      H   28    0.10034      0.00000     0.39863    0.00104     0.39966
      H   29    0.11798      0.00000     0.38084    0.00118     0.38202
      H   30    0.08162      0.00000     0.41713    0.00125     0.41838
      H   31    0.09981      0.00000     0.39914    0.00105     0.40019
      H   32    0.09664      0.00000     0.40224    0.00111     0.40336
      H   33    0.22356      0.00000     0.27387    0.00258     0.27644
 =======================================================================
   * Total *   -0.00000     17.99387    48.77282    0.23330    67.00000

 Normal termination of Gaussian 16 at Fri Dec 11 19:46:24 2020.
