 Gaussian 16, Revision A.03,

 -----------------------------------------------------------
 # opt freq B3LYP/6-31G(d) empiricaldispersion=gd3bj scf=xqc
 -----------------------------------------------------------

 -------------------------------
 CID_129990527_JID_2523_neutraal
 -------------------------------
 Symbolic Z-matrix:
 Charge =  0 Multiplicity = 1

 SCF Done:  E(RB3LYP) =  -558.460622433     A.U. after   14 cycles
 SCF Done:  E(RB3LYP) =  -558.464345019     A.U. after   11 cycles
 SCF Done:  E(RB3LYP) =  -558.464774370     A.U. after   12 cycles
 SCF Done:  E(RB3LYP) =  -558.465011988     A.U. after   10 cycles
 SCF Done:  E(RB3LYP) =  -558.465041589     A.U. after    9 cycles
 SCF Done:  E(RB3LYP) =  -558.465061625     A.U. after    9 cycles
 SCF Done:  E(RB3LYP) =  -558.465065713     A.U. after    8 cycles
 SCF Done:  E(RB3LYP) =  -558.465066947     A.U. after    8 cycles
 SCF Done:  E(RB3LYP) =  -558.465067569     A.U. after    8 cycles
 SCF Done:  E(RB3LYP) =  -558.465067709     A.U. after    7 cycles
 Optimization completed.
    -- Stationary point found.
 Normal termination of Gaussian 16 at Wed Dec  9 17:29:05 2020.

 --------------------------------------------------------------------
 #N Geom=AllCheck Guess=TCheck SCRF=Check GenChk RB3LYP/6-31G(d) Freq
 --------------------------------------------------------------------

 Structure from the checkpoint file:  "JID_2523.chk"
 -------------------------------
 CID_129990527_JID_2523_neutraal
 -------------------------------
 Charge =  0 Multiplicity = 1

 SCF Done:  E(RB3LYP) =  -558.465067709     A.U. after    1 cycles

  Exact polarizability: 122.963   1.191 100.784  -1.406  -1.369  86.647
 Approx polarizability: 157.709   9.231 147.545  -3.101  -3.646 131.644

                      1                      2                      3
                      A                      A                      A
 Frequencies --     56.8126                60.8949               101.0112
 Red. masses --      2.8187                 3.6337                 5.6615
 Frc consts  --      0.0054                 0.0079                 0.0340
 IR Inten    --      0.2160                 0.8478                 1.1149

                      4                      5                      6
                      A                      A                      A
 Frequencies --    169.5157               201.6742               214.8807
 Red. masses --      2.8872                 1.6808                 1.4713
 Frc consts  --      0.0489                 0.0403                 0.0400
 IR Inten    --      0.5065                 2.1448                 0.4450

                      7                      8                      9
                      A                      A                      A
 Frequencies --    227.2179               238.1940               257.2526
 Red. masses --      1.0742                 1.3013                 1.3396
 Frc consts  --      0.0327                 0.0435                 0.0522
 IR Inten    --      0.2705                 1.2497                 7.8831

                     10                     11                     12
                      A                      A                      A
 Frequencies --    266.6876               294.1859               299.8959
 Red. masses --      2.1817                 2.4693                 2.7430
 Frc consts  --      0.0914                 0.1259                 0.1454
 IR Inten    --      4.1437                 0.9802                 1.1933

                     13                     14                     15
                      A                      A                      A
 Frequencies --    302.8033               341.2793               356.2725
 Red. masses --      2.2871                 1.4566                 2.7782
 Frc consts  --      0.1236                 0.1000                 0.2078
 IR Inten    --      1.2950                91.5632                 2.1268

                     16                     17                     18
                      A                      A                      A
 Frequencies --    366.8408               403.8295               463.0769
 Red. masses --      2.0099                 3.0442                 2.6576
 Frc consts  --      0.1594                 0.2925                 0.3358
 IR Inten    --     15.3169                11.2552                 6.3073

                     19                     20                     21
                      A                      A                      A
 Frequencies --    516.9939               525.8286               559.4563
 Red. masses --      2.8551                 1.4925                 2.6760
 Frc consts  --      0.4496                 0.2431                 0.4935
 IR Inten    --     45.6902                70.8754                 3.5800

                     22                     23                     24
                      A                      A                      A
 Frequencies --    638.0445               687.7447               752.2498
 Red. masses --      3.6516                 4.2288                 6.1258
 Frc consts  --      0.8759                 1.1785                 2.0424
 IR Inten    --      1.8636                 6.8448                 6.2919

                     25                     26                     27
                      A                      A                      A
 Frequencies --    765.0443               852.7701               880.4800
 Red. masses --      4.0512                 2.5055                 2.2226
 Frc consts  --      1.3970                 1.0735                 1.0152
 IR Inten    --      8.6972                 2.4891                 0.6691

                     28                     29                     30
                      A                      A                      A
 Frequencies --    936.5244               946.7524               973.1830
 Red. masses --      2.1307                 1.1878                 1.4392
 Frc consts  --      1.1010                 0.6273                 0.8031
 IR Inten    --     12.1492                 0.6608                 1.3736

                     31                     32                     33
                      A                      A                      A
 Frequencies --    981.7059               992.3515              1034.1020
 Red. masses --      1.4604                 2.0023                 1.3271
 Frc consts  --      0.8293                 1.1617                 0.8362
 IR Inten    --      0.3661                 7.4017                 0.2903

                     34                     35                     36
                      A                      A                      A
 Frequencies --   1071.1981              1095.3268              1118.8450
 Red. masses --      2.2614                 2.6146                 3.6928
 Frc consts  --      1.5288                 1.8482                 2.7236
 IR Inten    --      7.1435                24.4834               109.0691

                     37                     38                     39
                      A                      A                      A
 Frequencies --   1133.5467              1172.3352              1182.6643
 Red. masses --      1.8789                 2.1075                 2.2035
 Frc consts  --      1.4225                 1.7066                 1.8159
 IR Inten    --      2.3133                 2.3690                 5.8647

                     40                     41                     42
                      A                      A                      A
 Frequencies --   1211.4655              1216.7071              1251.0451
 Red. masses --      1.7242                 2.2830                 1.8478
 Frc consts  --      1.4909                 1.9913                 1.7040
 IR Inten    --      6.3165                48.5199                11.9211

                     43                     44                     45
                      A                      A                      A
 Frequencies --   1269.7115              1325.0167              1325.4637
 Red. masses --      2.4665                 1.8998                 1.4451
 Frc consts  --      2.3428                 1.9652                 1.4958
 IR Inten    --     15.9427                53.2117                24.9191

                     46                     47                     48
                      A                      A                      A
 Frequencies --   1351.4183              1364.3133              1381.1451
 Red. masses --      1.5259                 1.5370                 1.5533
 Frc consts  --      1.6420                 1.6856                 1.7458
 IR Inten    --     19.3425                12.0345                 3.1830

                     49                     50                     51
                      A                      A                      A
 Frequencies --   1411.8083              1419.9258              1431.3647
 Red. masses --      1.4797                 1.2656                 1.2918
 Frc consts  --      1.7377                 1.5035                 1.5593
 IR Inten    --     28.7145                 7.2470                 4.3980

                     52                     53                     54
                      A                      A                      A
 Frequencies --   1440.3596              1449.0276              1454.0506
 Red. masses --      1.2276                 1.3973                 1.2629
 Frc consts  --      1.5006                 1.7286                 1.5731
 IR Inten    --     19.6465                23.1336                 6.6597

                     55                     56                     57
                      A                      A                      A
 Frequencies --   1456.9589              1517.0519              1517.9494
 Red. masses --      1.6127                 1.0469                 1.0487
 Frc consts  --      2.0170                 1.4196                 1.4237
 IR Inten    --     71.3792                 0.2839                 0.8792

                     58                     59                     60
                      A                      A                      A
 Frequencies --   1520.5584              1523.9471              1537.8033
 Red. masses --      1.0486                 1.0451                 1.0588
 Frc consts  --      1.4284                 1.4301                 1.4753
 IR Inten    --      5.4331                 5.5322                11.0562

                     61                     62                     63
                      A                      A                      A
 Frequencies --   1538.3772              1542.2921              1544.3977
 Red. masses --      1.0631                 1.0539                 1.0474
 Frc consts  --      1.4824                 1.4770                 1.4719
 IR Inten    --      3.3909                 7.7705                14.0535

                     64                     65                     66
                      A                      A                      A
 Frequencies --   1830.0178              2946.0255              3027.0485
 Red. masses --     10.2149                 1.0815                 1.0836
 Frc consts  --     20.1555                 5.5302                 5.8500
 IR Inten    --    413.7062                43.8615                11.6830

                     67                     68                     69
                      A                      A                      A
 Frequencies --   3040.8840              3042.3101              3048.1782
 Red. masses --      1.0374                 1.0388                 1.0413
 Frc consts  --      5.6520                 5.6647                 5.7005
 IR Inten    --     21.8667                24.4529                38.2679

                     70                     71                     72
                      A                      A                      A
 Frequencies --   3054.0195              3076.5394              3104.6895
 Red. masses --      1.0361                 1.0855                 1.1001
 Frc consts  --      5.6937                 6.0533                 6.2478
 IR Inten    --     14.0208                23.6649                15.1114

                     73                     74                     75
                      A                      A                      A
 Frequencies --   3108.6151              3109.0586              3116.4953
 Red. masses --      1.0990                 1.1002                 1.1006
 Frc consts  --      6.2569                 6.2657                 6.2981
 IR Inten    --     26.4446                47.3736                48.9464

                     76                     77                     78
                      A                      A                      A
 Frequencies --   3120.3288              3136.5514              3140.6363
 Red. masses --      1.1025                 1.1022                 1.1012
 Frc consts  --      6.3246                 6.3889                 6.3999
 IR Inten    --     29.1488                 1.3807                23.2850

                     79                     80                     81
                      A                      A                      A
 Frequencies --   3152.9449              3629.3197              3740.9971
 Red. masses --      1.0994                 1.0770                 1.0655
 Frc consts  --      6.4391                 8.3586                 8.7857
 IR Inten    --     12.5483                17.7568                12.4475

 - Thermochemistry -
 -------------------
 Temperature   298.150 Kelvin.  Pressure   1.00000 Atm.
 Atom     1 has atomic number  6 and mass  12.00000

 Molecular mass:   171.12593 amu.
 Principal axes and moments of inertia in atomic units:
                           1         2         3
     Eigenvalues --  1272.233102564.692383341.42580
           X            0.99918  -0.04052  -0.00016
           Y            0.04052   0.99918   0.00107
           Z            0.00011  -0.00108   1.00000
 This molecule is an asymmetric top.
 Rotational symmetry number  1.
 Warning -- assumption of classical behavior for rotation
           may cause significant error
 Rotational temperatures (Kelvin)      0.06808     0.03377     0.02592
 Rotational constants (GHZ):           1.41856     0.70369     0.54011
 Zero-point vibrational energy     675090.3 (Joules/Mol)
                                  161.35046 (Kcal/Mol)
 Warning -- explicit consideration of  21 degrees of freedom as
           vibrations may cause significant error
 Vibrational temperatures:     81.74    87.61   145.33   243.90   290.16
          (Kelvin)            309.17   326.92   342.71   370.13   383.70
                              423.27   431.48   435.67   491.02   512.60
                              527.80   581.02   666.26   743.84   756.55
                              804.93   918.00   989.51  1082.32  1100.73
                             1226.95  1266.81  1347.45  1362.17  1400.19
                             1412.46  1427.77  1487.84  1541.22  1575.93
                             1609.77  1630.92  1686.73  1701.59  1743.03
                             1750.57  1799.97  1826.83  1906.40  1907.05
                             1944.39  1962.94  1987.16  2031.28  2042.96
                             2059.41  2072.36  2084.83  2092.05  2096.24
                             2182.70  2183.99  2187.74  2192.62  2212.56
                             2213.38  2219.01  2222.04  2632.99  4238.67
                             4355.25  4375.15  4377.21  4385.65  4394.05
                             4426.45  4466.96  4472.60  4473.24  4483.94
                             4489.46  4512.80  4518.68  4536.38  5221.78
                             5382.46

 Zero-point correction=                           0.257128 (Hartree/Particle)
 Thermal correction to Energy=                    0.270613
 Thermal correction to Enthalpy=                  0.271557
 Thermal correction to Gibbs Free Energy=         0.218266
 Sum of electronic and zero-point Energies=           -558.207939
 Sum of electronic and thermal Energies=              -558.194455
 Sum of electronic and thermal Enthalpies=            -558.193511
 Sum of electronic and thermal Free Energies=         -558.246802

                     E (Thermal)             CV                S
                      KCal/Mol        Cal/Mol-Kelvin    Cal/Mol-Kelvin
 Total                  169.812             51.388            112.160
 Electronic               0.000              0.000              0.000
 Translational            0.889              2.981             41.319
 Rotational               0.889              2.981             30.767
 Vibrational            168.035             45.426             40.073
 Vibration     1          0.596              1.975              4.565
 Vibration     2          0.597              1.973              4.428
 Vibration     3          0.604              1.948              3.435
 Vibration     4          0.625              1.880              2.441
 Vibration     5          0.639              1.838              2.118
 Vibration     6          0.645              1.818              2.002
 Vibration     7          0.651              1.800              1.901
 Vibration     8          0.656              1.782              1.816
 Vibration     9          0.667              1.751              1.680
 Vibration    10          0.672              1.734              1.618
 Vibration    11          0.689              1.685              1.450
 Vibration    12          0.692              1.674              1.417
 Vibration    13          0.694              1.668              1.401
 Vibration    14          0.721              1.593              1.206
 Vibration    15          0.732              1.562              1.138
 Vibration    16          0.740              1.540              1.093
 Vibration    17          0.769              1.462              0.949
 Vibration    18          0.821              1.332              0.757
 Vibration    19          0.872              1.212              0.617
 Vibration    20          0.881              1.193              0.597
 Vibration    21          0.915              1.119              0.525

                           ! Non-Optimized Parameters !
 Normal termination of Gaussian 16 at Wed Dec  9 17:36:21 2020.

 ----------------------------------------------------------------------
 # B3LYP/6-311++G(d,p) empiricaldispersion=gd3bj scf=xqc pop=npa geom=c
 heck
 ----------------------------------------------------------------------

 ---------------------------------------
 CID_129990527_JID_2523_Energie_neutraal
 ---------------------------------------
 Structure from the checkpoint file:  "JID_2523.chk"
 Charge =  0 Multiplicity = 1

 SCF Done:  E(RB3LYP) =  -558.637708288     A.U. after   15 cycles
 Normal termination of Gaussian 16 at Wed Dec  9 17:39:14 2020.

 ----------------------------------------------------------------------
 # B3LYP/6-311++G(d,p) empiricaldispersion=gd3bj scf=xqc pop=npa geom=c
 heck
 ----------------------------------------------------------------------

 -------------------------------------
 CID_129990527_JID_2523_Energie_kation
 -------------------------------------
 Structure from the checkpoint file:  "JID_2523.chk"
 Charge =  1 Multiplicity = 2

 SCF Done:  E(UB3LYP) =  -558.308703755     A.U. after   25 cycles
 Normal termination of Gaussian 16 at Wed Dec  9 17:46:05 2020.
 Gaussian 16:  ES64L-G16RevA.03 25-Dec-2016

 ----------------------------------------------------------------------
 # B3LYP/6-311++G(d,p) empiricaldispersion=gd3bj scf=xqc pop=npa geom=c
 heck
 ----------------------------------------------------------------------

 ------------------------------------
 CID_129990527_JID_2523_Energie_anion
 ------------------------------------
 Structure from the checkpoint file:  "JID_2523.chk"
 Charge = -1 Multiplicity = 2

                         Standard orientation:
 ---------------------------------------------------------------------
 Center     Atomic      Atomic             Coordinates (Angstroms)
 Number     Number       Type             X           Y           Z
 ---------------------------------------------------------------------
      1          6           0       -2.954645   -1.145401   -0.221272
      2          6           0       -2.212953    0.188068   -0.382092
      3          6           0       -3.069959    1.343098    0.154326
      4          6           0       -0.838333    0.139547    0.304486
      5          6           0        0.154425   -0.890880   -0.297907
      6          6           0        1.561325   -0.281818   -0.069233
      7          6           0        1.267051    1.225046   -0.031019
      8          8           0        2.082577    2.127454   -0.120547
      9          7           0       -0.079649    1.375014    0.158933
     10          6           0        2.556369   -0.629151   -1.174960
     11          6           0        2.130202   -0.672683    1.307840
     12          8           0       -0.019441   -2.216093    0.167403
     13          1           0       -3.161632   -1.346369    0.837900
     14          1           0       -2.373847   -1.986102   -0.607137
     15          1           0       -3.915938   -1.111157   -0.745413
     16          1           0       -2.028042    0.364752   -1.451472
     17          1           0       -3.221454    1.248204    1.237326
     18          1           0       -2.621089    2.323260   -0.042731
     19          1           0       -4.057571    1.340305   -0.319324
     20          1           0       -0.995410   -0.095615    1.373543
     21          1           0       -0.030738   -0.947843   -1.376232
     22          1           0       -0.464259    2.292050    0.338812
     23          1           0        3.499062   -0.097173   -1.017007
     24          1           0        2.751394   -1.707065   -1.186814
     25          1           0        2.168725   -0.339493   -2.157937
     26          1           0        1.436002   -0.436184    2.124699
     27          1           0        2.355890   -1.744069    1.338767
     28          1           0        3.054857   -0.119262    1.494093
     29          1           0        0.095614   -2.209180    1.130537
 ---------------------------------------------------------------------

 SCF Done:  E(UB3LYP) =  -558.625315037     A.U. after   31 cycles

 The electronic state is 2-A.
 Alpha  occ. eigenvalues --  -19.02945 -18.99311 -14.23914 -10.17096 -10.13194
 Alpha  occ. eigenvalues --  -10.11416 -10.09485 -10.08149 -10.07043 -10.06858
 Alpha  occ. eigenvalues --  -10.06050 -10.05381  -0.94412  -0.93402  -0.84346
 Alpha  occ. eigenvalues --   -0.71817  -0.70586  -0.62421  -0.59976  -0.58519
 Alpha  occ. eigenvalues --   -0.57024  -0.51896  -0.47902  -0.45484  -0.41885
 Alpha  occ. eigenvalues --   -0.40801  -0.38134  -0.36684  -0.35449  -0.33738
 Alpha  occ. eigenvalues --   -0.33205  -0.32466  -0.31712  -0.29977  -0.28944
 Alpha  occ. eigenvalues --   -0.28538  -0.28106  -0.27414  -0.26870  -0.25624
 Alpha  occ. eigenvalues --   -0.25140  -0.24416  -0.23616  -0.23028  -0.18132
 Alpha  occ. eigenvalues --   -0.16278  -0.15362   0.04549
 Alpha virt. eigenvalues --    0.06610   0.07595   0.08050   0.09338   0.09473
 Alpha virt. eigenvalues --    0.09904   0.10591   0.11109   0.11518   0.11928
 Alpha virt. eigenvalues --    0.12236   0.12655   0.13210   0.13678   0.15017

  Beta  occ. eigenvalues --  -19.02910 -18.99300 -14.23903 -10.17092 -10.13190
  Beta  occ. eigenvalues --  -10.11390 -10.09483 -10.08142 -10.07037 -10.06807
  Beta  occ. eigenvalues --  -10.06004 -10.05351  -0.94387  -0.93342  -0.84319
  Beta  occ. eigenvalues --   -0.71791  -0.70553  -0.62370  -0.59923  -0.58450
  Beta  occ. eigenvalues --   -0.56968  -0.51835  -0.47828  -0.45446  -0.41827
  Beta  occ. eigenvalues --   -0.40764  -0.38083  -0.36651  -0.35407  -0.33707
  Beta  occ. eigenvalues --   -0.33172  -0.32432  -0.31657  -0.29919  -0.28916
  Beta  occ. eigenvalues --   -0.28494  -0.28065  -0.27382  -0.26837  -0.25587
  Beta  occ. eigenvalues --   -0.25100  -0.24378  -0.23557  -0.22990  -0.18101
  Beta  occ. eigenvalues --   -0.16247  -0.15344
  Beta virt. eigenvalues --    0.06990   0.07622   0.08156   0.08610   0.09751
  Beta virt. eigenvalues --    0.10011   0.10322   0.11012   0.11262   0.12081
  Beta virt. eigenvalues --    0.12336   0.12648   0.13014   0.13652   0.13892

 Mulliken charges and spin densities:
               1          2
     1  C    0.761397  -1.494006
     2  C   -2.192068   2.834906
     3  C    1.191489  -1.820838
     4  C    1.474356  -1.739714
     5  C   -0.199060  -0.949896
     6  C   -0.454845   1.362991
     7  C   -0.042705  -0.132392
     8  O   -0.376266   0.007408
     9  N   -0.244646   0.122656
    10  C   -0.308402  -0.255386
    11  C    1.283874  -1.822563
    12  O   -0.129455  -0.009820
    13  H   -0.213605   0.367448
    14  H    0.060818   0.105122
    15  H   -0.205183   0.352091
    16  H    0.018740   0.142011
    17  H   -0.358718   0.524276
    18  H   -0.174908   0.274417
    19  H   -0.548430   0.710024
    20  H   -0.131819   0.411596
    21  H    0.194750   0.046579
    22  H    0.198081   0.120184
    23  H    0.123436   0.046991
    24  H    0.121476   0.029516
    25  H    0.062567   0.064302
    26  H   -0.672218   0.844646
    27  H   -0.145691   0.317064
    28  H    0.066054   0.104612
    29  H   -0.159018   0.435776
 Sum of Mulliken charges =  -1.00000   1.00000

 Dipole moment (field-independent basis, Debye):
    X=              3.8519    Y=             -0.2014    Z=             -4.7519  Tot=              6.1203
 Quadrupole moment (field-independent basis, Debye-Ang):
   XX=           -140.5187   YY=           -120.8491   ZZ=           -112.3185
   XY=             -1.0104   XZ=              0.3301   YZ=              5.7228

 Summary of Natural Population Analysis:

                                       Natural Population
                Natural  -----------------------------------------------
    Atom  No    Charge         Core      Valence    Rydberg      Total
 -----------------------------------------------------------------------
      C    1   -0.28731      0.99964     2.28148    0.00618     3.28731
      C    2   -0.11278      0.99960     2.10348    0.00970     3.11278
      C    3   -0.28583      0.99965     2.27992    0.00626     3.28583
      C    4   -0.01492      0.99955     2.00140    0.01397     3.01492
      C    5    0.07496      0.99947     1.91031    0.01526     2.92504
      C    6   -0.08612      0.99951     2.07402    0.01259     3.08612
      C    7    0.35334      0.99960     1.62137    0.02569     2.64666
      O    8   -0.32309      0.99987     3.31753    0.00569     4.32309
      N    9   -0.31961      0.99965     2.81051    0.00944     3.81961
      C   10   -0.28212      0.99963     2.27646    0.00603     3.28212
      C   11   -0.29059      0.99962     2.28268    0.00829     3.29059
      O   12   -0.36919      0.99989     3.36257    0.00673     4.36919
      H   13    0.10125      0.00000     0.39736    0.00139     0.39875
      H   14    0.10789      0.00000     0.39097    0.00114     0.39211
      H   15    0.09845      0.00000     0.40059    0.00096     0.40155
      H   16    0.09200      0.00000     0.40607    0.00193     0.40800
      H   17    0.10183      0.00000     0.39632    0.00185     0.39817
      H   18    0.09484      0.00000     0.40371    0.00145     0.40516
      H   19    0.10369      0.00000     0.39485    0.00146     0.39631
      H   20    0.09474      0.00000     0.40156    0.00369     0.40526
      H   21    0.08851      0.00000     0.40950    0.00199     0.41149
      H   22    0.19906      0.00000     0.29865    0.00229     0.30094
      H   23    0.10653      0.00000     0.39260    0.00088     0.39347
      H   24    0.10189      0.00000     0.39731    0.00080     0.39811
      H   25    0.09879      0.00000     0.40045    0.00076     0.40121
      H   26    0.10590      0.00000     0.39208    0.00202     0.39410
      H   27    0.10444      0.00000     0.39434    0.00122     0.39556
      H   28    0.10785      0.00000     0.39115    0.00099     0.39215
      H   29    0.23560      0.00000     0.25822    0.00618     0.26440
 =======================================================================
   * Total *   -0.00000     11.99570    34.84745    0.15685    47.00000

 Normal termination of Gaussian 16 at Wed Dec  9 17:54:09 2020.
