 Gaussian 16, Revision A.03,

 -----------------------------------------------------------
 # opt freq B3LYP/6-31G(d) empiricaldispersion=gd3bj scf=xqc
 -----------------------------------------------------------

 ------------------------------
 CID_80589005_JID_7944_neutraal
 ------------------------------
 Symbolic Z-matrix:
 Charge =  0 Multiplicity = 1

 SCF Done:  E(RB3LYP) =  -1539.45276380     A.U. after   15 cycles
 SCF Done:  E(RB3LYP) =  -1539.47025250     A.U. after   14 cycles
 SCF Done:  E(RB3LYP) =  -1539.47411698     A.U. after   15 cycles
 SCF Done:  E(RB3LYP) =  -1539.47560964     A.U. after   13 cycles
 SCF Done:  E(RB3LYP) =  -1539.47649759     A.U. after   13 cycles
 SCF Done:  E(RB3LYP) =  -1539.47814683     A.U. after   13 cycles
 SCF Done:  E(RB3LYP) =  -1539.48043748     A.U. after   13 cycles
 SCF Done:  E(RB3LYP) =  -1539.48052735     A.U. after   13 cycles
 SCF Done:  E(RB3LYP) =  -1539.48140269     A.U. after   13 cycles
 SCF Done:  E(RB3LYP) =  -1539.48168557     A.U. after   13 cycles
 SCF Done:  E(RB3LYP) =  -1539.48641837     A.U. after   11 cycles
 SCF Done:  E(RB3LYP) =  -1539.48642001     A.U. after   10 cycles
 SCF Done:  E(RB3LYP) =  -1539.48642011     A.U. after    8 cycles
 SCF Done:  E(RB3LYP) =  -1539.48642071     A.U. after    9 cycles
 SCF Done:  E(RB3LYP) =  -1539.48642077     A.U. after    8 cycles
 Optimization completed.
    -- Stationary point found.
 Normal termination of Gaussian 16 at Fri Dec 11 13:44:02 2020.

 --------------------------------------------------------------------
 #N Geom=AllCheck Guess=TCheck SCRF=Check GenChk RB3LYP/6-31G(d) Freq
 --------------------------------------------------------------------

 Structure from the checkpoint file:  "JID_7944.chk"
 ------------------------------
 CID_80589005_JID_7944_neutraal
 ------------------------------
 Charge =  0 Multiplicity = 1

 SCF Done:  E(RB3LYP) =  -1539.48642077     A.U. after    1 cycles

  Exact polarizability: 195.798   1.526 149.473 -12.571   3.766 114.217
 Approx polarizability: 245.482 -12.950 251.337 -23.713  13.886 194.446

                      1                      2                      3
                      A                      A                      A
 Frequencies --     20.5797                27.5529                37.6669
 Red. masses --      6.8698                 6.6830                 5.9022
 Frc consts  --      0.0017                 0.0030                 0.0049
 IR Inten    --      0.8275                 7.1637                 0.9586

                      4                      5                      6
                      A                      A                      A
 Frequencies --     47.7635                57.5195                70.8938
 Red. masses --      7.3046                 5.1596                 4.9097
 Frc consts  --      0.0098                 0.0101                 0.0145
 IR Inten    --      2.5645                 0.5104                 2.0844

                      7                      8                      9
                      A                      A                      A
 Frequencies --    112.9550               167.3814               169.5368
 Red. masses --      6.6041                 2.8432                 3.1776
 Frc consts  --      0.0496                 0.0469                 0.0538
 IR Inten    --      0.4869                 1.0104                 8.1869

                     10                     11                     12
                      A                      A                      A
 Frequencies --    207.1517               231.0365               243.6087
 Red. masses --      1.1374                 3.6825                 4.2911
 Frc consts  --      0.0288                 0.1158                 0.1500
 IR Inten    --      0.3478                 5.0393                 0.6765

                     13                     14                     15
                      A                      A                      A
 Frequencies --    255.5293               279.7693               298.0569
 Red. masses --      4.2451                 2.5492                 3.8249
 Frc consts  --      0.1633                 0.1176                 0.2002
 IR Inten    --      9.1556                 0.3650                 0.8544

                     16                     17                     18
                      A                      A                      A
 Frequencies --    319.0761               329.5076               338.7469
 Red. masses --      3.1667                 4.2601                 2.7371
 Frc consts  --      0.1900                 0.2725                 0.1851
 IR Inten    --      2.0096                 2.7108                14.7188

                     19                     20                     21
                      A                      A                      A
 Frequencies --    378.4421               400.2510               431.6402
 Red. masses --      3.5424                 3.5272                 4.5665
 Frc consts  --      0.2989                 0.3329                 0.5013
 IR Inten    --      1.0964                 8.2895                29.6702

                     22                     23                     24
                      A                      A                      A
 Frequencies --    452.9989               476.9953               494.8370
 Red. masses --      3.8607                 4.5881                 5.2008
 Frc consts  --      0.4668                 0.6150                 0.7503
 IR Inten    --     12.3293                30.6174                18.5588

                     25                     26                     27
                      A                      A                      A
 Frequencies --    546.5196               574.1235               590.8236
 Red. masses --      3.8614                 2.3120                 3.6938
 Frc consts  --      0.6795                 0.4490                 0.7597
 IR Inten    --      7.1367                96.9186                60.9127

                     28                     29                     30
                      A                      A                      A
 Frequencies --    600.3181               657.8882               666.6854
 Red. masses --      1.3340                 3.3788                 3.9955
 Frc consts  --      0.2832                 0.8616                 1.0463
 IR Inten    --    196.5910                26.3425                15.1334

                     31                     32                     33
                      A                      A                      A
 Frequencies --    691.2158               704.9426               725.4561
 Red. masses --      2.8527                 3.4836                 1.4215
 Frc consts  --      0.8030                 1.0200                 0.4408
 IR Inten    --     21.7340                 2.4489                 0.5257

                     34                     35                     36
                      A                      A                      A
 Frequencies --    754.2284               763.2338               788.6773
 Red. masses --      1.0531                 2.2070                 1.5283
 Frc consts  --      0.3530                 0.7575                 0.5601
 IR Inten    --     26.5217               137.5190                52.1736

                     37                     38                     39
                      A                      A                      A
 Frequencies --    811.3604               822.0459               824.6318
 Red. masses --      1.7800                 1.9302                 2.0056
 Frc consts  --      0.6904                 0.7685                 0.8036
 IR Inten    --     47.3008                 9.0378                37.4390

                     40                     41                     42
                      A                      A                      A
 Frequencies --    913.7038               914.8863               939.7678
 Red. masses --      2.2201                 3.0723                 2.3276
 Frc consts  --      1.0920                 1.5151                 1.2112
 IR Inten    --     37.7782                26.4208                23.4024

                     43                     44                     45
                      A                      A                      A
 Frequencies --    961.8378               976.7982               996.9484
 Red. masses --      3.1862                 2.4433                 1.3550
 Frc consts  --      1.7367                 1.3735                 0.7935
 IR Inten    --      1.2421                 0.7398                 9.1251

                     46                     47                     48
                      A                      A                      A
 Frequencies --   1005.1309              1007.3968              1076.9880
 Red. masses --      1.4449                 6.6495                 1.9739
 Frc consts  --      0.8601                 3.9759                 1.3490
 IR Inten    --     41.0120                 2.8007               109.7921

                     49                     50                     51
                      A                      A                      A
 Frequencies --   1096.4417              1104.9951              1119.1325
 Red. masses --      1.1376                 5.0774                 4.5347
 Frc consts  --      0.8058                 3.6527                 3.3462
 IR Inten    --      1.4186                 3.8618                69.6893

                     52                     53                     54
                      A                      A                      A
 Frequencies --   1125.0483              1155.7714              1186.8339
 Red. masses --      8.3476                 2.8473                 2.7851
 Frc consts  --      6.2252                 2.2410                 2.3114
 IR Inten    --     93.0826                23.6652                15.0891

                     55                     56                     57
                      A                      A                      A
 Frequencies --   1249.0349              1253.5789              1273.8309
 Red. masses --      1.1976                 1.2922                 1.3230
 Frc consts  --      1.1008                 1.1965                 1.2649
 IR Inten    --     13.5498                64.6206                 9.1355

                     58                     59                     60
                      A                      A                      A
 Frequencies --   1278.5558              1294.6257              1298.8442
 Red. masses --      1.2857                 1.4309                 1.3823
 Frc consts  --      1.2383                 1.4131                 1.3740
 IR Inten    --     12.5200                14.1076                 2.5970

                     61                     62                     63
                      A                      A                      A
 Frequencies --   1306.2216              1327.6171              1353.6339
 Red. masses --      1.2939                 4.7219                 2.0396
 Frc consts  --      1.3007                 4.9035                 2.2019
 IR Inten    --     12.6869               188.4964                52.7544

                     64                     65                     66
                      A                      A                      A
 Frequencies --   1381.1817              1383.2438              1404.2566
 Red. masses --      1.6235                 1.4469                 1.2745
 Frc consts  --      1.8247                 1.6311                 1.4808
 IR Inten    --    121.8917               158.5239                 3.7588

                     67                     68                     69
                      A                      A                      A
 Frequencies --   1430.6950              1440.5352              1458.9054
 Red. masses --      1.6434                 2.2127                 1.2242
 Frc consts  --      1.9819                 2.7053                 1.5351
 IR Inten    --     93.8419                30.8556                37.9930

                     70                     71                     72
                      A                      A                      A
 Frequencies --   1484.0887              1485.2313              1500.9981
 Red. masses --      1.0478                 1.0629                 1.0865
 Frc consts  --      1.3597                 1.3815                 1.4422
 IR Inten    --      5.9426                 2.1617                 7.0331

                     73                     74                     75
                      A                      A                      A
 Frequencies --   1507.1504              1510.7783              1517.3325
 Red. masses --      1.1349                 1.0808                 1.5411
 Frc consts  --      1.5189                 1.4534                 2.0904
 IR Inten    --     15.0294                 6.2127                79.2246

                     76                     77                     78
                      A                      A                      A
 Frequencies --   1529.9571              1536.3142              1630.3924
 Red. masses --      1.1819                 1.1166                 1.6414
 Frc consts  --      1.6300                 1.5527                 2.5707
 IR Inten    --     11.9815                12.3624               428.0108

                     79                     80                     81
                      A                      A                      A
 Frequencies --   1731.8920              3073.1327              3074.5437
 Red. masses --      4.1560                 1.0679                 1.0610
 Frc consts  --      7.3446                 5.9422                 5.9092
 IR Inten    --    173.9240                41.3014                22.6016

                     82                     83                     84
                      A                      A                      A
 Frequencies --   3091.1438              3098.1494              3108.3208
 Red. masses --      1.0298                 1.0621                 1.0849
 Frc consts  --      5.7974                 6.0065                 6.1759
 IR Inten    --      1.0279                25.1024                 2.6416

                     85                     86                     87
                      A                      A                      A
 Frequencies --   3124.9538              3131.3317              3146.1495
 Red. masses --      1.0893                 1.0604                 1.0990
 Frc consts  --      6.2676                 6.1260                 6.4092
 IR Inten    --     34.4085                25.6847                 1.4904

                     88                     89                     90
                      A                      A                      A
 Frequencies --   3160.7144              3182.5815              3186.6456
 Red. masses --      1.1049                 1.1065                 1.1062
 Frc consts  --      6.5037                 6.6031                 6.6181
 IR Inten    --     21.1555                16.3130                 0.9566

                     91                     92                     93
                      A                      A                      A
 Frequencies --   3204.3456              3207.0902              3409.6398
 Red. masses --      1.1081                 1.0943                 1.0587
 Frc consts  --      6.7037                 6.6313                 7.2519
 IR Inten    --      0.2112                 3.3500               398.7163

                     94                     95                     96
                      A                      A                      A
 Frequencies --   3530.2546              3550.5479              3644.5690
 Red. masses --      1.0751                 1.0752                 1.0921
 Frc consts  --      7.8939                 7.9857                 8.5472
 IR Inten    --     29.3725                76.6985                93.4359

 - Thermochemistry -
 -------------------
 Temperature   298.150 Kelvin.  Pressure   1.00000 Atm.
 Atom     1 has atomic number  6 and mass  12.00000

 Molecular mass:   279.07114 amu.
 Principal axes and moments of inertia in atomic units:
                           1         2         3
     Eigenvalues --  1925.38437********************
           X            0.99997   0.00709   0.00384
           Y           -0.00706   0.99995  -0.00724
           Z           -0.00389   0.00721   0.99997
 This molecule is an asymmetric top.
 Rotational symmetry number  1.
 Warning -- assumption of classical behavior for rotation
           may cause significant error
 Rotational temperatures (Kelvin)      0.04499     0.00826     0.00766
 Rotational constants (GHZ):           0.93734     0.17216     0.15967
 Zero-point vibrational energy     732391.7 (Joules/Mol)
                                  175.04583 (Kcal/Mol)
 Warning -- explicit consideration of  28 degrees of freedom as
           vibrations may cause significant error
 Vibrational temperatures:     29.61    39.64    54.19    68.72    82.76
          (Kelvin)            102.00   162.52   240.82   243.93   298.05
                              332.41   350.50   367.65   402.53   428.84
                              459.08   474.09   487.38   544.49   575.87
                              621.03   651.76   686.29   711.96   786.32
                              826.04   850.06   863.72   946.55   959.21
                              994.51  1014.26  1043.77  1085.17  1098.12
                             1134.73  1167.37  1182.74  1186.46  1314.62
                             1316.32  1352.12  1383.87  1405.39  1434.39
                             1446.16  1449.42  1549.55  1577.54  1589.84
                             1610.18  1618.69  1662.90  1707.59  1797.08
                             1803.62  1832.76  1839.56  1862.68  1868.75
                             1879.36  1910.14  1947.58  1987.21  1990.18
                             2020.41  2058.45  2072.61  2099.04  2135.27
                             2136.92  2159.60  2168.45  2173.67  2183.10
                             2201.27  2210.41  2345.77  2491.81  4421.55
                             4423.58  4447.47  4457.55  4472.18  4496.11
                             4505.29  4526.61  4547.56  4579.02  4584.87
                             4610.34  4614.29  4905.71  5079.25  5108.45
                             5243.72

 Zero-point correction=                           0.278953 (Hartree/Particle)
 Thermal correction to Energy=                    0.296977
 Thermal correction to Enthalpy=                  0.297921
 Thermal correction to Gibbs Free Energy=         0.230453
 Sum of electronic and zero-point Energies=          -1539.207467
 Sum of electronic and thermal Energies=             -1539.189444
 Sum of electronic and thermal Enthalpies=           -1539.188500
 Sum of electronic and thermal Free Energies=        -1539.255968

                     E (Thermal)             CV                S
                      KCal/Mol        Cal/Mol-Kelvin    Cal/Mol-Kelvin
 Total                  186.356             67.593            141.998
 Electronic               0.000              0.000              0.000
 Translational            0.889              2.981             42.777
 Rotational               0.889              2.981             33.789
 Vibrational            184.578             61.632             65.432
 Vibration     1          0.593              1.986              6.577
 Vibration     2          0.593              1.984              5.998
 Vibration     3          0.594              1.982              5.378
 Vibration     4          0.595              1.978              4.908
 Vibration     5          0.596              1.974              4.541
 Vibration     6          0.598              1.968              4.128
 Vibration     7          0.607              1.939              3.217
 Vibration     8          0.624              1.883              2.465
 Vibration     9          0.625              1.880              2.441
 Vibration    10          0.641              1.830              2.069
 Vibration    11          0.653              1.794              1.871
 Vibration    12          0.659              1.773              1.776
 Vibration    13          0.666              1.753              1.692
 Vibration    14          0.680              1.711              1.535
 Vibration    15          0.691              1.677              1.428
 Vibration    16          0.705              1.637              1.315
 Vibration    17          0.712              1.617              1.262
 Vibration    18          0.719              1.598              1.218
 Vibration    19          0.749              1.516              1.045
 Vibration    20          0.766              1.470              0.962
 Vibration    21          0.793              1.401              0.853
 Vibration    22          0.812              1.354              0.787
 Vibration    23          0.834              1.301              0.718
 Vibration    24          0.850              1.261              0.671
 Vibration    25          0.902              1.147              0.551
 Vibration    26          0.930              1.087              0.496
 Vibration    27          0.948              1.051              0.466
 Vibration    28          0.958              1.031              0.449

 Optimization completed.
    -- Stationary point found.
 Normal termination of Gaussian 16 at Fri Dec 11 13:56:15 2020.

 ----------------------------------------------------------------------
 # B3LYP/6-311++G(d,p) empiricaldispersion=gd3bj scf=xqc pop=npa geom=c
 heck
 ----------------------------------------------------------------------

 --------------------------------------
 CID_80589005_JID_7944_Energie_neutraal
 --------------------------------------
 Structure from the checkpoint file:  "JID_7944.chk"
 Charge =  0 Multiplicity = 1

 SCF Done:  E(RB3LYP) =  -1539.76425547     A.U. after   16 cycles
 Normal termination of Gaussian 16 at Fri Dec 11 14:03:06 2020.

 ----------------------------------------------------------------------
 # B3LYP/6-311++G(d,p) empiricaldispersion=gd3bj scf=xqc pop=npa geom=c
 heck
 ----------------------------------------------------------------------

 ------------------------------------
 CID_80589005_JID_7944_Energie_kation
 ------------------------------------
 Structure from the checkpoint file:  "JID_7944.chk"
 Charge =  1 Multiplicity = 2

 SCF Done:  E(UB3LYP) =  -1539.46945045     A.U. after   31 cycles
 Normal termination of Gaussian 16 at Fri Dec 11 14:21:55 2020.
 Gaussian 16:  ES64L-G16RevA.03 25-Dec-2016

 ----------------------------------------------------------------------
 # B3LYP/6-311++G(d,p) empiricaldispersion=gd3bj scf=xqc pop=npa geom=c
 heck
 ----------------------------------------------------------------------

 -----------------------------------
 CID_80589005_JID_7944_Energie_anion
 -----------------------------------
 Structure from the checkpoint file:  "JID_7944.chk"
 Charge = -1 Multiplicity = 2

                         Standard orientation:
 ---------------------------------------------------------------------
 Center     Atomic      Atomic             Coordinates (Angstroms)
 Number     Number       Type             X           Y           Z
 ---------------------------------------------------------------------
      1          6           0        5.113848    0.725011    0.146146
      2         16           0        3.700515   -0.382678    0.169275
      3          8           0        3.278476   -0.582099   -1.227981
      4          8           0        3.990576   -1.532406    1.025614
      5          7           0        2.564170    0.533558    1.018486
      6          6           0        1.741614    1.525655    0.316087
      7          6           0        0.840599    1.009812   -0.833491
      8          7           0        0.329551   -0.332212   -0.598796
      9          6           0       -0.909223   -0.882930   -0.399899
     10          8           0       -0.972203   -2.117677   -0.435780
     11          6           0       -2.132964    0.019122   -0.155981
     12          6           0       -1.887914    1.258062    0.772084
     13          6           0       -2.343726    2.221152   -0.350985
     14          6           0       -2.422061    1.033783   -1.342895
     15          6           0       -3.449011   -0.712857    0.180178
     16         16           0       -4.748996    0.088989    0.874393
     17          7           0       -3.550264   -1.982056   -0.218355
     18          1           0        5.900745    0.221713   -0.419315
     19          1           0        5.426434    0.908045    1.174294
     20          1           0        4.833177    1.654953   -0.352126
     21          1           0        2.017949   -0.118966    1.578460
     22          1           0        1.134004    1.988371    1.099194
     23          1           0        2.398954    2.310518   -0.073418
     24          1           0        0.033660    1.721988   -0.983955
     25          1           0        1.423662    0.971999   -1.755836
     26          1           0        1.003706   -1.056543   -0.830649
     27          1           0       -2.519758    1.255427    1.659010
     28          1           0       -0.847683    1.360106    1.080196
     29          1           0       -1.648771    3.024264   -0.618390
     30          1           0       -3.322068    2.657665   -0.145593
     31          1           0       -1.648241    1.015685   -2.114386
     32          1           0       -3.390353    0.877785   -1.819875
     33          1           0       -2.692552   -2.484394   -0.455540
     34          1           0       -4.413141   -2.468031   -0.012407
 ---------------------------------------------------------------------

 SCF Done:  E(UB3LYP) =  -1539.76559967     A.U. after   33 cycles
 SCF Done:  E(UB3LYP) =  -1539.76559967     a.u. after    1 cycles

 The electronic state is 2-A.
 Alpha  occ. eigenvalues --  -88.98229 -88.68852 -19.03599 -19.03580 -19.01075
 Alpha  occ. eigenvalues --  -14.26520 -14.25468 -14.23694 -10.19887 -10.15238
 Alpha  occ. eigenvalues --  -10.13575 -10.12923 -10.12120 -10.11947 -10.09136
 Alpha  occ. eigenvalues --  -10.08484 -10.08288  -8.04449  -7.77645  -6.00736
 Alpha  occ. eigenvalues --   -6.00688  -6.00516  -5.74008  -5.73524  -5.73183
 Alpha  occ. eigenvalues --   -1.03899  -0.96469  -0.92852  -0.85821  -0.84668
 Alpha  occ. eigenvalues --   -0.83209  -0.76670  -0.69631  -0.66983  -0.64116
 Alpha  occ. eigenvalues --   -0.60838  -0.58776  -0.58135  -0.53379  -0.51245
 Alpha  occ. eigenvalues --   -0.50041  -0.46070  -0.45603  -0.43448  -0.43128
 Alpha  occ. eigenvalues --   -0.41400  -0.40634  -0.40193  -0.39455  -0.38112
 Alpha  occ. eigenvalues --   -0.37259  -0.35988  -0.35502  -0.34607  -0.34335
 Alpha  occ. eigenvalues --   -0.33436  -0.32067  -0.31748  -0.30189  -0.28537
 Alpha  occ. eigenvalues --   -0.26661  -0.26276  -0.25612  -0.25180  -0.24584
 Alpha  occ. eigenvalues --   -0.23501  -0.23474  -0.22665  -0.22296  -0.20106
 Alpha  occ. eigenvalues --   -0.18047  -0.17408  -0.13060  -0.11381   0.03353
 Alpha virt. eigenvalues --    0.04741   0.06516   0.07372   0.07505   0.08135
 Alpha virt. eigenvalues --    0.08543   0.08701   0.09469   0.10059   0.10825
 Alpha virt. eigenvalues --    0.11176   0.11350   0.11904   0.12495   0.12977

  Beta  occ. eigenvalues --  -88.98225 -88.68846 -19.03589 -19.03567 -19.01047
  Beta  occ. eigenvalues --  -14.26509 -14.25474 -14.23631 -10.19840 -10.14967
  Beta  occ. eigenvalues --  -10.13537 -10.12907 -10.12149 -10.11860 -10.09056
  Beta  occ. eigenvalues --  -10.08457 -10.08282  -8.04443  -7.77639  -6.00732
  Beta  occ. eigenvalues --   -6.00684  -6.00511  -5.74014  -5.73493  -5.73179
  Beta  occ. eigenvalues --   -1.03871  -0.96410  -0.92822  -0.85791  -0.84434
  Beta  occ. eigenvalues --   -0.83180  -0.76574  -0.69552  -0.66910  -0.63871
  Beta  occ. eigenvalues --   -0.60763  -0.58681  -0.58077  -0.53306  -0.51153
  Beta  occ. eigenvalues --   -0.49912  -0.45978  -0.45555  -0.43404  -0.43078
  Beta  occ. eigenvalues --   -0.41349  -0.40578  -0.40154  -0.39403  -0.38077
  Beta  occ. eigenvalues --   -0.37182  -0.35864  -0.35429  -0.34492  -0.34281
  Beta  occ. eigenvalues --   -0.33246  -0.31962  -0.31650  -0.30122  -0.28249
  Beta  occ. eigenvalues --   -0.26528  -0.26251  -0.25362  -0.24956  -0.24546
  Beta  occ. eigenvalues --   -0.23447  -0.23409  -0.22634  -0.22130  -0.20080
  Beta  occ. eigenvalues --   -0.17989  -0.17373  -0.12693  -0.11361
  Beta virt. eigenvalues --    0.06105   0.06591   0.07085   0.07585   0.07768
  Beta virt. eigenvalues --    0.08512   0.08813   0.09143   0.09998   0.10521
  Beta virt. eigenvalues --    0.10866   0.11371   0.11570   0.11932   0.12712

 Mulliken charges and spin densities:
               1          2
     1  C    0.921518  -1.410138
     2  S    0.262194  -0.062362
     3  O   -0.202498   0.029784
     4  O   -0.201599   0.020776
     5  N   -0.455012   0.180634
     6  C    0.554082  -1.285381
     7  C   -0.279714   0.184420
     8  N   -0.176015   0.010761
     9  C   -0.111408  -0.027037
    10  O   -0.326082   0.008755
    11  C    0.786957   0.007339
    12  C   -0.650012   0.102387
    13  C    0.005498  -0.290666
    14  C   -0.599694   0.006542
    15  C    0.019431   0.136715
    16  S   -0.586055   0.045302
    17  N   -0.290040   0.044602
    18  H   -0.167262   0.378704
    19  H   -0.284744   0.501308
    20  H   -0.598210   0.822975
    21  H    0.281544   0.051951
    22  H   -0.080034   0.275882
    23  H   -0.570401   0.777384
    24  H    0.117778  -0.008879
    25  H    0.031837   0.247531
    26  H    0.298239   0.025363
    27  H    0.131590   0.018301
    28  H    0.279012  -0.145554
    29  H   -0.047985   0.211552
    30  H    0.163795  -0.026314
    31  H    0.010117   0.174961
    32  H    0.188090  -0.005343
    33  H    0.319042  -0.001496
    34  H    0.256045  -0.000761
 Sum of Mulliken charges =  -1.00000   1.00000

 Dipole moment (field-independent basis, Debye):
    X=             -3.8306    Y=             -2.0904    Z=              0.0705  Tot=              4.3644
 Quadrupole moment (field-independent basis, Debye-Ang):
   XX=           -232.7193   YY=           -158.4355   ZZ=           -144.0521
   XY=             -7.9775   XZ=              9.0322   YZ=              4.6119

 Summary of Natural Population Analysis:

                                       Natural Population
                Natural  -----------------------------------------------
    Atom  No    Charge         Core      Valence    Rydberg      Total
 -----------------------------------------------------------------------
      C    1   -0.38789      0.99961     2.37821    0.01008     3.38789
      S    2    1.09042      4.99934     1.81094    0.09929     6.90958
      O    3   -0.47100      0.99991     3.46520    0.00590     4.47100
      O    4   -0.46244      0.99990     3.45694    0.00560     4.46244
      N    5   -0.43557      0.99976     2.92325    0.01256     3.93557
      C    6   -0.09793      0.99961     2.08473    0.01359     3.09793
      C    7   -0.10631      0.99960     2.09512    0.01160     3.10631
      N    8   -0.32346      0.99966     2.81367    0.01013     3.82346
      C    9    0.36356      0.99960     1.61520    0.02164     2.63644
      O   10   -0.33632      0.99987     3.33068    0.00577     4.33632
      C   11   -0.10567      0.99947     2.09208    0.01413     3.10567
      C   12   -0.18099      0.99962     2.17237    0.00900     3.18099
      C   13   -0.20104      0.99965     2.19316    0.00823     3.20104
      C   14   -0.16527      0.99962     2.15611    0.00955     3.16527
      C   15    0.11727      0.99962     1.86287    0.02024     2.88273
      S   16   -0.14439      4.99956     3.13123    0.01360     8.14439
      N   17   -0.36845      0.99964     2.85947    0.00934     3.86845
      H   18    0.11893      0.00000     0.37999    0.00107     0.38107
      H   19    0.11959      0.00000     0.37896    0.00145     0.38041
      H   20    0.12382      0.00000     0.37121    0.00497     0.37618
      H   21    0.19944      0.00000     0.29857    0.00199     0.30056
      H   22    0.10005      0.00000     0.39884    0.00111     0.39995
      H   23    0.10772      0.00000     0.38860    0.00369     0.39228
      H   24    0.10625      0.00000     0.39162    0.00213     0.39375
      H   25    0.11020      0.00000     0.38842    0.00138     0.38980
      H   26    0.20493      0.00000     0.29179    0.00327     0.29507
      H   27    0.11580      0.00000     0.38299    0.00121     0.38420
      H   28    0.09444      0.00000     0.40417    0.00139     0.40556
      H   29    0.09493      0.00000     0.40397    0.00109     0.40507
      H   30    0.10919      0.00000     0.38988    0.00092     0.39081
      H   31    0.10020      0.00000     0.39879    0.00101     0.39980
      H   32    0.10648      0.00000     0.39263    0.00089     0.39352
      H   33    0.21349      0.00000     0.28494    0.00157     0.28651
      H   34    0.19001      0.00000     0.30742    0.00257     0.30999
 =======================================================================
   * Total *    0.00000     24.99403    48.69402    0.31196    74.00000

 Normal termination of Gaussian 16 at Fri Dec 11 14:42:13 2020.
