 Gaussian 16, Revision A.03,

 -----------------------------------------------------------
 # opt freq B3LYP/6-31G(d) empiricaldispersion=gd3bj scf=xqc
 -----------------------------------------------------------

 ------------------------------
 CID_62844041_JID_8703_neutraal
 ------------------------------
 Symbolic Z-matrix:
 Charge =  0 Multiplicity = 1

 SCF Done:  E(RB3LYP) =  -1164.41627871     A.U. after   15 cycles
 SCF Done:  E(RB3LYP) =  -1164.42277030     A.U. after   12 cycles
 SCF Done:  E(RB3LYP) =  -1164.42416388     A.U. after   12 cycles
 SCF Done:  E(RB3LYP) =  -1164.42452121     A.U. after   12 cycles
 SCF Done:  E(RB3LYP) =  -1164.42584226     A.U. after   12 cycles
 SCF Done:  E(RB3LYP) =  -1164.42641562     A.U. after   12 cycles
 SCF Done:  E(RB3LYP) =  -1164.42701602     A.U. after   12 cycles
 SCF Done:  E(RB3LYP) =  -1164.42762157     A.U. after   13 cycles
 SCF Done:  E(RB3LYP) =  -1164.42633000     A.U. after   15 cycles
 SCF Done:  E(RB3LYP) =  -1164.42849222     A.U. after   12 cycles
 SCF Done:  E(RB3LYP) =  -1164.43197475     A.U. after   11 cycles
 SCF Done:  E(RB3LYP) =  -1164.43198458     A.U. after   10 cycles
 SCF Done:  E(RB3LYP) =  -1164.43198542     A.U. after   10 cycles
 SCF Done:  E(RB3LYP) =  -1164.43198600     A.U. after    8 cycles
 SCF Done:  E(RB3LYP) =  -1164.43198602     A.U. after    7 cycles
 Optimization completed.
    -- Stationary point found.
 Normal termination of Gaussian 16 at Fri Dec 11 22:26:23 2020.

 --------------------------------------------------------------------
 #N Geom=AllCheck Guess=TCheck SCRF=Check GenChk RB3LYP/6-31G(d) Freq
 --------------------------------------------------------------------

 Structure from the checkpoint file:  "JID_8703.chk"
 ------------------------------
 CID_62844041_JID_8703_neutraal
 ------------------------------
 Charge =  0 Multiplicity = 1

 SCF Done:  E(RB3LYP) =  -1164.43198602     A.U. after    1 cycles

  Exact polarizability: 215.244  -1.738 155.345   6.642   4.605 121.207
 Approx polarizability: 285.008   4.596 241.621   9.117   6.354 202.940

                      1                      2                      3
                      A                      A                      A
 Frequencies --     18.1091                39.8753                54.0775
 Red. masses --      4.5183                 5.1548                 5.4690
 Frc consts  --      0.0009                 0.0048                 0.0094
 IR Inten    --      0.3874                 0.7740                 0.8100

                      4                      5                      6
                      A                      A                      A
 Frequencies --     60.4047               113.1722               124.4924
 Red. masses --      6.9524                 3.3848                 3.2273
 Frc consts  --      0.0149                 0.0255                 0.0295
 IR Inten    --      0.2392                 0.6449                 3.6375

                      7                      8                      9
                      A                      A                      A
 Frequencies --    142.1090               169.2982               204.0084
 Red. masses --      5.3546                 5.1403                 3.6466
 Frc consts  --      0.0637                 0.0868                 0.0894
 IR Inten    --      0.5458                 0.3565                 2.0122

                     10                     11                     12
                      A                      A                      A
 Frequencies --    248.2390               261.9405               308.4733
 Red. masses --      3.5409                 3.1165                 3.5807
 Frc consts  --      0.1286                 0.1260                 0.2008
 IR Inten    --      8.4231                 0.8904                 1.4040

                     13                     14                     15
                      A                      A                      A
 Frequencies --    317.7861               344.2628               370.8873
 Red. masses --      3.4154                 5.2420                 3.1490
 Frc consts  --      0.2032                 0.3660                 0.2552
 IR Inten    --      6.2663                 2.4234                 4.6911

                     16                     17                     18
                      A                      A                      A
 Frequencies --    423.5330               435.6088               458.4550
 Red. masses --      3.2088                 2.7693                 2.8711
 Frc consts  --      0.3391                 0.3096                 0.3555
 IR Inten    --      1.8954                 4.2237                 1.6192

                     19                     20                     21
                      A                      A                      A
 Frequencies --    461.5632               485.8064               545.2445
 Red. masses --      3.3498                 4.6213                 4.7406
 Frc consts  --      0.4205                 0.6426                 0.8304
 IR Inten    --      2.9828                 1.6206                 2.8805

                     22                     23                     24
                      A                      A                      A
 Frequencies --    572.6035               613.6129               620.1456
 Red. masses --      3.8617                 2.0009                 2.0968
 Frc consts  --      0.7460                 0.4439                 0.4751
 IR Inten    --     36.7635                13.2053                36.0333

                     25                     26                     27
                      A                      A                      A
 Frequencies --    647.1123               662.3987               681.4142
 Red. masses --      2.5881                 1.3819                 1.5498
 Frc consts  --      0.6385                 0.3572                 0.4240
 IR Inten    --      9.3203                22.3533                79.6224

                     28                     29                     30
                      A                      A                      A
 Frequencies --    704.8087               717.9382               723.6583
 Red. masses --      2.9331                 1.8201                 4.1857
 Frc consts  --      0.8585                 0.5527                 1.2915
 IR Inten    --      6.1849                31.7028                 1.6232

                     31                     32                     33
                      A                      A                      A
 Frequencies --    748.1481               785.9724               807.3903
 Red. masses --      4.3707                 3.7446                 2.2963
 Frc consts  --      1.4414                 1.3629                 0.8819
 IR Inten    --     38.6307                 9.0963                94.9219

                     34                     35                     36
                      A                      A                      A
 Frequencies --    830.2012               831.2016               849.6319
 Red. masses --      2.9557                 3.6949                 2.0619
 Frc consts  --      1.2003                 1.5041                 0.8769
 IR Inten    --      4.6857                 7.8920                 3.2151

                     37                     38                     39
                      A                      A                      A
 Frequencies --    865.7713               887.2403               894.6623
 Red. masses --      2.4278                 1.3116                 1.7379
 Frc consts  --      1.0722                 0.6083                 0.8196
 IR Inten    --      1.9956                 0.6402                10.9605

                     40                     41                     42
                      A                      A                      A
 Frequencies --    905.3982               919.7119               964.0687
 Red. masses --      2.5422                 3.6966                 2.0495
 Frc consts  --      1.2278                 1.8423                 1.1223
 IR Inten    --     12.8937                18.6597                 1.8933

                     43                     44                     45
                      A                      A                      A
 Frequencies --    977.3462              1003.1793              1021.5749
 Red. masses --      2.2220                 2.6041                 1.6522
 Frc consts  --      1.2505                 1.5441                 1.0159
 IR Inten    --      4.2937                17.3234                 2.7315

                     46                     47                     48
                      A                      A                      A
 Frequencies --   1035.1936              1046.1217              1075.8134
 Red. masses --      2.0403                 3.0980                 2.8887
 Frc consts  --      1.2882                 1.9976                 1.9698
 IR Inten    --     13.7436                 3.7231                 2.7165

                     49                     50                     51
                      A                      A                      A
 Frequencies --   1084.8525              1105.3426              1118.0403
 Red. masses --      2.5051                 1.2975                 2.1082
 Frc consts  --      1.7370                 0.9340                 1.5526
 IR Inten    --     48.1050                 6.3317                 5.5513

                     52                     53                     54
                      A                      A                      A
 Frequencies --   1126.2131              1139.5293              1176.6141
 Red. masses --      3.0179                 2.2998                 1.9518
 Frc consts  --      2.2553                 1.7595                 1.5920
 IR Inten    --     50.0062                 0.8135                 2.9499

                     55                     56                     57
                      A                      A                      A
 Frequencies --   1195.7006              1211.4631              1218.5623
 Red. masses --      1.4628                 1.1787                 1.4304
 Frc consts  --      1.2322                 1.0192                 1.2514
 IR Inten    --      3.4770                11.4992                36.6420

                     58                     59                     60
                      A                      A                      A
 Frequencies --   1224.1921              1239.2455              1247.6492
 Red. masses --      1.2453                 1.6158                 1.4719
 Frc consts  --      1.0996                 1.4620                 1.3500
 IR Inten    --     28.8125                 4.4925                29.8719

                     61                     62                     63
                      A                      A                      A
 Frequencies --   1296.0421              1307.2272              1324.8934
 Red. masses --      1.2293                 1.2486                 1.5404
 Frc consts  --      1.2166                 1.2571                 1.5931
 IR Inten    --      8.7627                30.4915               164.6854

                     64                     65                     66
                      A                      A                      A
 Frequencies --   1332.4162              1337.2625              1356.2927
 Red. masses --      1.4131                 1.5749                 1.3548
 Frc consts  --      1.4781                 1.6594                 1.4684
 IR Inten    --      1.1752                 2.4504                 1.3964

                     67                     68                     69
                      A                      A                      A
 Frequencies --   1358.7090              1377.0844              1382.5045
 Red. masses --      1.3523                 1.4485                 1.4521
 Frc consts  --      1.4709                 1.6184                 1.6353
 IR Inten    --      9.8835                15.3548                 2.2529

                     70                     71                     72
                      A                      A                      A
 Frequencies --   1390.7472              1409.8960              1422.9259
 Red. masses --      1.3956                 1.5036                 1.6211
 Frc consts  --      1.5904                 1.7609                 1.9339
 IR Inten    --      1.8727                 6.0698                74.3335

                     73                     74                     75
                      A                      A                      A
 Frequencies --   1432.5518              1479.5470              1502.9327
 Red. masses --      3.2889                 1.4237                 1.5807
 Frc consts  --      3.9767                 1.8362                 2.1036
 IR Inten    --      1.4600                24.7916               214.7468

                     76                     77                     78
                      A                      A                      A
 Frequencies --   1503.3054              1504.9905              1513.2265
 Red. masses --      1.2285                 1.5275                 1.3036
 Frc consts  --      1.6357                 2.0384                 1.7587
 IR Inten    --     15.0115                28.2901                39.5843

                     79                     80                     81
                      A                      A                      A
 Frequencies --   1515.6228              1524.3326              1529.1545
 Red. masses --      1.8679                 1.1654                 1.1014
 Frc consts  --      2.5280                 1.5954                 1.5174
 IR Inten    --      1.7667                 5.3174                 3.6753

                     82                     83                     84
                      A                      A                      A
 Frequencies --   1530.9658              1617.6090              1742.5687
 Red. masses --      1.0974                 6.3657                 7.0133
 Frc consts  --      1.5154                 9.8139                12.5474
 IR Inten    --      3.4496                 2.7352               442.2963

                     85                     86                     87
                      A                      A                      A
 Frequencies --   3023.0476              3035.3535              3050.5097
 Red. masses --      1.0690                 1.0692                 1.0642
 Frc consts  --      5.7557                 5.8039                 5.8345
 IR Inten    --     26.6712                15.9902                30.9244

                     88                     89                     90
                      A                      A                      A
 Frequencies --   3058.1876              3072.5363              3075.6843
 Red. masses --      1.0706                 1.0837                 1.0612
 Frc consts  --      5.8995                 6.0275                 5.9146
 IR Inten    --     19.6388                24.3646                29.6156

                     91                     92                     93
                      A                      A                      A
 Frequencies --   3076.6716              3088.2447              3098.1067
 Red. masses --      1.0917                 1.0867                 1.1011
 Frc consts  --      6.0888                 6.1064                 6.2269
 IR Inten    --     31.3131                61.2061                40.8545

                     94                     95                     96
                      A                      A                      A
 Frequencies --   3102.5637              3118.9573              3124.0931
 Red. masses --      1.0850                 1.0973                 1.1073
 Frc consts  --      6.1534                 6.2891                 6.3677
 IR Inten    --     30.4226                 3.3975                38.7791

                     97                     98                     99
                      A                      A                      A
 Frequencies --   3140.5589              3218.2349              3272.9703
 Red. masses --      1.0972                 1.0911                 1.0969
 Frc consts  --      6.3762                 6.6580                 6.9231
 IR Inten    --     11.5131                 5.1174                 0.7500

                    100                    101                    102
                      A                      A                      A
 Frequencies --   3487.4861              3578.6700              3582.2267
 Red. masses --      1.0750                 1.0679                 1.0730
 Frc consts  --      7.7037                 8.0581                 8.1127
 IR Inten    --      0.1374               263.9331                28.0164

 - Thermochemistry -
 -------------------
 Temperature   298.150 Kelvin.  Pressure   1.00000 Atm.
 Atom     1 has atomic number  6 and mass  12.00000

 Molecular mass:   266.10890 amu.
 Principal axes and moments of inertia in atomic units:
                           1         2         3
     Eigenvalues --  1848.716039950.36036**********
           X            0.99998   0.00261   0.00580
           Y           -0.00276   0.99964   0.02675
           Z           -0.00573  -0.02677   0.99963
 This molecule is an asymmetric top.
 Rotational symmetry number  1.
 Warning -- assumption of classical behavior for rotation
           may cause significant error
 Rotational temperatures (Kelvin)      0.04685     0.00870     0.00805
 Rotational constants (GHZ):           0.97621     0.18137     0.16778
 Zero-point vibrational energy     801282.6 (Joules/Mol)
                                  191.51113 (Kcal/Mol)
 Warning -- explicit consideration of  24 degrees of freedom as
           vibrations may cause significant error
 Vibrational temperatures:     26.05    57.37    77.81    86.91   162.83
          (Kelvin)            179.12   204.46   243.58   293.52   357.16
                              376.87   443.82   457.22   495.32   533.62
                              609.37   626.74   659.61   664.09   698.97
                              784.49   823.85   882.85   892.25   931.05
                              953.04   980.40  1014.06  1032.95  1041.18
                             1076.42  1130.84  1161.65  1194.47  1195.91
                             1222.43  1245.65  1276.54  1287.22  1302.67
                             1323.26  1387.08  1406.18  1443.35  1469.82
                             1489.41  1505.14  1547.86  1560.86  1590.34
                             1608.61  1620.37  1639.53  1692.89  1720.35
                             1743.03  1753.24  1761.34  1783.00  1795.09
                             1864.72  1880.81  1906.23  1917.05  1924.02
                             1951.40  1954.88  1981.32  1989.12  2000.98
                             2028.53  2047.27  2061.12  2128.74  2162.38
                             2162.92  2165.35  2177.20  2180.64  2193.17
                             2200.11  2202.72  2327.38  2507.17  4349.49
                             4367.20  4389.00  4400.05  4420.69  4425.22
                             4426.64  4443.30  4457.48  4463.90  4487.48
                             4494.87  4518.56  4630.32  4709.07  5017.71
                             5148.91  5154.03

 Zero-point correction=                           0.305192 (Hartree/Particle)
 Thermal correction to Energy=                    0.321170
 Thermal correction to Enthalpy=                  0.322114
 Thermal correction to Gibbs Free Energy=         0.260032
 Sum of electronic and zero-point Energies=          -1164.126794
 Sum of electronic and thermal Energies=             -1164.110816
 Sum of electronic and thermal Enthalpies=           -1164.109872
 Sum of electronic and thermal Free Energies=        -1164.171954

                     E (Thermal)             CV                S
                      KCal/Mol        Cal/Mol-Kelvin    Cal/Mol-Kelvin
 Total                  201.537             63.293            130.662
 Electronic               0.000              0.000              0.000
 Translational            0.889              2.981             42.635
 Rotational               0.889              2.981             33.647
 Vibrational            199.760             57.332             54.379
 Vibration     1          0.593              1.986              6.831
 Vibration     2          0.594              1.981              5.265
 Vibration     3          0.596              1.976              4.662
 Vibration     4          0.597              1.973              4.444
 Vibration     5          0.607              1.939              3.214
 Vibration     6          0.610              1.929              3.029
 Vibration     7          0.616              1.911              2.775
 Vibration     8          0.625              1.880              2.443
 Vibration     9          0.640              1.834              2.097
 Vibration    10          0.662              1.766              1.743
 Vibration    11          0.669              1.742              1.649
 Vibration    12          0.698              1.658              1.371
 Vibration    13          0.704              1.640              1.321
 Vibration    14          0.723              1.587              1.192
 Vibration    15          0.743              1.532              1.076
 Vibration    16          0.786              1.419              0.880
 Vibration    17          0.796              1.393              0.841
 Vibration    18          0.816              1.342              0.771
 Vibration    19          0.819              1.335              0.762
 Vibration    20          0.842              1.282              0.695
 Vibration    21          0.900              1.150              0.554
 Vibration    22          0.929              1.091              0.499
 Vibration    23          0.973              1.003              0.427
 Vibration    24          0.980              0.989              0.416

                           ! Non-Optimized Parameters !
 Normal termination of Gaussian 16 at Fri Dec 11 22:42:26 2020.

 ----------------------------------------------------------------------
 # B3LYP/6-311++G(d,p) empiricaldispersion=gd3bj scf=xqc pop=npa geom=c
 heck
 ----------------------------------------------------------------------

 --------------------------------------
 CID_62844041_JID_8703_Energie_neutraal
 --------------------------------------
 Structure from the checkpoint file:  "JID_8703.chk"
 Charge =  0 Multiplicity = 1

 SCF Done:  E(RB3LYP) =  -1164.68175057     A.U. after   16 cycles
 Normal termination of Gaussian 16 at Fri Dec 11 22:49:16 2020.

 ----------------------------------------------------------------------
 # B3LYP/6-311++G(d,p) empiricaldispersion=gd3bj scf=xqc pop=npa geom=c
 heck
 ----------------------------------------------------------------------

 ------------------------------------
 CID_62844041_JID_8703_Energie_kation
 ------------------------------------
 Structure from the checkpoint file:  "JID_8703.chk"
 Charge =  1 Multiplicity = 2

 SCF Done:  E(UB3LYP) =  -1164.38724840     A.U. after   30 cycles
 Normal termination of Gaussian 16 at Fri Dec 11 23:06:38 2020.
 Gaussian 16:  ES64L-G16RevA.03 25-Dec-2016

 ----------------------------------------------------------------------
 # B3LYP/6-311++G(d,p) empiricaldispersion=gd3bj scf=xqc pop=npa geom=c
 heck
 ----------------------------------------------------------------------

 -----------------------------------
 CID_62844041_JID_8703_Energie_anion
 -----------------------------------
 Structure from the checkpoint file:  "JID_8703.chk"
 Charge = -1 Multiplicity = 2

                         Standard orientation:
 ---------------------------------------------------------------------
 Center     Atomic      Atomic             Coordinates (Angstroms)
 Number     Number       Type             X           Y           Z
 ---------------------------------------------------------------------
      1          6           0        1.528502    2.270359    0.549072
      2          6           0        0.709873    1.685655   -0.606161
      3          6           0        0.737443    0.143527   -0.596769
      4          6           0        2.138473   -0.374312   -0.376807
      5          6           0        3.142098    0.431708    0.099454
      6          6           0        3.013919    1.894102    0.418388
      7         16           0        4.631111   -0.460503    0.272128
      8          6           0        3.876483   -1.925808   -0.290345
      9          6           0        2.560869   -1.727898   -0.590584
     10          7           0       -0.129512   -0.430387    0.444928
     11          6           0       -1.476679   -0.607717    0.450663
     12          8           0       -2.051572   -0.942812    1.492275
     13          6           0       -2.245930   -0.376655   -0.855177
     14          6           0       -3.592278   -1.121654   -0.870824
     15          6           0       -4.559566   -0.191558   -0.093533
     16          6           0       -3.845230    1.200344   -0.149341
     17          7           0       -2.594915    1.061922   -0.929389
     18          8           0       -4.816032   -0.616917    1.226617
     19          1           0        1.423975    3.360235    0.575885
     20          1           0        1.136207    1.892301    1.502151
     21          1           0       -0.333874    2.009819   -0.567838
     22          1           0        1.132864    2.028972   -1.560738
     23          1           0        0.371095   -0.221105   -1.561711
     24          1           0        3.474823    2.489570   -0.383364
     25          1           0        3.557614    2.141552    1.337850
     26          1           0        4.451948   -2.838595   -0.359920
     27          1           0        1.900574   -2.510834   -0.948223
     28          1           0        0.291616   -0.554077    1.358832
     29          1           0       -1.614083   -0.635558   -1.708787
     30          1           0       -3.912619   -1.223923   -1.914579
     31          1           0       -3.563122   -2.117347   -0.422796
     32          1           0       -5.536304   -0.153298   -0.585133
     33          1           0       -3.609308    1.492121    0.878878
     34          1           0       -4.463484    1.990388   -0.585477
     35          1           0       -2.788694    1.277224   -1.905745
     36          1           0       -3.933043   -0.802877    1.608535
 ---------------------------------------------------------------------

 SCF Done:  E(UB3LYP) =  -1164.67550392     A.U. after   33 cycles
 SCF Done:  E(UB3LYP) =  -1164.67635028     a.u. after    7 cycles

 The electronic state is 2-A.
 Alpha  occ. eigenvalues --  -88.78515 -19.00571 -19.00384 -14.24914 -14.20696
 Alpha  occ. eigenvalues --  -10.18588 -10.12965 -10.11710 -10.11285 -10.11259
 Alpha  occ. eigenvalues --  -10.10697 -10.09542 -10.08974 -10.08969 -10.08683
 Alpha  occ. eigenvalues --  -10.08350 -10.07041 -10.06835  -7.87144  -5.83432
 Alpha  occ. eigenvalues --   -5.83071  -5.82742  -0.95572  -0.91300  -0.84234
 Alpha  occ. eigenvalues --   -0.82216  -0.79474  -0.72525  -0.67666  -0.65653
 Alpha  occ. eigenvalues --   -0.63829  -0.63062  -0.62199  -0.55757  -0.54710
 Alpha  occ. eigenvalues --   -0.51172  -0.49441  -0.48126  -0.46339  -0.43793
 Alpha  occ. eigenvalues --   -0.43044  -0.41449  -0.40167  -0.38123  -0.37221
 Alpha  occ. eigenvalues --   -0.36790  -0.36462  -0.35330  -0.34312  -0.33607
 Alpha  occ. eigenvalues --   -0.32116  -0.31959  -0.31315  -0.30004  -0.29032
 Alpha  occ. eigenvalues --   -0.28838  -0.28077  -0.27555  -0.26388  -0.26168
 Alpha  occ. eigenvalues --   -0.25386  -0.24963  -0.24677  -0.23554  -0.22320
 Alpha  occ. eigenvalues --   -0.18697  -0.17623  -0.16556  -0.15881  -0.14584
 Alpha  occ. eigenvalues --   -0.13750   0.03883
 Alpha virt. eigenvalues --    0.05653   0.06352   0.06672   0.07767   0.08234
 Alpha virt. eigenvalues --    0.08549   0.09230   0.09350   0.09585   0.09956
 Alpha virt. eigenvalues --    0.10570   0.10963   0.11515   0.11561   0.12142

  Beta  occ. eigenvalues --  -88.78507 -19.00570 -19.00383 -14.24909 -14.20665
  Beta  occ. eigenvalues --  -10.18590 -10.12943 -10.11705 -10.11238 -10.11231
  Beta  occ. eigenvalues --  -10.10612 -10.09532 -10.08974 -10.08957 -10.08670
  Beta  occ. eigenvalues --  -10.08342 -10.07025 -10.06815  -7.87136  -5.83427
  Beta  occ. eigenvalues --   -5.83068  -5.82716  -0.95566  -0.91296  -0.84214
  Beta  occ. eigenvalues --   -0.82162  -0.79403  -0.72477  -0.67617  -0.65600
  Beta  occ. eigenvalues --   -0.63741  -0.63023  -0.62147  -0.55711  -0.54658
  Beta  occ. eigenvalues --   -0.51121  -0.49407  -0.48027  -0.46296  -0.43748
  Beta  occ. eigenvalues --   -0.42961  -0.41395  -0.40143  -0.38087  -0.37163
  Beta  occ. eigenvalues --   -0.36756  -0.36423  -0.35292  -0.34285  -0.33557
  Beta  occ. eigenvalues --   -0.32063  -0.31906  -0.31275  -0.29973  -0.28986
  Beta  occ. eigenvalues --   -0.28790  -0.28031  -0.27421  -0.26326  -0.26129
  Beta  occ. eigenvalues --   -0.25352  -0.24921  -0.24637  -0.23522  -0.22298
  Beta  occ. eigenvalues --   -0.18678  -0.17569  -0.16528  -0.15773  -0.14277
  Beta  occ. eigenvalues --   -0.13698
  Beta virt. eigenvalues --    0.06249   0.06526   0.06649   0.07040   0.08366
  Beta virt. eigenvalues --    0.08466   0.08826   0.09504   0.09652   0.09971
  Beta virt. eigenvalues --    0.10131   0.10548   0.11361   0.11608   0.11778

 Mulliken charges and spin densities:
               1          2
     1  C   -0.265179  -0.041483
     2  C   -0.103029  -0.544743
     3  C    0.393615  -0.726241
     4  C   -0.325224   0.453386
     5  C   -0.280736   1.265383
     6  C    0.631213  -1.129274
     7  S   -0.673475   0.025085
     8  C    0.070395   0.077124
     9  C    0.240315  -0.811023
    10  N   -0.030590   0.034719
    11  C    0.850844  -1.070754
    12  O   -0.310991   0.009638
    13  C   -0.196262   0.398502
    14  C    0.014508  -0.747050
    15  C    0.007191  -0.343536
    16  C   -0.045333  -0.266869
    17  N   -0.099665   0.086708
    18  O   -0.203622   0.000247
    19  H   -0.061392   0.236906
    20  H    0.092940   0.051858
    21  H    0.171392   0.111048
    22  H   -0.330750   0.473460
    23  H   -0.221228   0.462376
    24  H   -0.151006   0.347819
    25  H    0.111449   0.036242
    26  H    0.162617   0.070692
    27  H   -0.105942   0.240010
    28  H    0.338513  -0.070807
    29  H   -0.440962   0.719500
    30  H   -0.628970   0.789061
    31  H    0.251360  -0.046236
    32  H    0.119741   0.062712
    33  H    0.254614  -0.070017
    34  H   -0.338450   0.493147
    35  H   -0.134059   0.403182
    36  H    0.236156   0.019231
 Sum of Mulliken charges =  -1.00000   1.00000

 Dipole moment (field-independent basis, Debye):
    X=              5.9112    Y=             -1.4656    Z=              5.1068  Tot=              7.9479
 Quadrupole moment (field-independent basis, Debye-Ang):
   XX=           -200.5791   YY=           -149.1210   ZZ=           -161.3772
   XY=             -6.7312   XZ=             -0.0531   YZ=              7.1374

 Summary of Natural Population Analysis:

                                       Natural Population
                Natural  -----------------------------------------------
    Atom  No    Charge         Core      Valence    Rydberg      Total
 -----------------------------------------------------------------------
      C    1   -0.18609      0.99963     2.17818    0.00828     3.18609
      C    2   -0.19819      0.99961     2.18963    0.00896     3.19819
      C    3   -0.01405      0.99953     2.00052    0.01399     3.01405
      C    4   -0.05437      0.99940     2.04327    0.01171     3.05437
      C    5   -0.08182      0.99940     2.07022    0.01221     3.08182
      C    6   -0.20405      0.99957     2.19497    0.00950     3.20405
      S    7    0.19799      4.99941     2.78280    0.01980     7.80201
      C    8   -0.17952      0.99954     2.16949    0.01049     3.17952
      C    9   -0.11784      0.99949     2.10724    0.01112     3.11784
      N   10   -0.30682      0.99965     2.79790    0.00927     3.80682
      C   11    0.35381      0.99964     1.62328    0.02327     2.64619
      O   12   -0.34755      0.99986     3.34200    0.00568     4.34755
      C   13   -0.05594      0.99956     2.04142    0.01496     3.05594
      C   14   -0.21136      0.99961     2.20174    0.01000     3.21136
      C   15    0.05313      0.99959     1.93119    0.01610     2.94687
      C   16   -0.10409      0.99962     2.09312    0.01135     3.10409
      N   17   -0.33806      0.99975     2.82522    0.01309     3.83806
      O   18   -0.38499      0.99989     3.37887    0.00622     4.38499
      H   19    0.10277      0.00000     0.39638    0.00085     0.39723
      H   20    0.09304      0.00000     0.40566    0.00130     0.40696
      H   21    0.12032      0.00000     0.37778    0.00190     0.37968
      H   22    0.10012      0.00000     0.39807    0.00180     0.39988
      H   23    0.10959      0.00000     0.38778    0.00262     0.39041
      H   24    0.10740      0.00000     0.39078    0.00182     0.39260
      H   25    0.10258      0.00000     0.39653    0.00089     0.39742
      H   26    0.10638      0.00000     0.39293    0.00069     0.39362
      H   27    0.10996      0.00000     0.38916    0.00088     0.39004
      H   28    0.19448      0.00000     0.30363    0.00188     0.30552
      H   29    0.11042      0.00000     0.38617    0.00341     0.38958
      H   30    0.10666      0.00000     0.39137    0.00197     0.39334
      H   31    0.10911      0.00000     0.38992    0.00097     0.39089
      H   32    0.08747      0.00000     0.41148    0.00105     0.41253
      H   33    0.09487      0.00000     0.40404    0.00110     0.40513
      H   34    0.09819      0.00000     0.40062    0.00119     0.40181
      H   35    0.18235      0.00000     0.31066    0.00699     0.31765
      H   36    0.24409      0.00000     0.25319    0.00273     0.25591
 =======================================================================
   * Total *    0.00000     21.99274    48.75721    0.25005    71.00000

 Normal termination of Gaussian 16 at Sat Dec 12 00:48:44 2020.
