 Gaussian 16, Revision A.03,

 -----------------------------------------------------------
 # opt freq B3LYP/6-31G(d) empiricaldispersion=gd3bj scf=xqc
 -----------------------------------------------------------

 -------------------------------
 CID_116099426_JID_5146_neutraal
 -------------------------------
 Symbolic Z-matrix:
 Charge =  0 Multiplicity = 1

 SCF Done:  E(RB3LYP) =  -994.307350740     A.U. after   14 cycles
 SCF Done:  E(RB3LYP) =  -994.303092324     A.U. after   12 cycles
 SCF Done:  E(RB3LYP) =  -994.311817253     A.U. after   12 cycles
 SCF Done:  E(RB3LYP) =  -994.312942406     A.U. after   12 cycles
 SCF Done:  E(RB3LYP) =  -994.313479806     A.U. after   12 cycles
 SCF Done:  E(RB3LYP) =  -994.314368427     A.U. after   11 cycles
 SCF Done:  E(RB3LYP) =  -994.314790433     A.U. after   12 cycles
 SCF Done:  E(RB3LYP) =  -994.314381859     A.U. after   12 cycles
 SCF Done:  E(RB3LYP) =  -994.315375159     A.U. after   12 cycles
 SCF Done:  E(RB3LYP) =  -994.316372903     A.U. after   12 cycles
 SCF Done:  E(RB3LYP) =  -994.318136611     A.U. after    9 cycles
 SCF Done:  E(RB3LYP) =  -994.318138428     A.U. after    9 cycles
 SCF Done:  E(RB3LYP) =  -994.318139172     A.U. after    8 cycles
 SCF Done:  E(RB3LYP) =  -994.318139451     A.U. after    7 cycles
 SCF Done:  E(RB3LYP) =  -994.318139545     A.U. after    7 cycles
 Optimization completed.
    -- Stationary point found.
 Normal termination of Gaussian 16 at Thu Dec 10 14:57:22 2020.

 --------------------------------------------------------------------
 #N Geom=AllCheck Guess=TCheck SCRF=Check GenChk RB3LYP/6-31G(d) Freq
 --------------------------------------------------------------------

 Structure from the checkpoint file:  "JID_5146.chk"
 -------------------------------
 CID_116099426_JID_5146_neutraal
 -------------------------------
 Charge =  0 Multiplicity = 1

 SCF Done:  E(RB3LYP) =  -994.318139545     A.U. after    1 cycles

  Exact polarizability: 169.783  -5.927 135.670   0.348  -9.219 132.600
 Approx polarizability: 235.500 -16.463 195.094  -2.393 -23.775 214.198

                      1                      2                      3
                      A                      A                      A
 Frequencies --     21.7071                47.8586                62.5244
 Red. masses --      4.0332                 2.5805                 3.8875
 Frc consts  --      0.0011                 0.0035                 0.0090
 IR Inten    --      0.4706                 0.2480                 0.1933

                      4                      5                      6
                      A                      A                      A
 Frequencies --     70.9713                73.1911                93.4710
 Red. masses --      3.7641                 4.5682                 3.8707
 Frc consts  --      0.0112                 0.0144                 0.0199
 IR Inten    --      2.4385                 2.6303                 0.1212

                      7                      8                      9
                      A                      A                      A
 Frequencies --    124.5447               149.2471               167.7893
 Red. masses --      3.3152                 2.9761                 2.9887
 Frc consts  --      0.0303                 0.0391                 0.0496
 IR Inten    --      2.8375                 0.9921                 2.4846

                     10                     11                     12
                      A                      A                      A
 Frequencies --    181.8204               199.2072               221.6256
 Red. masses --      3.1183                 1.1915                 2.2783
 Frc consts  --      0.0607                 0.0279                 0.0659
 IR Inten    --      0.2828                 0.8776                 1.1451

                     13                     14                     15
                      A                      A                      A
 Frequencies --    227.7738               243.0397               289.5092
 Red. masses --      2.1896                 1.8493                 2.2119
 Frc consts  --      0.0669                 0.0644                 0.1092
 IR Inten    --      0.3106                 0.4192                 0.6128

                     16                     17                     18
                      A                      A                      A
 Frequencies --    302.9038               316.2696               347.8113
 Red. masses --      2.8516                 1.8176                 2.2926
 Frc consts  --      0.1542                 0.1071                 0.1634
 IR Inten    --      2.2041                 1.4122                 2.8153

                     19                     20                     21
                      A                      A                      A
 Frequencies --    397.7179               416.9214               516.4639
 Red. masses --      2.9467                 2.1417                 3.0087
 Frc consts  --      0.2746                 0.2193                 0.4728
 IR Inten    --      4.2041                 4.7108                 2.0253

                     22                     23                     24
                      A                      A                      A
 Frequencies --    537.0696               625.1569               646.4748
 Red. masses --      2.9138                 4.2760                 3.4321
 Frc consts  --      0.4952                 0.9846                 0.8451
 IR Inten    --      3.8387                 4.7806                 2.0922

                     25                     26                     27
                      A                      A                      A
 Frequencies --    664.9245               708.6466               722.1455
 Red. masses --      3.5854                 4.6089                 1.8641
 Frc consts  --      0.9340                 1.3636                 0.5728
 IR Inten    --      6.4729                 5.2066                26.0123

                     28                     29                     30
                      A                      A                      A
 Frequencies --    728.7388               749.8959               780.1811
 Red. masses --      1.7352                 1.7097                 1.7607
 Frc consts  --      0.5429                 0.5665                 0.6314
 IR Inten    --      7.7336                31.0055                 8.9395

                     31                     32                     33
                      A                      A                      A
 Frequencies --    786.8812               831.7023               843.5779
 Red. masses --      1.6273                 2.0342                 1.3031
 Frc consts  --      0.5937                 0.8291                 0.5464
 IR Inten    --      3.6108                55.8483                 5.4027

                     34                     35                     36
                      A                      A                      A
 Frequencies --    877.0635               885.1566               910.8043
 Red. masses --      2.1934                 2.4323                 1.4903
 Frc consts  --      0.9941                 1.1228                 0.7284
 IR Inten    --      9.3083                 2.7572                 6.6833

                     37                     38                     39
                      A                      A                      A
 Frequencies --    935.7649               943.8790               978.7817
 Red. masses --      2.3912                 3.2578                 1.5823
 Frc consts  --      1.2337                 1.7100                 0.8931
 IR Inten    --      6.3149                 9.0796                 4.0398

                     40                     41                     42
                      A                      A                      A
 Frequencies --    999.0890              1017.8350              1024.6028
 Red. masses --      1.1746                 1.4858                 1.5356
 Frc consts  --      0.6908                 0.9069                 0.9498
 IR Inten    --      4.9027                 7.6468                17.2628

                     43                     44                     45
                      A                      A                      A
 Frequencies --   1050.2685              1069.3945              1081.6936
 Red. masses --      1.6467                 2.6195                 2.1230
 Frc consts  --      1.0702                 1.7650                 1.4635
 IR Inten    --      0.2243                 5.0698                 2.2150

                     46                     47                     48
                      A                      A                      A
 Frequencies --   1118.1941              1129.7606              1140.8617
 Red. masses --      1.6160                 1.7909                 2.4707
 Frc consts  --      1.1905                 1.3468                 1.8947
 IR Inten    --      7.2935                32.5322                29.1624

                     49                     50                     51
                      A                      A                      A
 Frequencies --   1169.9894              1179.9855              1199.5212
 Red. masses --      2.1890                 1.7141                 2.2860
 Frc consts  --      1.7654                 1.4061                 1.9379
 IR Inten    --      9.0910                 3.0730                 5.9569

                     52                     53                     54
                      A                      A                      A
 Frequencies --   1213.0423              1240.9051              1268.3080
 Red. masses --      1.6680                 1.3998                 1.2539
 Frc consts  --      1.4461                 1.2699                 1.1884
 IR Inten    --      2.6497                 6.1472                 6.7057

                     55                     56                     57
                      A                      A                      A
 Frequencies --   1307.9545              1313.8369              1322.1521
 Red. masses --      1.4573                 1.9677                 1.2523
 Frc consts  --      1.4689                 2.0012                 1.2897
 IR Inten    --     17.1768                23.3567                 3.1948

                     58                     59                     60
                      A                      A                      A
 Frequencies --   1346.6397              1353.2171              1378.0290
 Red. masses --      1.2842                 1.2378                 1.5143
 Frc consts  --      1.3721                 1.3355                 1.6943
 IR Inten    --      5.8919                21.9383                 5.7633

                     61                     62                     63
                      A                      A                      A
 Frequencies --   1388.9294              1396.9739              1399.9187
 Red. masses --      1.5020                 1.2098                 1.3335
 Frc consts  --      1.7072                 1.3910                 1.5398
 IR Inten    --     20.7975                 4.0556                 2.6878

                     64                     65                     66
                      A                      A                      A
 Frequencies --   1411.5128              1419.3853              1441.0357
 Red. masses --      1.4566                 1.3696                 1.3496
 Frc consts  --      1.7098                 1.6257                 1.6513
 IR Inten    --     10.9376                 2.0765                 4.9443

                     67                     68                     69
                      A                      A                      A
 Frequencies --   1442.4503              1464.7824              1496.7119
 Red. masses --      1.4699                 3.7841                 1.0696
 Frc consts  --      1.8020                 4.7836                 1.4117
 IR Inten    --      5.8903                29.3493                10.7869

                     70                     71                     72
                      A                      A                      A
 Frequencies --   1504.5580              1506.2444              1507.6197
 Red. masses --      1.0948                 1.0756                 1.0995
 Frc consts  --      1.4602                 1.4377                 1.4724
 IR Inten    --     10.6228                 3.1121                 3.4435

                     73                     74                     75
                      A                      A                      A
 Frequencies --   1509.5466              1514.1887              1519.5532
 Red. masses --      1.2580                 1.3347                 1.1206
 Frc consts  --      1.6890                 1.8030                 1.5245
 IR Inten    --      2.6645                11.4349                 1.2506

                     76                     77                     78
                      A                      A                      A
 Frequencies --   1526.6186              1533.9808              1539.3781
 Red. masses --      1.1816                 1.1030                 1.4161
 Frc consts  --      1.6224                 1.5291                 1.9771
 IR Inten    --      6.6821                29.4881                10.0629

                     79                     80                     81
                      A                      A                      A
 Frequencies --   1542.6412              1549.1368              1564.9679
 Red. masses --      1.1121                 1.1395                 4.8962
 Frc consts  --      1.5592                 1.6112                 7.0651
 IR Inten    --     10.2183                10.8684                 6.9507

                     82                     83                     84
                      A                      A                      A
 Frequencies --   2985.7419              3039.1924              3041.9307
 Red. masses --      1.0712                 1.0629                 1.0650
 Frc consts  --      5.6261                 5.7843                 5.8064
 IR Inten    --     39.0833                35.1692                11.6216

                     85                     86                     87
                      A                      A                      A
 Frequencies --   3046.2115              3054.3346              3057.2472
 Red. masses --      1.0362                 1.0660                 1.0700
 Frc consts  --      5.6654                 5.8593                 5.8922
 IR Inten    --     27.8820                 3.8478                90.9133

                     88                     89                     90
                      A                      A                      A
 Frequencies --   3072.9105              3074.2911              3080.9331
 Red. masses --      1.0845                 1.0370                 1.0998
 Frc consts  --      6.0335                 5.7746                 6.1508
 IR Inten    --     33.3399                18.9266                20.5407

                     91                     92                     93
                      A                      A                      A
 Frequencies --   3082.4477              3085.9606              3110.6891
 Red. masses --      1.0824                 1.0786                 1.1010
 Frc consts  --      6.0594                 6.0521                 6.2769
 IR Inten    --     18.4765                23.1212                70.3705

                     94                     95                     96
                      A                      A                      A
 Frequencies --   3111.3564              3116.5088              3141.4443
 Red. masses --      1.0989                 1.1025                 1.1042
 Frc consts  --      6.2676                 6.3089                 6.4204
 IR Inten    --     16.8240                47.4463                10.8676

                     97                     98                     99
                      A                      A                      A
 Frequencies --   3156.7480              3159.2190              3182.5604
 Red. masses --      1.0922                 1.1061                 1.1034
 Frc consts  --      6.4128                 6.5046                 6.5845
 IR Inten    --      9.3000                 5.2148                 1.0837

                    100                    101                    102
                      A                      A                      A
 Frequencies --   3255.7780              3288.2651              3484.6138
 Red. masses --      1.0921                 1.1027                 1.0739
 Frc consts  --      6.8205                 7.0247                 7.6826
 IR Inten    --      9.7477                 3.8189                17.1864

 - Thermochemistry -
 -------------------
 Temperature   298.150 Kelvin.  Pressure   1.00000 Atm.
 Atom     1 has atomic number  6 and mass  12.00000

 Molecular mass:   227.14562 amu.
 Principal axes and moments of inertia in atomic units:
                           1         2         3
     Eigenvalues --  2745.598864181.249705505.21272
           X            0.99987  -0.01434   0.00763
           Y            0.01423   0.99979   0.01464
           Z           -0.00784  -0.01453   0.99986
 This molecule is an asymmetric top.
 Rotational symmetry number  1.
 Warning -- assumption of classical behavior for rotation
           may cause significant error
 Rotational temperatures (Kelvin)      0.03155     0.02071     0.01573
 Rotational constants (GHZ):           0.65732     0.43163     0.32782
 Zero-point vibrational energy     839557.3 (Joules/Mol)
                                  200.65900 (Kcal/Mol)
 Warning -- explicit consideration of  22 degrees of freedom as
           vibrations may cause significant error
 Vibrational temperatures:     31.23    68.86    89.96   102.11   105.31
          (Kelvin)            134.48   179.19   214.73   241.41   261.60
                              286.61   318.87   327.72   349.68   416.54
                              435.81   455.04   500.42   572.23   599.86
                              743.08   772.72   899.46   930.13   956.68
                             1019.58  1039.01  1048.49  1078.93  1122.51
                             1132.15  1196.63  1213.72  1261.90  1273.54
                             1310.44  1346.36  1358.03  1408.25  1437.47
                             1464.44  1474.17  1511.10  1538.62  1556.32
                             1608.83  1625.47  1641.45  1683.35  1697.74
                             1725.84  1745.30  1785.39  1824.81  1881.85
                             1890.32  1902.28  1937.51  1946.98  1982.68
                             1998.36  2009.93  2014.17  2030.85  2042.18
                             2073.33  2075.36  2107.50  2153.43  2164.72
                             2167.15  2169.13  2171.90  2178.58  2186.30
                             2196.46  2207.06  2214.82  2219.52  2228.86
                             2251.64  4295.82  4372.72  4376.66  4382.82
                             4394.51  4398.70  4421.23  4423.22  4432.78
                             4434.95  4440.01  4475.59  4476.55  4483.96
                             4519.84  4541.86  4545.41  4578.99  4684.34
                             4731.08  5013.58

 Zero-point correction=                           0.319770 (Hartree/Particle)
 Thermal correction to Energy=                    0.336690
 Thermal correction to Enthalpy=                  0.337634
 Thermal correction to Gibbs Free Energy=         0.273964
 Sum of electronic and zero-point Energies=           -993.998369
 Sum of electronic and thermal Energies=              -993.981450
 Sum of electronic and thermal Enthalpies=            -993.980505
 Sum of electronic and thermal Free Energies=         -994.044176

                     E (Thermal)             CV                S
                      KCal/Mol        Cal/Mol-Kelvin    Cal/Mol-Kelvin
 Total                  211.276             62.208            134.005
 Electronic               0.000              0.000              0.000
 Translational            0.889              2.981             42.164
 Rotational               0.889              2.981             32.513
 Vibrational            209.499             56.247             59.328
 Vibration     1          0.593              1.985              6.472
 Vibration     2          0.595              1.978              4.904
 Vibration     3          0.597              1.972              4.376
 Vibration     4          0.598              1.968              4.126
 Vibration     5          0.599              1.967              4.066
 Vibration     6          0.602              1.954              3.586
 Vibration     7          0.610              1.928              3.029
 Vibration     8          0.618              1.903              2.682
 Vibration     9          0.625              1.882              2.460
 Vibration    10          0.630              1.864              2.310
 Vibration    11          0.637              1.841              2.140
 Vibration    12          0.648              1.808              1.946
 Vibration    13          0.651              1.799              1.896
 Vibration    14          0.659              1.774              1.781
 Vibration    15          0.686              1.693              1.477
 Vibration    16          0.694              1.668              1.401
 Vibration    17          0.703              1.643              1.329
 Vibration    18          0.725              1.580              1.176
 Vibration    19          0.764              1.475              0.971
 Vibration    20          0.780              1.433              0.902
 Vibration    21          0.871              1.214              0.618
 Vibration    22          0.892              1.168              0.572

                           ! Non-Optimized Parameters !
 Normal termination of Gaussian 16 at Thu Dec 10 15:10:15 2020.

 ----------------------------------------------------------------------
 # B3LYP/6-311++G(d,p) empiricaldispersion=gd3bj scf=xqc pop=npa geom=c
 heck
 ----------------------------------------------------------------------

 ---------------------------------------
 CID_116099426_JID_5146_Energie_neutraal
 ---------------------------------------
 Structure from the checkpoint file:  "JID_5146.chk"
 Charge =  0 Multiplicity = 1

 SCF Done:  E(RB3LYP) =  -994.511894782     A.U. after   14 cycles
 Normal termination of Gaussian 16 at Thu Dec 10 15:15:57 2020.

 ----------------------------------------------------------------------
 # B3LYP/6-311++G(d,p) empiricaldispersion=gd3bj scf=xqc pop=npa geom=c
 heck
 ----------------------------------------------------------------------

 -------------------------------------
 CID_116099426_JID_5146_Energie_kation
 -------------------------------------
 Structure from the checkpoint file:  "JID_5146.chk"
 Charge =  1 Multiplicity = 2

 SCF Done:  E(UB3LYP) =  -994.228891066     A.U. after   26 cycles
 Normal termination of Gaussian 16 at Thu Dec 10 15:29:24 2020.
 Gaussian 16:  ES64L-G16RevA.03 25-Dec-2016

 ----------------------------------------------------------------------
 # B3LYP/6-311++G(d,p) empiricaldispersion=gd3bj scf=xqc pop=npa geom=c
 heck
 ----------------------------------------------------------------------

 ------------------------------------
 CID_116099426_JID_5146_Energie_anion
 ------------------------------------
 Structure from the checkpoint file:  "JID_5146.chk"
 Charge = -1 Multiplicity = 2

                         Standard orientation:
 ---------------------------------------------------------------------
 Center     Atomic      Atomic             Coordinates (Angstroms)
 Number     Number       Type             X           Y           Z
 ---------------------------------------------------------------------
      1          6           0        3.750376    1.277109    0.025739
      2          6           0        3.901605   -0.246297   -0.013890
      3          6           0        2.582760   -1.015857    0.108024
      4          7           0        1.713063   -0.749540   -1.039364
      5          6           0        0.619726   -1.707065   -1.212007
      6          6           0       -0.503347   -1.671315   -0.208745
      7          7           0       -0.532376   -2.354991    0.925534
      8          6           0       -1.743578   -2.063976    1.510527
      9          6           0       -2.459541   -1.195061    0.725185
     10          7           0       -1.656038   -0.932486   -0.370729
     11          6           0       -1.961798   -0.029591   -1.476159
     12          6           0       -2.655010    1.267759   -1.044279
     13          6           0       -2.045542    1.977931    0.169173
     14         16           0       -0.219766    2.231049    0.090851
     15          6           0        0.245021    1.418683    1.663357
     16          1           0        3.089035    1.637222   -0.770422
     17          1           0        4.718638    1.773034   -0.104440
     18          1           0        3.338783    1.612857    0.985355
     19          1           0        4.379118   -0.539595   -0.956665
     20          1           0        4.567350   -0.566244    0.799020
     21          1           0        2.798945   -2.090827    0.107613
     22          1           0        2.104692   -0.804576    1.079653
     23          1           0        1.327302    0.191439   -0.972745
     24          1           0        0.213511   -1.580236   -2.222548
     25          1           0        1.048220   -2.712973   -1.169447
     26          1           0       -2.033044   -2.500327    2.457050
     27          1           0       -3.440738   -0.758265    0.831442
     28          1           0       -1.015602    0.218010   -1.956605
     29          1           0       -2.586923   -0.544561   -2.216373
     30          1           0       -2.651140    1.935231   -1.914385
     31          1           0       -3.711600    1.073518   -0.816535
     32          1           0       -2.525281    2.952907    0.295278
     33          1           0       -2.233867    1.397049    1.074189
     34          1           0       -0.241494    1.914437    2.507476
     35          1           0       -0.011881    0.357064    1.649242
     36          1           0        1.325648    1.523245    1.770594
 ---------------------------------------------------------------------

 SCF Done:  E(UB3LYP) =  -994.500382780     A.U. after   33 cycles
 SCF Done:  E(UB3LYP) =  -994.500382780     a.u. after    1 cycles

 The electronic state is 2-A.
 Alpha  occ. eigenvalues --  -88.74523 -14.27253 -14.20793 -14.19604 -10.12727
 Alpha  occ. eigenvalues --  -10.11691 -10.11278 -10.10262 -10.10011 -10.09969
 Alpha  occ. eigenvalues --  -10.09766 -10.08614 -10.08515 -10.08083 -10.07961
 Alpha  occ. eigenvalues --   -7.83126  -5.79521  -5.79161  -5.78492  -0.92090
 Alpha  occ. eigenvalues --   -0.81778  -0.79151  -0.71612  -0.69855  -0.67112
 Alpha  occ. eigenvalues --   -0.66014  -0.61296  -0.59920  -0.56534  -0.54546
 Alpha  occ. eigenvalues --   -0.50402  -0.49618  -0.49076  -0.45423  -0.42554
 Alpha  occ. eigenvalues --   -0.40272  -0.39598  -0.38047  -0.36668  -0.36040
 Alpha  occ. eigenvalues --   -0.34848  -0.34075  -0.33519  -0.33166  -0.32745
 Alpha  occ. eigenvalues --   -0.32440  -0.31193  -0.30718  -0.29713  -0.28777
 Alpha  occ. eigenvalues --   -0.27395  -0.26524  -0.25958  -0.25676  -0.25248
 Alpha  occ. eigenvalues --   -0.24869  -0.21405  -0.18074  -0.17679  -0.14944
 Alpha  occ. eigenvalues --   -0.13089  -0.12791   0.04426
 Alpha virt. eigenvalues --    0.05963   0.06902   0.07591   0.07974   0.08145
 Alpha virt. eigenvalues --    0.08470   0.09293   0.09997   0.10160   0.10467
 Alpha virt. eigenvalues --    0.11245   0.11461   0.11883   0.12246   0.12505

  Beta  occ. eigenvalues --  -88.74520 -14.27255 -14.20791 -14.19604 -10.12723
  Beta  occ. eigenvalues --  -10.11664 -10.11273 -10.10261 -10.10000 -10.09942
  Beta  occ. eigenvalues --  -10.09736 -10.08609 -10.08513 -10.08078 -10.07911
  Beta  occ. eigenvalues --   -7.83123  -5.79519  -5.79156  -5.78490  -0.92082
  Beta  occ. eigenvalues --   -0.81773  -0.79136  -0.71574  -0.69847  -0.67069
  Beta  occ. eigenvalues --   -0.65990  -0.61259  -0.59896  -0.56516  -0.54490
  Beta  occ. eigenvalues --   -0.50378  -0.49601  -0.49021  -0.45379  -0.42504
  Beta  occ. eigenvalues --   -0.40265  -0.39549  -0.38013  -0.36629  -0.36008
  Beta  occ. eigenvalues --   -0.34828  -0.34053  -0.33489  -0.33146  -0.32725
  Beta  occ. eigenvalues --   -0.32425  -0.31168  -0.30697  -0.29688  -0.28761
  Beta  occ. eigenvalues --   -0.27332  -0.26477  -0.25945  -0.25665  -0.25242
  Beta  occ. eigenvalues --   -0.24818  -0.21361  -0.18069  -0.17664  -0.14928
  Beta  occ. eigenvalues --   -0.13074  -0.12767
  Beta virt. eigenvalues --    0.05900   0.07194   0.07438   0.07641   0.08535
  Beta virt. eigenvalues --    0.08702   0.08793   0.09612   0.10193   0.10375
  Beta virt. eigenvalues --    0.10975   0.11678   0.11702   0.12176   0.12386

 Mulliken charges and spin densities:
               1          2
     1  C   -0.387596  -0.114161
     2  C   -0.334388  -0.079967
     3  C   -0.124296  -0.019231
     4  N    0.131816   0.018878
     5  C   -0.334807  -0.868405
     6  C   -0.209848   0.091256
     7  N   -0.039308   0.038540
     8  C   -0.115115   0.012088
     9  C    0.932541  -0.873850
    10  N    0.142743   0.094468
    11  C   -0.949071   0.835771
    12  C    2.633724  -3.074109
    13  C   -0.511770   0.222685
    14  S    0.617713  -0.492660
    15  C   -0.541503  -0.115813
    16  H    0.080125   0.070372
    17  H    0.062875   0.076732
    18  H    0.065180   0.073600
    19  H    0.137037   0.010353
    20  H    0.093182   0.032393
    21  H    0.143800   0.002951
    22  H    0.084558   0.020003
    23  H    0.201961  -0.049112
    24  H   -0.000662   0.174170
    25  H    0.126186   0.051957
    26  H   -0.125172   0.280531
    27  H   -0.869370   1.056984
    28  H    0.074733   0.068823
    29  H   -0.675858   0.913727
    30  H   -0.615252   0.802369
    31  H   -0.422222   0.609519
    32  H   -0.769032   1.053193
    33  H    0.252127  -0.119230
    34  H   -0.116333   0.332429
    35  H    0.135215  -0.014353
    36  H    0.226085  -0.122900
 Sum of Mulliken charges =  -1.00000   1.00000

 Dipole moment (field-independent basis, Debye):
    X=             10.6341    Y=             -2.6647    Z=              2.5221  Tot=             11.2493
 Quadrupole moment (field-independent basis, Debye-Ang):
   XX=           -182.2521   YY=           -154.6865   ZZ=           -140.0928
   XY=             10.5140   XZ=             -7.6878   YZ=              4.5051

 Summary of Natural Population Analysis:

                                       Natural Population
                Natural  -----------------------------------------------
    Atom  No    Charge         Core      Valence    Rydberg      Total
 -----------------------------------------------------------------------
      C    1   -0.28814      0.99967     2.28405    0.00442     3.28814
      C    2   -0.19215      0.99964     2.18473    0.00779     3.19215
      C    3   -0.08717      0.99963     2.07830    0.00925     3.08717
      N    4   -0.34708      0.99975     2.83586    0.01148     3.84708
      C    5   -0.10939      0.99958     2.09699    0.01282     3.10939
      C    6    0.18240      0.99959     1.80075    0.01727     2.81760
      N    7   -0.26452      0.99970     2.75567    0.00914     3.76452
      C    8   -0.03814      0.99957     2.02458    0.01398     3.03814
      C    9   -0.03605      0.99953     2.02350    0.01301     3.03605
      N   10   -0.21113      0.99962     2.69754    0.01398     3.71113
      C   11   -0.08329      0.99959     2.07075    0.01296     3.08329
      C   12   -0.20063      0.99961     2.18956    0.01145     3.20063
      C   13   -0.24788      0.99958     2.23734    0.01096     3.24788
      S   14    0.07198      4.99963     2.91040    0.01799     7.92802
      C   15   -0.34749      0.99961     2.34164    0.00625     3.34749
      H   16    0.10096      0.00000     0.39792    0.00112     0.39904
      H   17    0.09662      0.00000     0.40254    0.00083     0.40338
      H   18    0.09312      0.00000     0.40569    0.00119     0.40688
      H   19    0.09570      0.00000     0.40283    0.00147     0.40430
      H   20    0.09172      0.00000     0.40712    0.00116     0.40828
      H   21    0.09245      0.00000     0.40653    0.00102     0.40755
      H   22    0.08308      0.00000     0.41460    0.00231     0.41692
      H   23    0.17891      0.00000     0.31587    0.00521     0.32109
      H   24    0.10039      0.00000     0.39840    0.00121     0.39961
      H   25    0.10378      0.00000     0.39508    0.00114     0.39622
      H   26    0.09598      0.00000     0.40311    0.00091     0.40402
      H   27    0.11122      0.00000     0.38673    0.00205     0.38878
      H   28    0.10232      0.00000     0.39552    0.00216     0.39768
      H   29    0.10515      0.00000     0.39210    0.00275     0.39485
      H   30    0.10839      0.00000     0.38886    0.00275     0.39161
      H   31    0.11026      0.00000     0.38178    0.00796     0.38974
      H   32    0.10962      0.00000     0.38737    0.00301     0.39038
      H   33    0.10628      0.00000     0.39133    0.00239     0.39372
      H   34    0.10108      0.00000     0.39775    0.00117     0.39892
      H   35    0.10862      0.00000     0.38978    0.00160     0.39138
      H   36    0.10303      0.00000     0.39590    0.00108     0.39697
 =======================================================================
   * Total *   -0.00000     18.99428    42.78845    0.21727    62.00000

 Normal termination of Gaussian 16 at Thu Dec 10 15:50:29 2020.
