 Gaussian 16, Revision A.03,

 -----------------------------------------------------------
 # opt freq B3LYP/6-31G(d) empiricaldispersion=gd3bj scf=xqc
 -----------------------------------------------------------

 -------------------------------
 CID_129806588_JID_1316_neutraal
 -------------------------------
 Symbolic Z-matrix:
 Charge =  0 Multiplicity = 1

 SCF Done:  E(RB3LYP) =  -1180.04337328     A.U. after   15 cycles
 SCF Done:  E(RB3LYP) =  -1180.04671944     A.U. after   13 cycles
 SCF Done:  E(RB3LYP) =  -1180.04708252     A.U. after   13 cycles
 SCF Done:  E(RB3LYP) =  -1180.04746851     A.U. after   12 cycles
 SCF Done:  E(RB3LYP) =  -1180.04759903     A.U. after   12 cycles
 SCF Done:  E(RB3LYP) =  -1180.04810857     A.U. after   15 cycles
 SCF Done:  E(RB3LYP) =  -1180.04829138     A.U. after   12 cycles
 SCF Done:  E(RB3LYP) =  -1180.04842216     A.U. after   13 cycles
 SCF Done:  E(RB3LYP) =  -1180.04883736     A.U. after   15 cycles
 SCF Done:  E(RB3LYP) =  -1180.04452376     A.U. after   15 cycles
 SCF Done:  E(RB3LYP) =  -1180.05018628     A.U. after   12 cycles
 SCF Done:  E(RB3LYP) =  -1180.05020367     A.U. after   11 cycles
 SCF Done:  E(RB3LYP) =  -1180.05020967     A.U. after   11 cycles
 SCF Done:  E(RB3LYP) =  -1180.05021033     A.U. after    8 cycles
 SCF Done:  E(RB3LYP) =  -1180.05021047     A.U. after    7 cycles
 Optimization completed.
    -- Stationary point found.
 Normal termination of Gaussian 16 at Tue Dec  8 19:41:50 2020.

 --------------------------------------------------------------------
 #N Geom=AllCheck Guess=TCheck SCRF=Check GenChk RB3LYP/6-31G(d) Freq
 --------------------------------------------------------------------

 Structure from the checkpoint file:  "JID_1316.chk"
 -------------------------------
 CID_129806588_JID_1316_neutraal
 -------------------------------
 Charge =  0 Multiplicity = 1

 SCF Done:  E(RB3LYP) =  -1180.05021047     A.U. after    1 cycles

  Exact polarizability: 146.006  -2.969 109.376   2.805  -9.823  80.766
 Approx polarizability: 203.308  -3.719 199.925   9.561 -27.500 144.092

                      1                      2                      3
                      A                      A                      A
 Frequencies --     22.5892                39.4839                55.6453
 Red. masses --      6.4756                 5.0483                 6.4168
 Frc consts  --      0.0019                 0.0046                 0.0117
 IR Inten    --      0.1453                 0.7344                 0.3471

                      4                      5                      6
                      A                      A                      A
 Frequencies --    185.5062               229.3641               284.8743
 Red. masses --      5.7627                 7.3078                 6.2706
 Frc consts  --      0.1168                 0.2265                 0.2998
 IR Inten    --      0.8931                 0.1152                 4.0945

                      7                      8                      9
                      A                      A                      A
 Frequencies --    312.9696               427.7110               484.9269
 Red. masses --      7.1568                10.3488                10.4212
 Frc consts  --      0.4130                 1.1154                 1.4438
 IR Inten    --      1.0505                 2.7133                 5.6184

                     10                     11                     12
                      A                      A                      A
 Frequencies --    515.1588               576.4976               613.4800
 Red. masses --      7.8384                 3.2506                 3.2364
 Frc consts  --      1.2256                 0.6365                 0.7176
 IR Inten    --     12.9612                 1.5564                 6.6832

                     13                     14                     15
                      A                      A                      A
 Frequencies --    651.3654               659.3689               711.5096
 Red. masses --     10.7928                 5.5555                 1.1815
 Frc consts  --      2.6979                 1.4231                 0.3524
 IR Inten    --      0.9919                 3.5014                62.5115

                     16                     17                     18
                      A                      A                      A
 Frequencies --    742.9626               752.4381               823.6895
 Red. masses --      6.9304                 1.3242                 1.2516
 Frc consts  --      2.2539                 0.4417                 0.5003
 IR Inten    --      0.3979                44.6226                10.8248

                     19                     20                     21
                      A                      A                      A
 Frequencies --    845.4392               860.9919               876.5169
 Red. masses --      1.2813                 4.2324                 1.3053
 Frc consts  --      0.5396                 1.8486                 0.5908
 IR Inten    --      4.7419                12.9536                 0.6497

                     22                     23                     24
                      A                      A                      A
 Frequencies --    906.5425               915.3484               931.5700
 Red. masses --      6.2310                 1.3250                 4.6269
 Frc consts  --      3.0171                 0.6541                 2.3657
 IR Inten    --      3.4998                 0.4032                17.8484

                     25                     26                     27
                      A                      A                      A
 Frequencies --    991.2156              1034.5649              1084.3394
 Red. masses --      5.1055                 1.4386                 1.8590
 Frc consts  --      2.9555                 0.9072                 1.2879
 IR Inten    --      5.5467                22.9847                 3.4067

                     28                     29                     30
                      A                      A                      A
 Frequencies --   1098.1195              1122.4532              1155.8720
 Red. masses --      2.3966                 1.1470                 5.2226
 Frc consts  --      1.7027                 0.8515                 4.1111
 IR Inten    --      5.3395                 1.7564                11.7156

                     31                     32                     33
                      A                      A                      A
 Frequencies --   1192.5776              1253.1074              1254.7739
 Red. masses --      2.0870                 1.5146                 1.5600
 Frc consts  --      1.7489                 1.4013                 1.4471
 IR Inten    --     14.9720                 4.9120                13.8910

                     34                     35                     36
                      A                      A                      A
 Frequencies --   1387.7866              1420.9702              1464.3869
 Red. masses --      2.3360                 2.6232                 6.1062
 Frc consts  --      2.6508                 3.1207                 7.7149
 IR Inten    --      0.7919                 2.5807                 7.4822

                     37                     38                     39
                      A                      A                      A
 Frequencies --   1501.8109              1574.6674              1611.7242
 Red. masses --      5.3280                 4.8624                 5.0842
 Frc consts  --      7.0802                 7.1037                 7.7813
 IR Inten    --     19.6985                 0.4556                 1.0108

                     40                     41                     42
                      A                      A                      A
 Frequencies --   3222.0593              3237.8876              3267.0073
 Red. masses --      1.0885                 1.0957                 1.0972
 Frc consts  --      6.6581                 6.7678                 6.8997
 IR Inten    --      6.4051                 3.9974                 1.2491

                     43                     44                     45
                      A                      A                      A
 Frequencies --   3267.9986              3283.9750              3301.7675
 Red. masses --      1.0907                 1.0978                 1.1050
 Frc consts  --      6.8628                 6.9758                 7.0977
 IR Inten    --      3.4393                 0.5068                 1.3395

 - Thermochemistry -
 -------------------
 Temperature   298.150 Kelvin.  Pressure   1.00000 Atm.
 Atom     1 has atomic number  6 and mass  12.00000

 Molecular mass:   181.98601 amu.
 Principal axes and moments of inertia in atomic units:
                           1         2         3
     Eigenvalues --   991.257843384.445323659.64454
           X            0.99998  -0.00666   0.00068
           Y            0.00669   0.99884  -0.04764
           Z           -0.00036   0.04764   0.99886
 This molecule is an asymmetric top.
 Rotational symmetry number  1.
 Warning -- assumption of classical behavior for rotation
           may cause significant error
 Rotational temperatures (Kelvin)      0.08738     0.02559     0.02367
 Rotational constants (GHZ):           1.82066     0.53325     0.49315
 Zero-point vibrational energy     311956.3 (Joules/Mol)
                                   74.55934 (Kcal/Mol)
 Warning -- explicit consideration of  12 degrees of freedom as
           vibrations may cause significant error
 Vibrational temperatures:     32.50    56.81    80.06   266.90   330.00
          (Kelvin)            409.87   450.29   615.38   697.70   741.20
                              829.45   882.66   937.17   948.68  1023.70
                             1068.96  1082.59  1185.11  1216.40  1238.78
                             1261.11  1304.31  1316.98  1340.32  1426.14
                             1488.51  1560.12  1579.95  1614.96  1663.04
                             1715.85  1802.94  1805.34  1996.72  2044.46
                             2106.93  2160.77  2265.60  2318.91  4635.82
                             4658.60  4700.49  4701.92  4724.91  4750.51

 Zero-point correction=                           0.118818 (Hartree/Particle)
 Thermal correction to Energy=                    0.128440
 Thermal correction to Enthalpy=                  0.129384
 Thermal correction to Gibbs Free Energy=         0.080930
 Sum of electronic and zero-point Energies=          -1179.931393
 Sum of electronic and thermal Energies=             -1179.921771
 Sum of electronic and thermal Enthalpies=           -1179.920827
 Sum of electronic and thermal Free Energies=        -1179.969280

                     E (Thermal)             CV                S
                      KCal/Mol        Cal/Mol-Kelvin    Cal/Mol-Kelvin
 Total                   80.597             35.567            101.979
 Electronic               0.000              0.000              0.000
 Translational            0.889              2.981             41.503
 Rotational               0.889              2.981             30.885
 Vibrational             78.820             29.605             29.591
 Vibration     1          0.593              1.985              6.392
 Vibration     2          0.594              1.981              5.285
 Vibration     3          0.596              1.975              4.606
 Vibration     4          0.632              1.860              2.272
 Vibration     5          0.652              1.796              1.884
 Vibration     6          0.683              1.702              1.504
 Vibration     7          0.701              1.649              1.347
 Vibration     8          0.789              1.410              0.866
 Vibration     9          0.841              1.283              0.697
 Vibration    10          0.870              1.216              0.621
 Vibration    11          0.933              1.082              0.492
 Vibration    12          0.973              1.003              0.427

 Optimization completed.
    -- Stationary point found.
 Normal termination of Gaussian 16 at Tue Dec  8 19:44:41 2020.

 ----------------------------------------------------------------------
 # B3LYP/6-311++G(d,p) empiricaldispersion=gd3bj scf=xqc pop=npa geom=c
 heck
 ----------------------------------------------------------------------

 ---------------------------------------
 CID_129806588_JID_1316_Energie_neutraal
 ---------------------------------------
 Structure from the checkpoint file:  "JID_1316.chk"
 Charge =  0 Multiplicity = 1

 SCF Done:  E(RB3LYP) =  -1180.20647242     A.U. after   15 cycles
 Normal termination of Gaussian 16 at Tue Dec  8 19:46:17 2020.

 ----------------------------------------------------------------------
 # B3LYP/6-311++G(d,p) empiricaldispersion=gd3bj scf=xqc pop=npa geom=c
 heck
 ----------------------------------------------------------------------

 -------------------------------------
 CID_129806588_JID_1316_Energie_kation
 -------------------------------------
 Structure from the checkpoint file:  "JID_1316.chk"
 Charge =  1 Multiplicity = 2

 SCF Done:  E(UB3LYP) =  -1179.90064657     A.U. after   28 cycles
 Normal termination of Gaussian 16 at Tue Dec  8 19:49:11 2020.
 Gaussian 16:  ES64L-G16RevA.03 25-Dec-2016

 ----------------------------------------------------------------------
 # B3LYP/6-311++G(d,p) empiricaldispersion=gd3bj scf=xqc pop=npa geom=c
 heck
 ----------------------------------------------------------------------

 ------------------------------------
 CID_129806588_JID_1316_Energie_anion
 ------------------------------------
 Structure from the checkpoint file:  "JID_1316.chk"
 Charge = -1 Multiplicity = 2

                         Standard orientation:
 ---------------------------------------------------------------------
 Center     Atomic      Atomic             Coordinates (Angstroms)
 Number     Number       Type             X           Y           Z
 ---------------------------------------------------------------------
      1          6           0       -3.330325    0.232723    1.066053
      2          6           0       -2.987058    1.229651    0.201796
      3          8           0       -1.937961    0.851551   -0.576644
      4          6           0       -1.589998   -0.421328   -0.189532
      5          6           0       -2.419206   -0.841291    0.812861
      6         16           0       -0.271286   -1.205073   -1.040643
      7          6           0        1.146660   -0.511904   -0.233431
      8          6           0        2.021717   -1.167754    0.596404
      9          6           0        3.100278   -0.342091    1.030327
     10          6           0        3.028297    0.929844    0.527974
     11         16           0        1.651163    1.141551   -0.501703
     12          1           0       -4.128288    0.258682    1.794672
     13          1           0       -3.369865    2.222230    0.019639
     14          1           0       -2.373104   -1.800140    1.308304
     15          1           0        1.886429   -2.203560    0.885380
     16          1           0        3.887996   -0.677844    1.695547
     17          1           0        3.700291    1.757481    0.712436
 ---------------------------------------------------------------------

 SCF Done:  E(UB3LYP) =  -1180.19256793     A.U. after   33 cycles
 SCF Done:  E(UB3LYP) =  -1180.19256793     a.u. after    1 cycles

 The electronic state is 2-A.
 Alpha  occ. eigenvalues --  -88.74793 -88.74670 -19.07821 -10.12729 -10.11167
 Alpha  occ. eigenvalues --  -10.08883 -10.06846 -10.06535 -10.06280 -10.05551
 Alpha  occ. eigenvalues --  -10.05340  -7.83303  -7.83278  -5.79696  -5.79599
 Alpha  occ. eigenvalues --   -5.79301  -5.79231  -5.78908  -5.78662  -1.00274
 Alpha  occ. eigenvalues --   -0.76058  -0.69821  -0.68483  -0.62005  -0.61290
 Alpha  occ. eigenvalues --   -0.56522  -0.49314  -0.45357  -0.44147  -0.42988
 Alpha  occ. eigenvalues --   -0.40590  -0.37831  -0.34516  -0.32450  -0.30155
 Alpha  occ. eigenvalues --   -0.29420  -0.28236  -0.27778  -0.26835  -0.26343
 Alpha  occ. eigenvalues --   -0.23654  -0.22296  -0.17617  -0.14851  -0.13600
 Alpha  occ. eigenvalues --   -0.12120  -0.11572   0.05268
 Alpha virt. eigenvalues --    0.06976   0.07713   0.08485   0.09179   0.09373
 Alpha virt. eigenvalues --    0.09684   0.11116   0.12154   0.13399   0.13489
 Alpha virt. eigenvalues --    0.14302   0.14485   0.15317   0.15552   0.16000

  Beta  occ. eigenvalues --  -88.74795 -88.74626 -19.07792 -10.12649 -10.11113
  Beta  occ. eigenvalues --  -10.08680 -10.06600 -10.06512 -10.06266 -10.05572
  Beta  occ. eigenvalues --  -10.05266  -7.83277  -7.83264  -5.79701  -5.79581
  Beta  occ. eigenvalues --   -5.79305  -5.79215  -5.78763  -5.78660  -1.00210
  Beta  occ. eigenvalues --   -0.75793  -0.69708  -0.68336  -0.61752  -0.61065
  Beta  occ. eigenvalues --   -0.56319  -0.49263  -0.45116  -0.43902  -0.42810
  Beta  occ. eigenvalues --   -0.40406  -0.37709  -0.34346  -0.32322  -0.30040
  Beta  occ. eigenvalues --   -0.29314  -0.28088  -0.27656  -0.26662  -0.25918
  Beta  occ. eigenvalues --   -0.23340  -0.22071  -0.17485  -0.14576  -0.12924
  Beta  occ. eigenvalues --   -0.11887  -0.10591
  Beta virt. eigenvalues --    0.07599   0.08197   0.08923   0.09133   0.09660
  Beta virt. eigenvalues --    0.09843   0.10108   0.11491   0.12110   0.13404
  Beta virt. eigenvalues --    0.13502   0.14375   0.14451   0.15351   0.15739

 Mulliken charges and spin densities:
               1          2
     1  C    0.930436  -1.437805
     2  C    0.236764  -0.174888
     3  O    0.044528   0.027216
     4  C    0.268482  -0.769251
     5  C   -0.451699   1.007173
     6  S    0.157780  -0.504535
     7  C    0.116942   0.064209
     8  C   -0.191312   0.179467
     9  C   -0.226728  -0.214881
    10  C   -0.127472   0.164071
    11  S   -0.150365   0.060508
    12  H   -1.021468   1.186667
    13  H   -0.645268   0.827495
    14  H   -0.008147   0.201088
    15  H    0.046550   0.095101
    16  H   -0.044590   0.152533
    17  H    0.065565   0.135834
 Sum of Mulliken charges =  -1.00000   1.00000

 Dipole moment (field-independent basis, Debye):
    X=              4.9778    Y=             -1.7845    Z=             -1.9545  Tot=              5.6376
 Quadrupole moment (field-independent basis, Debye-Ang):
   XX=           -145.7085   YY=           -101.1276   ZZ=           -103.1147
   XY=              9.0760   XZ=             12.8695   YZ=             -3.9490

 Summary of Natural Population Analysis:

                                       Natural Population
                Natural  -----------------------------------------------
    Atom  No    Charge         Core      Valence    Rydberg      Total
 -----------------------------------------------------------------------
      C    1   -0.15387      0.99957     2.14427    0.01002     3.15387
      C    2    0.07005      0.99952     1.91475    0.01568     2.92995
      O    3   -0.23403      0.99985     3.22487    0.00930     4.23403
      C    4    0.06127      0.99940     1.91878    0.02055     2.93873
      C    5   -0.14003      0.99946     2.13018    0.01039     3.14003
      S    6    0.14265      4.99938     2.83472    0.02325     7.85735
      C    7   -0.17258      0.99943     2.15918    0.01398     3.17258
      C    8   -0.11661      0.99943     2.10650    0.01068     3.11661
      C    9   -0.14437      0.99954     2.13415    0.01068     3.14437
      C   10   -0.15487      0.99955     2.14346    0.01187     3.15487
      S   11    0.22153      4.99936     2.75616    0.02295     7.77847
      H   12    0.11129      0.00000     0.38424    0.00447     0.38871
      H   13    0.09536      0.00000     0.40284    0.00180     0.40464
      H   14    0.10941      0.00000     0.38962    0.00097     0.39059
      H   15    0.10340      0.00000     0.39533    0.00127     0.39660
      H   16    0.10048      0.00000     0.39847    0.00104     0.39952
      H   17    0.10090      0.00000     0.39809    0.00101     0.39910
 =======================================================================
   * Total *   -0.00000     18.99449    27.83559    0.16992    47.00000

 Normal termination of Gaussian 16 at Tue Dec  8 19:52:42 2020.
