 Gaussian 16, Revision A.03,

 -----------------------------------------------------------
 # opt freq B3LYP/6-31G(d) empiricaldispersion=gd3bj scf=xqc
 -----------------------------------------------------------

 -----------------------------
 CID_23282958_JID_722_neutraal
 -----------------------------
 Symbolic Z-matrix:
 Charge =  0 Multiplicity = 1

 SCF Done:  E(RB3LYP) =  -390.705212564     A.U. after   13 cycles
 SCF Done:  E(RB3LYP) =  -390.710125571     A.U. after   11 cycles
 SCF Done:  E(RB3LYP) =  -390.710355702     A.U. after   10 cycles
 SCF Done:  E(RB3LYP) =  -390.710402715     A.U. after   10 cycles
 SCF Done:  E(RB3LYP) =  -390.710432155     A.U. after    9 cycles
 SCF Done:  E(RB3LYP) =  -390.710435608     A.U. after    9 cycles
 SCF Done:  E(RB3LYP) =  -390.710436329     A.U. after    7 cycles
 Optimization completed.
    -- Stationary point found.
 Normal termination of Gaussian 16 at Tue Dec  8 12:26:19 2020.

 --------------------------------------------------------------------
 #N Geom=AllCheck Guess=TCheck SCRF=Check GenChk RB3LYP/6-31G(d) Freq
 --------------------------------------------------------------------

 Structure from the checkpoint file:  "JID_722.chk"
 -----------------------------
 CID_23282958_JID_722_neutraal
 -----------------------------
 Charge =  0 Multiplicity = 1

 SCF Done:  E(RB3LYP) =  -390.710436329     A.U. after    1 cycles

  Exact polarizability: 101.104  -4.116 105.329  -1.392  -4.537  84.371
 Approx polarizability: 134.679  -8.506 152.506  -0.831 -10.661 130.922

                      1                      2                      3
                      A                      A                      A
 Frequencies --    104.2118               165.7708               199.8084
 Red. masses --      2.1293                 1.8040                 1.6718
 Frc consts  --      0.0136                 0.0292                 0.0393
 IR Inten    --      0.0093                 0.0229                 0.0205

                      4                      5                      6
                      A                      A                      A
 Frequencies --    209.0334               258.3608               275.7552
 Red. masses --      2.4507                 1.5802                 2.3353
 Frc consts  --      0.0631                 0.0621                 0.1046
 IR Inten    --      0.0193                 0.0524                 0.0999

                      7                      8                      9
                      A                      A                      A
 Frequencies --    322.2931               351.4035               439.0130
 Red. masses --      2.9293                 2.0003                 2.3799
 Frc consts  --      0.1793                 0.1455                 0.2703
 IR Inten    --      0.2884                 0.1063                 0.1120

                     10                     11                     12
                      A                      A                      A
 Frequencies --    514.0737               524.7954               583.5806
 Red. masses --      3.0937                 2.1884                 3.0784
 Frc consts  --      0.4817                 0.3551                 0.6177
 IR Inten    --      0.3232                 6.4917                 0.4263

                     13                     14                     15
                      A                      A                      A
 Frequencies --    616.7106               722.3126               738.5724
 Red. masses --      3.4066                 2.8839                 1.3403
 Frc consts  --      0.7634                 0.8865                 0.4308
 IR Inten    --      0.1720                 0.2019                26.1617

                     16                     17                     18
                      A                      A                      A
 Frequencies --    773.9224               795.0936               811.9436
 Red. masses --      1.2487                 2.8816                 1.3401
 Frc consts  --      0.4407                 1.0733                 0.5205
 IR Inten    --      0.8071                 0.9320                 7.0690

                     19                     20                     21
                      A                      A                      A
 Frequencies --    871.2403               888.6400               930.6295
 Red. masses --      2.1119                 2.5339                 2.0629
 Frc consts  --      0.9445                 1.1789                 1.0527
 IR Inten    --      2.4383                 0.4470                 1.9168

                     22                     23                     24
                      A                      A                      A
 Frequencies --    937.2451               957.0558               965.8967
 Red. masses --      1.9440                 3.1223                 1.3105
 Frc consts  --      1.0061                 1.6850                 0.7204
 IR Inten    --      1.4622                 0.1027                 0.6807

                     25                     26                     27
                      A                      A                      A
 Frequencies --    992.4610              1008.0913              1044.4860
 Red. masses --      1.9879                 1.6233                 1.7962
 Frc consts  --      1.1536                 0.9720                 1.1545
 IR Inten    --      4.0429                 3.9816                 0.2634

                     28                     29                     30
                      A                      A                      A
 Frequencies --   1053.4276              1077.6818              1089.4144
 Red. masses --      1.9730                 1.7355                 2.0189
 Frc consts  --      1.2900                 1.1875                 1.4117
 IR Inten    --      0.8281                 0.3027                 1.0235

                     31                     32                     33
                      A                      A                      A
 Frequencies --   1130.2871              1150.7242              1157.5210
 Red. masses --      1.2467                 1.2862                 2.0097
 Frc consts  --      0.9384                 1.0035                 1.5865
 IR Inten    --      1.1792                 3.0390                 0.1411

                     34                     35                     36
                      A                      A                      A
 Frequencies --   1171.0893              1217.9861              1225.9441
 Red. masses --      2.1992                 1.5028                 1.8843
 Frc consts  --      1.7770                 1.3136                 1.6686
 IR Inten    --      0.4293                 0.7865                 1.5142

                     37                     38                     39
                      A                      A                      A
 Frequencies --   1252.1368              1278.3183              1286.1763
 Red. masses --      1.5589                 1.3088                 1.3676
 Frc consts  --      1.4400                 1.2601                 1.3329
 IR Inten    --      0.8559                 2.1777                 0.2617

                     40                     41                     42
                      A                      A                      A
 Frequencies --   1302.9827              1324.2925              1336.2954
 Red. masses --      1.4318                 1.2654                 1.3723
 Frc consts  --      1.4322                 1.3075                 1.4438
 IR Inten    --      0.7466                 1.2000                 0.1400

                     43                     44                     45
                      A                      A                      A
 Frequencies --   1352.3152              1372.0849              1379.5448
 Red. masses --      1.4395                 1.4083                 1.5205
 Frc consts  --      1.5511                 1.5621                 1.7050
 IR Inten    --      0.2558                 0.3124                 1.0430

                     46                     47                     48
                      A                      A                      A
 Frequencies --   1391.6726              1439.2621              1448.1797
 Red. masses --      1.6054                 1.2429                 1.3361
 Frc consts  --      1.8319                 1.5169                 1.6510
 IR Inten    --      4.1635                 4.4910                 1.9608

                     49                     50                     51
                      A                      A                      A
 Frequencies --   1512.5065              1521.0099              1522.7522
 Red. masses --      1.0825                 1.0808                 1.0910
 Frc consts  --      1.4591                 1.4732                 1.4904
 IR Inten    --      0.2460                 0.4757                 2.6984

                     52                     53                     54
                      A                      A                      A
 Frequencies --   1530.4146              1537.0359              1540.8221
 Red. masses --      1.0462                 1.0882                 1.0608
 Frc consts  --      1.4438                 1.5147                 1.4838
 IR Inten    --      2.0481                 0.9858                 5.6329

                     55                     56                     57
                      A                      A                      A
 Frequencies --   1548.6708              1658.1807              2993.7900
 Red. masses --      1.1020                 6.0684                 1.0823
 Frc consts  --      1.5572                 9.8308                 5.7155
 IR Inten    --      2.6342                 1.0828                16.4142

                     58                     59                     60
                      A                      A                      A
 Frequencies --   3028.7985              3049.1491              3050.2134
 Red. masses --      1.0671                 1.0367                 1.0590
 Frc consts  --      5.7676                 5.6787                 5.8053
 IR Inten    --     27.5551                27.6921                16.8386

                     61                     62                     63
                      A                      A                      A
 Frequencies --   3061.2155              3066.3955              3076.4177
 Red. masses --      1.0604                 1.0602                 1.0643
 Frc consts  --      5.8547                 5.8733                 5.9345
 IR Inten    --     16.1862                66.4450                35.7551

                     64                     65                     66
                      A                      A                      A
 Frequencies --   3080.8896              3085.1977              3094.0936
 Red. masses --      1.0956                 1.1002                 1.1047
 Frc consts  --      6.1271                 6.1702                 6.2311
 IR Inten    --     39.5030                21.4850                17.1037

                     67                     68                     69
                      A                      A                      A
 Frequencies --   3105.0045              3112.9598              3120.0488
 Red. masses --      1.1047                 1.1016                 1.1046
 Frc consts  --      6.2753                 6.2898                 6.3353
 IR Inten    --      5.5270                56.7041                45.1651

                     70                     71                     72
                      A                      A                      A
 Frequencies --   3123.8664              3186.5639              3212.2949
 Red. masses --      1.1038                 1.0858                 1.1017
 Frc consts  --      6.3466                 6.4961                 6.6979
 IR Inten    --     80.8892                12.3209                34.7429

 - Thermochemistry -
 -------------------
 Temperature   298.150 Kelvin.  Pressure   1.00000 Atm.
 Atom     1 has atomic number  6 and mass  12.00000

 Molecular mass:   136.12520 amu.
 Principal axes and moments of inertia in atomic units:
                           1         2         3
     Eigenvalues --  1122.733241204.434011789.36223
           X            0.98914   0.14679   0.00681
           Y           -0.14677   0.98916  -0.00344
           Z           -0.00724   0.00241   0.99997
 This molecule is an asymmetric top.
 Rotational symmetry number  1.
 Warning -- assumption of classical behavior for rotation
           may cause significant error
 Rotational temperatures (Kelvin)      0.07715     0.07191     0.04840
 Rotational constants (GHZ):           1.60745     1.49841     1.00859
 Zero-point vibrational energy     629582.8 (Joules/Mol)
                                  150.47391 (Kcal/Mol)
 Warning -- explicit consideration of  13 degrees of freedom as
           vibrations may cause significant error
 Vibrational temperatures:    149.94   238.51   287.48   300.75   371.72
          (Kelvin)            396.75   463.71   505.59   631.64   739.64
                              755.06   839.64   887.31  1039.25  1062.64
                             1113.50  1143.96  1168.21  1253.52  1278.55
                             1338.97  1348.49  1376.99  1389.71  1427.93
                             1450.42  1502.78  1515.65  1550.54  1567.42
                             1626.23  1655.64  1665.41  1684.94  1752.41
                             1763.86  1801.55  1839.21  1850.52  1874.70
                             1905.36  1922.63  1945.68  1974.12  1984.86
                             2002.31  2070.78  2083.61  2176.16  2188.39
                             2190.90  2201.93  2211.45  2216.90  2228.19
                             2385.75  4307.40  4357.77  4387.05  4388.58
                             4404.41  4411.86  4426.28  4432.71  4438.91
                             4451.71  4467.41  4478.85  4489.05  4494.55
                             4584.75  4621.78

 Zero-point correction=                           0.239795 (Hartree/Particle)
 Thermal correction to Energy=                    0.248958
 Thermal correction to Enthalpy=                  0.249902
 Thermal correction to Gibbs Free Energy=         0.206356
 Sum of electronic and zero-point Energies=           -390.470641
 Sum of electronic and thermal Energies=              -390.461478
 Sum of electronic and thermal Enthalpies=            -390.460534
 Sum of electronic and thermal Free Energies=         -390.504081

                     E (Thermal)             CV                S
                      KCal/Mol        Cal/Mol-Kelvin    Cal/Mol-Kelvin
 Total                  156.224             37.725             91.652
 Electronic               0.000              0.000              0.000
 Translational            0.889              2.981             40.637
 Rotational               0.889              2.981             29.272
 Vibrational            154.446             31.763             21.743
 Vibration     1          0.605              1.946              3.374
 Vibration     2          0.624              1.885              2.483
 Vibration     3          0.638              1.840              2.135
 Vibration     4          0.642              1.827              2.052
 Vibration     5          0.667              1.749              1.673
 Vibration     6          0.677              1.718              1.560
 Vibration     7          0.707              1.631              1.298
 Vibration     8          0.728              1.572              1.160
 Vibration     9          0.799              1.385              0.830
 Vibration    10          0.869              1.219              0.624
 Vibration    11          0.880              1.195              0.599
 Vibration    12          0.940              1.067              0.479
 Vibration    13          0.976              0.997              0.422

                           ! Non-Optimized Parameters !
 Normal termination of Gaussian 16 at Tue Dec  8 12:39:33 2020.

 ----------------------------------------------------------------------
 # B3LYP/6-311++G(d,p) empiricaldispersion=gd3bj scf=xqc pop=npa geom=c
 heck
 ----------------------------------------------------------------------

 -------------------------------------
 CID_23282958_JID_722_Energie_neutraal
 -------------------------------------
 Structure from the checkpoint file:  "JID_722.chk"
 Charge =  0 Multiplicity = 1

 SCF Done:  E(RB3LYP) =  -390.814114861     A.U. after   13 cycles
 Normal termination of Gaussian 16 at Tue Dec  8 12:50:14 2020.

 ----------------------------------------------------------------------
 # B3LYP/6-311++G(d,p) empiricaldispersion=gd3bj scf=xqc pop=npa geom=c
 heck
 ----------------------------------------------------------------------

 -----------------------------------
 CID_23282958_JID_722_Energie_kation
 -----------------------------------
 Structure from the checkpoint file:  "JID_722.chk"
 Charge =  1 Multiplicity = 2

 SCF Done:  E(UB3LYP) =  -390.493353517     A.U. after   20 cycles
 Normal termination of Gaussian 16 at Tue Dec  8 13:04:45 2020.
 Gaussian 16:  ES64L-G16RevA.03 25-Dec-2016

 ----------------------------------------------------------------------
 # B3LYP/6-311++G(d,p) empiricaldispersion=gd3bj scf=xqc pop=npa geom=c
 heck
 ----------------------------------------------------------------------

 ----------------------------------
 CID_23282958_JID_722_Energie_anion
 ----------------------------------
 Structure from the checkpoint file:  "JID_722.chk"
 Charge = -1 Multiplicity = 2

                         Standard orientation:
 ---------------------------------------------------------------------
 Center     Atomic      Atomic             Coordinates (Angstroms)
 Number     Number       Type             X           Y           Z
 ---------------------------------------------------------------------
      1          6           0       -1.325802   -2.357693   -0.488123
      2          6           0       -0.484982   -1.135414   -0.870422
      3          6           0       -0.141019   -0.222573    0.342264
      4          6           0        1.040271   -0.834717    1.114147
      5          6           0        2.281755   -0.415028    0.243316
      6          6           0        1.813144    0.739461   -0.714636
      7          6           0        0.490060    1.129499   -0.068154
      8          6           0       -0.691541    1.962259   -0.581094
      9          6           0       -1.770270    1.458046    0.377543
     10          6           0       -1.439392    0.286296    0.943036
     11          1           0       -0.833847   -2.960419    0.284278
     12          1           0       -1.490267   -3.004875   -1.356741
     13          1           0       -2.307515   -2.060618   -0.104343
     14          1           0        0.439255   -1.479224   -1.349973
     15          1           0       -1.028571   -0.552011   -1.623021
     16          1           0        0.978946   -1.920966    1.234845
     17          1           0        1.108752   -0.397925    2.116662
     18          1           0        3.101710   -0.078588    0.885496
     19          1           0        2.664198   -1.265243   -0.329981
     20          1           0        2.535685    1.560817   -0.751075
     21          1           0        1.680897    0.375910   -1.739347
     22          1           0        0.757034    1.603534    0.889071
     23          1           0       -0.952575    1.742949   -1.626808
     24          1           0       -0.528832    3.044047   -0.512198
     25          1           0       -2.694789    2.000292    0.558666
     26          1           0       -2.063418   -0.268497    1.637208
 ---------------------------------------------------------------------

 SCF Done:  E(UB3LYP) =  -390.793778556     A.U. after   33 cycles
 SCF Done:  E(UB3LYP) =  -390.793778557     a.u. after    1 cycles

 The electronic state is 2-A.
 Alpha  occ. eigenvalues --  -10.06759 -10.06227 -10.06151 -10.05961 -10.05822
 Alpha  occ. eigenvalues --  -10.05753 -10.05685 -10.05621 -10.05465 -10.04904
 Alpha  occ. eigenvalues --   -0.76569  -0.68567  -0.65781  -0.60850  -0.57284
 Alpha  occ. eigenvalues --   -0.56017  -0.51186  -0.46339  -0.43958  -0.40808
 Alpha  occ. eigenvalues --   -0.38047  -0.36500  -0.35384  -0.33460  -0.31603
 Alpha  occ. eigenvalues --   -0.29881  -0.28212  -0.27171  -0.26108  -0.25532
 Alpha  occ. eigenvalues --   -0.25362  -0.23017  -0.22710  -0.21337  -0.20391
 Alpha  occ. eigenvalues --   -0.20311  -0.18460  -0.13876   0.04988
 Alpha virt. eigenvalues --    0.07134   0.07288   0.07978   0.09263   0.09720
 Alpha virt. eigenvalues --    0.09876   0.10125   0.10537   0.11064   0.12082
 Alpha virt. eigenvalues --    0.12710   0.13222   0.13604   0.14105   0.14737

  Beta  occ. eigenvalues --  -10.06760 -10.06208 -10.06135 -10.05941 -10.05811
  Beta  occ. eigenvalues --  -10.05744 -10.05670 -10.05604 -10.05443 -10.04871
  Beta  occ. eigenvalues --   -0.76548  -0.68534  -0.65746  -0.60815  -0.57239
  Beta  occ. eigenvalues --   -0.55972  -0.51109  -0.46283  -0.43907  -0.40764
  Beta  occ. eigenvalues --   -0.37988  -0.36471  -0.35353  -0.33425  -0.31577
  Beta  occ. eigenvalues --   -0.29831  -0.28184  -0.27132  -0.26061  -0.25500
  Beta  occ. eigenvalues --   -0.25311  -0.22983  -0.22679  -0.21310  -0.20359
  Beta  occ. eigenvalues --   -0.20279  -0.18432  -0.13847
  Beta virt. eigenvalues --    0.07254   0.08075   0.08177   0.08602   0.09891
  Beta virt. eigenvalues --    0.10364   0.10502   0.10622   0.10957   0.11297
  Beta virt. eigenvalues --    0.12610   0.13230   0.13750   0.13924   0.14492

 Mulliken charges and spin densities:
               1          2
     1  C    1.471355  -2.159397
     2  C   -1.184327   0.801410
     3  C    0.920957   0.305459
     4  C    0.525572  -1.134318
     5  C    0.704877  -1.110546
     6  C    1.123392  -1.581907
     7  C   -1.602586   1.641953
     8  C    0.574153  -1.300486
     9  C    0.031315  -0.123699
    10  C   -0.044191  -0.293939
    11  H   -0.141719   0.269890
    12  H   -0.364033   0.501194
    13  H   -0.108216   0.259038
    14  H    0.036653   0.102080
    15  H    0.118799   0.023535
    16  H   -0.041348   0.154457
    17  H   -0.141333   0.320782
    18  H   -0.019552   0.153728
    19  H   -0.166324   0.315664
    20  H   -0.483274   0.653646
    21  H   -0.166887   0.322179
    22  H   -0.281666   0.464827
    23  H   -0.271489   0.422257
    24  H   -0.214523   0.369032
    25  H   -0.859748   1.033291
    26  H   -0.415855   0.589867
 Sum of Mulliken charges =  -1.00000   1.00000

 Dipole moment (field-independent basis, Debye):
    X=              1.0581    Y=             -0.8607    Z=              0.2405  Tot=              1.3850
 Quadrupole moment (field-independent basis, Debye-Ang):
   XX=           -114.9972   YY=           -115.8690   ZZ=            -98.5630
   XY=             -1.1787   XZ=              1.4947   YZ=             -3.7057

 Summary of Natural Population Analysis:

                                       Natural Population
                Natural  -----------------------------------------------
    Atom  No    Charge         Core      Valence    Rydberg      Total
 -----------------------------------------------------------------------
      C    1   -0.28470      0.99966     2.27986    0.00518     3.28470
      C    2   -0.19013      0.99958     2.18048    0.01007     3.19013
      C    3   -0.04974      0.99952     2.03512    0.01510     3.04974
      C    4   -0.18858      0.99958     2.17960    0.00939     3.18858
      C    5   -0.19048      0.99965     2.18335    0.00747     3.19048
      C    6   -0.19008      0.99961     2.18237    0.00810     3.19008
      C    7   -0.10023      0.99954     2.08819    0.01250     3.10023
      C    8   -0.20522      0.99960     2.19656    0.00905     3.20522
      C    9   -0.08317      0.99952     2.07372    0.00993     3.08317
      C   10   -0.09314      0.99947     2.08132    0.01235     3.09314
      H   11    0.09493      0.00000     0.40382    0.00125     0.40507
      H   12    0.09904      0.00000     0.39997    0.00099     0.40096
      H   13    0.09791      0.00000     0.40091    0.00118     0.40209
      H   14    0.09724      0.00000     0.40116    0.00161     0.40276
      H   15    0.09820      0.00000     0.40028    0.00152     0.40180
      H   16    0.09955      0.00000     0.39931    0.00113     0.40045
      H   17    0.09871      0.00000     0.39991    0.00138     0.40129
      H   18    0.09813      0.00000     0.40064    0.00123     0.40187
      H   19    0.09722      0.00000     0.40151    0.00127     0.40278
      H   20    0.10075      0.00000     0.39803    0.00122     0.39925
      H   21    0.09625      0.00000     0.40233    0.00143     0.40375
      H   22    0.09424      0.00000     0.40359    0.00217     0.40576
      H   23    0.10089      0.00000     0.39756    0.00155     0.39911
      H   24    0.10254      0.00000     0.39618    0.00128     0.39746
      H   25    0.09747      0.00000     0.40109    0.00144     0.40253
      H   26    0.10240      0.00000     0.39640    0.00120     0.39760
 =======================================================================
   * Total *   -0.00000      9.99573    27.88328    0.12099    38.00000

 Normal termination of Gaussian 16 at Tue Dec  8 13:17:31 2020.
