 Gaussian 16, Revision A.03,

 -----------------------------------------------------------
 # opt freq B3LYP/6-31G(d) empiricaldispersion=gd3bj scf=xqc
 -----------------------------------------------------------

 ------------------------------
 CID_62357453_JID_9126_neutraal
 ------------------------------
 Symbolic Z-matrix:
 Charge =  0 Multiplicity = 1

 SCF Done:  E(RB3LYP) =  -1275.45460277     A.U. after   17 cycles
 SCF Done:  E(RB3LYP) =  -1275.45933085     A.U. after   15 cycles
 SCF Done:  E(RB3LYP) =  -1275.45791812     A.U. after   15 cycles
 SCF Done:  E(RB3LYP) =  -1275.45826347     A.U. after   15 cycles
 SCF Done:  E(RB3LYP) =  -1275.45987709     A.U. after   10 cycles
 SCF Done:  E(RB3LYP) =  -1275.46023338     A.U. after   14 cycles
 SCF Done:  E(RB3LYP) =  -1275.46033410     A.U. after   11 cycles
 SCF Done:  E(RB3LYP) =  -1275.46039301     A.U. after   12 cycles
 SCF Done:  E(RB3LYP) =  -1275.46043474     A.U. after   12 cycles
 SCF Done:  E(RB3LYP) =  -1275.46044679     A.U. after    9 cycles
 SCF Done:  E(RB3LYP) =  -1275.46044966     A.U. after    9 cycles
 SCF Done:  E(RB3LYP) =  -1275.46045023     A.U. after    8 cycles
 SCF Done:  E(RB3LYP) =  -1275.46045043     A.U. after    8 cycles
 SCF Done:  E(RB3LYP) =  -1275.46045050     A.U. after    8 cycles
 SCF Done:  E(RB3LYP) =  -1275.46045053     A.U. after    7 cycles
 Optimization completed.
    -- Stationary point found.
 Normal termination of Gaussian 16 at Mon Dec 14 13:26:01 2020.

 --------------------------------------------------------------------
 #N Geom=AllCheck Guess=TCheck SCRF=Check GenChk RB3LYP/6-31G(d) Freq
 --------------------------------------------------------------------

 Structure from the checkpoint file:  "JID_9126.chk"
 ------------------------------
 CID_62357453_JID_9126_neutraal
 ------------------------------
 Charge =  0 Multiplicity = 1

 SCF Done:  E(RB3LYP) =  -1275.46045053     A.U. after    1 cycles

  Exact polarizability: 220.817  29.131 132.167  -0.304  -5.174 154.439
 Approx polarizability: 303.508  54.459 198.712   0.217 -11.198 313.818

                      1                      2                      3
                      A                      A                      A
 Frequencies --     19.6468                33.2615                50.1474
 Red. masses --      7.8116                 6.4001                 4.1950
 Frc consts  --      0.0018                 0.0042                 0.0062
 IR Inten    --      0.0290                 1.5278                 1.0927

                      4                      5                      6
                      A                      A                      A
 Frequencies --     58.5263                68.3660                95.4406
 Red. masses --      5.2386                 8.9445                 4.1335
 Frc consts  --      0.0106                 0.0246                 0.0222
 IR Inten    --      0.4249                 2.3606                 2.4089

                      7                      8                      9
                      A                      A                      A
 Frequencies --    104.7520               120.0294               141.7794
 Red. masses --      9.5771                 7.8976                 4.2833
 Frc consts  --      0.0619                 0.0670                 0.0507
 IR Inten    --      1.5894                 5.2605                 2.5542

                     10                     11                     12
                      A                      A                      A
 Frequencies --    177.1128               203.5158               241.4921
 Red. masses --      5.4685                 3.0568                 6.5031
 Frc consts  --      0.1011                 0.0746                 0.2234
 IR Inten    --      4.4904                 0.2719                 2.5435

                     13                     14                     15
                      A                      A                      A
 Frequencies --    254.7290               275.4314               299.9415
 Red. masses --      7.9236                 2.1301                 2.2618
 Frc consts  --      0.3029                 0.0952                 0.1199
 IR Inten    --      2.1571                32.2720                28.7145

                     16                     17                     18
                      A                      A                      A
 Frequencies --    322.6675               353.6830               369.3234
 Red. masses --      1.4721                 2.8248                 2.5203
 Frc consts  --      0.0903                 0.2082                 0.2025
 IR Inten    --     91.0325                 0.9451                 2.1341

                     19                     20                     21
                      A                      A                      A
 Frequencies --    419.8219               431.9822               443.3425
 Red. masses --      3.3266                 3.2080                 3.9688
 Frc consts  --      0.3454                 0.3527                 0.4596
 IR Inten    --      4.7818                11.3957                 4.1026

                     22                     23                     24
                      A                      A                      A
 Frequencies --    454.3668               485.7449               518.9279
 Red. masses --      2.9981                 6.9430                 4.8202
 Frc consts  --      0.3647                 0.9652                 0.7648
 IR Inten    --      2.4500                 2.9431                 1.4764

                     25                     26                     27
                      A                      A                      A
 Frequencies --    534.6145               555.1985               585.3161
 Red. masses --      3.9098                 2.5336                 4.2090
 Frc consts  --      0.6584                 0.4601                 0.8496
 IR Inten    --      3.8242                 1.3863                 0.8159

                     28                     29                     30
                      A                      A                      A
 Frequencies --    642.5890               677.2837               719.9728
 Red. masses --      3.7348                 3.3026                 5.7292
 Frc consts  --      0.9086                 0.8926                 1.7497
 IR Inten    --      2.0595                 7.3184                 4.5033

                     31                     32                     33
                      A                      A                      A
 Frequencies --    742.3400               749.7111               755.4816
 Red. masses --      9.1013                 6.4943                 2.3640
 Frc consts  --      2.9550                 2.1507                 0.7949
 IR Inten    --     11.4881                42.6513                 5.6735

                     34                     35                     36
                      A                      A                      A
 Frequencies --    767.2975               825.2662               834.3249
 Red. masses --      5.0343                 9.2144                 2.2471
 Frc consts  --      1.7463                 3.6975                 0.9216
 IR Inten    --      1.7377                25.9619                17.8764

                     37                     38                     39
                      A                      A                      A
 Frequencies --    849.4308               865.8352               882.4557
 Red. masses --      1.6364                 1.8443                 1.6403
 Frc consts  --      0.6956                 0.8146                 0.7526
 IR Inten    --     15.7403                 0.4629                 9.4915

                     40                     41                     42
                      A                      A                      A
 Frequencies --    890.8575               930.9223               937.8921
 Red. masses --      2.5459                 1.4284                 2.2009
 Frc consts  --      1.1904                 0.7293                 1.1406
 IR Inten    --      9.2064                 0.2102                 1.4489

                     43                     44                     45
                      A                      A                      A
 Frequencies --    947.8509               998.7397              1023.7644
 Red. masses --      2.4004                 2.0276                 1.6662
 Frc consts  --      1.2706                 1.1916                 1.0289
 IR Inten    --     26.2006                21.2559                 2.9808

                     46                     47                     48
                      A                      A                      A
 Frequencies --   1038.5704              1061.4856              1064.9117
 Red. masses --      1.9011                 2.3409                 1.5621
 Frc consts  --      1.2081                 1.5540                 1.0437
 IR Inten    --     32.3509                36.7607                 8.6081

                     49                     50                     51
                      A                      A                      A
 Frequencies --   1091.5513              1104.8293              1122.9166
 Red. masses --      2.9252                 2.3941                 1.7950
 Frc consts  --      2.0535                 1.7218                 1.3335
 IR Inten    --     97.5780                 0.0143                 4.7948

                     52                     53                     54
                      A                      A                      A
 Frequencies --   1150.3165              1161.1055              1182.5783
 Red. masses --      2.1165                 4.4455                 1.7430
 Frc consts  --      1.6501                 3.5312                 1.4362
 IR Inten    --      5.6977                24.2432                 7.3308

                     55                     56                     57
                      A                      A                      A
 Frequencies --   1202.7287              1240.3233              1249.8694
 Red. masses --      1.3808                 1.5374                 1.4803
 Frc consts  --      1.1768                 1.3935                 1.3625
 IR Inten    --     12.6665                30.4780                10.0644

                     58                     59                     60
                      A                      A                      A
 Frequencies --   1260.1421              1269.5753              1298.4982
 Red. masses --      1.2995                 1.8582                 1.9796
 Frc consts  --      1.2158                 1.7646                 1.9666
 IR Inten    --     11.9805                38.4879               341.5715

                     61                     62                     63
                      A                      A                      A
 Frequencies --   1322.0763              1342.3929              1376.1825
 Red. masses --      1.2176                 1.3792                 2.3005
 Frc consts  --      1.2539                 1.4644                 2.5670
 IR Inten    --     42.0532                10.3159                46.0790

                     64                     65                     66
                      A                      A                      A
 Frequencies --   1378.2673              1379.7203              1398.0883
 Red. masses --      1.4494                 1.5899                 4.3745
 Frc consts  --      1.6222                 1.7832                 5.0379
 IR Inten    --     12.5819                27.9211               368.2677

                     67                     68                     69
                      A                      A                      A
 Frequencies --   1401.1885              1405.0486              1409.4808
 Red. masses --      1.5372                 1.6715                 1.2116
 Frc consts  --      1.7782                 1.9442                 1.4182
 IR Inten    --      9.4561                36.6709                13.2959

                     70                     71                     72
                      A                      A                      A
 Frequencies --   1416.5765              1432.0669              1438.3083
 Red. masses --      1.4711                 1.3703                 1.3080
 Frc consts  --      1.7392                 1.6558                 1.5943
 IR Inten    --     16.1097                20.4714                13.0378

                     73                     74                     75
                      A                      A                      A
 Frequencies --   1462.4136              1492.1411              1503.2118
 Red. masses --      2.4282                 4.2604                 1.0996
 Frc consts  --      3.0597                 5.5888                 1.4639
 IR Inten    --    126.8480                25.1610                 9.2536

                     76                     77                     78
                      A                      A                      A
 Frequencies --   1507.3354              1517.0979              1524.6951
 Red. masses --      1.1267                 1.1219                 1.1275
 Frc consts  --      1.5083                 1.5214                 1.5443
 IR Inten    --     10.7583                 0.9457                18.7688

                     79                     80                     81
                      A                      A                      A
 Frequencies --   1529.5921              1543.8807              1583.0346
 Red. masses --      1.0995                 1.0888                 5.7812
 Frc consts  --      1.5156                 1.5290                 8.5359
 IR Inten    --      5.5962                 3.4421                59.1069

                     82                     83                     84
                      A                      A                      A
 Frequencies --   1627.0451              1723.7868              3011.8604
 Red. masses --     13.2581                11.1891                 1.0714
 Frc consts  --     20.6791                19.5890                 5.7263
 IR Inten    --    173.9778               218.1656                42.3402

                     85                     86                     87
                      A                      A                      A
 Frequencies --   3026.1122              3036.5702              3043.1669
 Red. masses --      1.0734                 1.0757                 1.0723
 Frc consts  --      5.7915                 5.8441                 5.8510
 IR Inten    --     12.3949                25.4449                22.2979

                     88                     89                     90
                      A                      A                      A
 Frequencies --   3046.6654              3053.7516              3061.4150
 Red. masses --      1.0605                 1.0742                 1.0643
 Frc consts  --      5.7995                 5.9018                 5.8770
 IR Inten    --     28.6754                78.8730                11.6723

                     91                     92                     93
                      A                      A                      A
 Frequencies --   3078.1122              3089.4856              3106.2666
 Red. masses --      1.0930                 1.1013                 1.1021
 Frc consts  --      6.1018                 6.1933                 6.2651
 IR Inten    --     53.1078                39.1305                59.6010

                     94                     95                     96
                      A                      A                      A
 Frequencies --   3108.5567              3169.9147              3172.1594
 Red. masses --      1.0957                 1.0938                 1.0915
 Frc consts  --      6.2383                 6.4754                 6.4712
 IR Inten    --     17.0273                 1.9374                16.4529

                     97                     98                     99
                      A                      A                      A
 Frequencies --   3237.4919              3267.5853              3757.4841
 Red. masses --      1.0922                 1.0962                 1.0663
 Frc consts  --      6.7447                 6.8957                 8.8697
 IR Inten    --      2.2624                 1.3276                 9.2176

 - Thermochemistry -
 -------------------
 Temperature   298.150 Kelvin.  Pressure   1.00000 Atm.
 Atom     1 has atomic number  6 and mass  12.00000

 Molecular mass:   284.08308 amu.
 Principal axes and moments of inertia in atomic units:
                           1         2         3
     Eigenvalues --  3122.851299495.95730**********
           X            0.99998  -0.00478   0.00439
           Y            0.00487   0.99980  -0.01962
           Z           -0.00430   0.01964   0.99980
 This molecule is an asymmetric top.
 Rotational symmetry number  1.
 Warning -- assumption of classical behavior for rotation
           may cause significant error
 Rotational temperatures (Kelvin)      0.02774     0.00912     0.00796
 Rotational constants (GHZ):           0.57791     0.19005     0.16581
 Zero-point vibrational energy     742526.9 (Joules/Mol)
                                  177.46820 (Kcal/Mol)
 Warning -- explicit consideration of  27 degrees of freedom as
           vibrations may cause significant error
 Vibrational temperatures:     28.27    47.86    72.15    84.21    98.36
          (Kelvin)            137.32   150.71   172.70   203.99   254.83
                              292.81   347.45   366.50   396.28   431.55
                              464.25   508.87   531.37   604.03   621.53
                              637.87   653.73   698.88   746.62   769.19
                              798.81   842.14   924.54   974.46  1035.88
                             1068.06  1078.67  1086.97  1103.97  1187.37
                             1200.41  1222.14  1245.74  1269.66  1281.75
                             1339.39  1349.42  1363.75  1436.96  1472.97
                             1494.27  1527.24  1532.17  1570.50  1589.60
                             1615.63  1655.05  1670.57  1701.47  1730.46
                             1784.55  1798.28  1813.06  1826.64  1868.25
                             1902.17  1931.40  1980.02  1983.02  1985.11
                             2011.54  2016.00  2021.55  2027.93  2038.14
                             2060.42  2069.40  2104.09  2146.86  2162.79
                             2168.72  2182.77  2193.70  2200.74  2221.30
                             2277.63  2340.96  2480.14  4333.40  4353.90
                             4368.95  4378.44  4383.47  4393.67  4404.69
                             4428.72  4445.08  4469.22  4472.52  4560.80
                             4564.03  4658.03  4701.33  5406.18

 Zero-point correction=                           0.282814 (Hartree/Particle)
 Thermal correction to Energy=                    0.300651
 Thermal correction to Enthalpy=                  0.301595
 Thermal correction to Gibbs Free Energy=         0.234663
 Sum of electronic and zero-point Energies=          -1275.177637
 Sum of electronic and thermal Energies=             -1275.159800
 Sum of electronic and thermal Enthalpies=           -1275.158855
 Sum of electronic and thermal Free Energies=        -1275.225788

                     E (Thermal)             CV                S
                      KCal/Mol        Cal/Mol-Kelvin    Cal/Mol-Kelvin
 Total                  188.661             66.882            140.871
 Electronic               0.000              0.000              0.000
 Translational            0.889              2.981             42.830
 Rotational               0.889              2.981             34.134
 Vibrational            186.884             60.921             63.908
 Vibration     1          0.593              1.986              6.670
 Vibration     2          0.594              1.983              5.625
 Vibration     3          0.595              1.978              4.812
 Vibration     4          0.596              1.974              4.506
 Vibration     5          0.598              1.969              4.200
 Vibration     6          0.603              1.952              3.545
 Vibration     7          0.605              1.945              3.364
 Vibration     8          0.609              1.933              3.100
 Vibration     9          0.615              1.911              2.780
 Vibration    10          0.628              1.871              2.359
 Vibration    11          0.639              1.835              2.101
 Vibration    12          0.658              1.777              1.792
 Vibration    13          0.665              1.755              1.698
 Vibration    14          0.677              1.719              1.562
 Vibration    15          0.692              1.674              1.417
 Vibration    16          0.708              1.630              1.297
 Vibration    17          0.730              1.568              1.150
 Vibration    18          0.742              1.535              1.083
 Vibration    19          0.782              1.427              0.893
 Vibration    20          0.793              1.401              0.852
 Vibration    21          0.803              1.376              0.816
 Vibration    22          0.813              1.351              0.783
 Vibration    23          0.842              1.282              0.695
 Vibration    24          0.874              1.208              0.612
 Vibration    25          0.890              1.173              0.577
 Vibration    26          0.911              1.128              0.534
 Vibration    27          0.942              1.063              0.476

 Optimization completed.
    -- Stationary point found.
 Normal termination of Gaussian 16 at Mon Dec 14 13:43:20 2020.

 ----------------------------------------------------------------------
 # B3LYP/6-311++G(d,p) empiricaldispersion=gd3bj scf=xqc pop=npa geom=c
 heck
 ----------------------------------------------------------------------

 --------------------------------------
 CID_62357453_JID_9126_Energie_neutraal
 --------------------------------------
 Structure from the checkpoint file:  "JID_9126.chk"
 Charge =  0 Multiplicity = 1

 SCF Done:  E(RB3LYP) =  -1275.74475613     A.U. after   18 cycles
 Normal termination of Gaussian 16 at Mon Dec 14 13:53:02 2020.

 ----------------------------------------------------------------------
 # B3LYP/6-311++G(d,p) empiricaldispersion=gd3bj scf=xqc pop=npa geom=c
 heck
 ----------------------------------------------------------------------

 ------------------------------------
 CID_62357453_JID_9126_Energie_kation
 ------------------------------------
 Structure from the checkpoint file:  "JID_9126.chk"
 Charge =  1 Multiplicity = 2

 SCF Done:  E(UB3LYP) =  -1275.41601436     A.U. after   33 cycles
 SCF Done:  E(UB3LYP) =  -1275.41896804     a.u. after   10 cycles
 Normal termination of Gaussian 16 at Mon Dec 14 17:01:58 2020.
 Gaussian 16:  ES64L-G16RevA.03 25-Dec-2016

 ----------------------------------------------------------------------
 # B3LYP/6-311++G(d,p) empiricaldispersion=gd3bj scf=xqc pop=npa geom=c
 heck
 ----------------------------------------------------------------------

 -----------------------------------
 CID_62357453_JID_9126_Energie_anion
 -----------------------------------
 Structure from the checkpoint file:  "JID_9126.chk"
 Charge = -1 Multiplicity = 2

                         Standard orientation:
 ---------------------------------------------------------------------
 Center     Atomic      Atomic             Coordinates (Angstroms)
 Number     Number       Type             X           Y           Z
 ---------------------------------------------------------------------
      1          6           0       -3.607603   -1.208912   -0.710227
      2          6           0       -3.922295   -0.080199    0.281530
      3          6           0       -2.639446    0.577458    0.828637
      4          6           0       -1.720336   -0.511918    1.415562
      5          7           0       -1.432817   -1.554682    0.423363
      6          6           0       -2.641210   -2.218742   -0.083021
      7          6           0       -0.341070   -1.535932   -0.408815
      8          8           0       -0.349824   -2.012892   -1.542722
      9          6           0        0.927199   -0.956898    0.123420
     10          6           0        1.479919   -1.020091    1.387648
     11          6           0        2.766825   -0.434377    1.456343
     12          6           0        3.150746    0.053543    0.231433
     13         16           0        1.990702   -0.207019   -1.027248
     14          7           0        4.387830    0.721081   -0.059419
     15          8           0        4.565191    1.092608   -1.223132
     16          8           0        5.180394    0.875500    0.870639
     17          6           0       -1.881551    1.429563   -0.205552
     18          6           0       -2.687020    2.607056   -0.760578
     19          8           0       -3.161086    3.485422    0.255672
     20          1           0       -4.528966   -1.722510   -1.008798
     21          1           0       -3.152927   -0.809493   -1.623643
     22          1           0       -4.576376    0.664799   -0.186877
     23          1           0       -4.487658   -0.497028    1.127164
     24          1           0       -2.909282    1.239464    1.663121
     25          1           0       -0.789753   -0.066126    1.762341
     26          1           0       -2.206152   -0.991858    2.274742
     27          1           0       -3.118397   -2.716673    0.771513
     28          1           0       -2.331326   -2.974681   -0.803363
     29          1           0        0.984706   -1.492397    2.227522
     30          1           0        3.390163   -0.368140    2.338224
     31          1           0       -0.975283    1.825522    0.270213
     32          1           0       -1.551033    0.812733   -1.050595
     33          1           0       -2.042683    3.215959   -1.401765
     34          1           0       -3.516089    2.247306   -1.388802
     35          1           0       -3.907608    3.052226    0.695431
 ---------------------------------------------------------------------

 SCF Done:  E(UB3LYP) =  -1275.80190905     A.U. after   23 cycles

 The electronic state is 2-A.
 Alpha  occ. eigenvalues --  -88.73955 -19.05447 -18.97216 -18.96372 -18.96344
 Alpha  occ. eigenvalues --  -14.34966 -14.23791 -10.15812 -10.14154 -10.11864
 Alpha  occ. eigenvalues --  -10.11457 -10.10130 -10.10044 -10.09318 -10.08726
 Alpha  occ. eigenvalues --  -10.08350 -10.06682 -10.05671 -10.04486  -7.82569
 Alpha  occ. eigenvalues --   -5.78865  -5.78503  -5.78181  -1.04425  -0.95428
 Alpha  occ. eigenvalues --   -0.92851  -0.87305  -0.84321  -0.75844  -0.73614
 Alpha  occ. eigenvalues --   -0.69640  -0.65263  -0.64474  -0.61369  -0.59844
 Alpha  occ. eigenvalues --   -0.56772  -0.55221  -0.52756  -0.48918  -0.46347
 Alpha  occ. eigenvalues --   -0.44235  -0.44139  -0.40641  -0.40008  -0.39682
 Alpha  occ. eigenvalues --   -0.38860  -0.38096  -0.36631  -0.35985  -0.35327
 Alpha  occ. eigenvalues --   -0.35050  -0.33733  -0.33360  -0.32514  -0.31824
 Alpha  occ. eigenvalues --   -0.30388  -0.29749  -0.29000  -0.28238  -0.27726
 Alpha  occ. eigenvalues --   -0.27101  -0.26138  -0.25514  -0.24439  -0.24258
 Alpha  occ. eigenvalues --   -0.23431  -0.22102  -0.20634  -0.15779  -0.15288
 Alpha  occ. eigenvalues --   -0.14420  -0.13962  -0.12899  -0.11982  -0.11748
 Alpha  occ. eigenvalues --    0.00587
 Alpha virt. eigenvalues --    0.04595   0.06464   0.06752   0.08361   0.09082
 Alpha virt. eigenvalues --    0.09256   0.09511   0.10051   0.10616   0.11488
 Alpha virt. eigenvalues --    0.12276   0.12474   0.12690   0.13516   0.13759

  Beta  occ. eigenvalues --  -88.73887 -19.05446 -18.97086 -18.95970 -18.95916
  Beta  occ. eigenvalues --  -14.34508 -14.23759 -10.15758 -10.14153 -10.11864
  Beta  occ. eigenvalues --  -10.11459 -10.10128 -10.10044 -10.09314 -10.08602
  Beta  occ. eigenvalues --  -10.08350 -10.06399 -10.05729 -10.04352  -7.82509
  Beta  occ. eigenvalues --   -5.78832  -5.78472  -5.77961  -1.03581  -0.95427
  Beta  occ. eigenvalues --   -0.92638  -0.86529  -0.84219  -0.75550  -0.73593
  Beta  occ. eigenvalues --   -0.69619  -0.65251  -0.63835  -0.61054  -0.59655
  Beta  occ. eigenvalues --   -0.56758  -0.54919  -0.52387  -0.48840  -0.46168
  Beta  occ. eigenvalues --   -0.44183  -0.44111  -0.40379  -0.39960  -0.39148
  Beta  occ. eigenvalues --   -0.38842  -0.37968  -0.35888  -0.35259  -0.34987
  Beta  occ. eigenvalues --   -0.34181  -0.33437  -0.33053  -0.32369  -0.31657
  Beta  occ. eigenvalues --   -0.30268  -0.29702  -0.28714  -0.28139  -0.27675
  Beta  occ. eigenvalues --   -0.26960  -0.26065  -0.25165  -0.24278  -0.24242
  Beta  occ. eigenvalues --   -0.22944  -0.21803  -0.20627  -0.15505  -0.14104
  Beta  occ. eigenvalues --   -0.13541  -0.12766  -0.11635  -0.11564  -0.10188
  Beta virt. eigenvalues --    0.04548   0.06364   0.06586   0.06797   0.08347
  Beta virt. eigenvalues --    0.09195   0.09399   0.09723   0.10568   0.11396
  Beta virt. eigenvalues --    0.11473   0.12249   0.12501   0.12681   0.13491

 Mulliken charges and spin densities:
               1          2
     1  C   -0.238158  -0.003964
     2  C   -0.455894  -0.017884
     3  C    0.375068  -0.012927
     4  C   -0.622273   0.034266
     5  N    0.175984   0.010949
     6  C   -0.188960  -0.008468
     7  C   -1.153182   0.020518
     8  O   -0.291742   0.039573
     9  C    1.037498   0.137006
    10  C   -0.369870  -0.001361
    11  C    0.477182   0.163717
    12  C   -0.858896  -0.006344
    13  S    0.015399   0.161203
    14  N   -0.200926   0.157343
    15  O   -0.218442   0.151631
    16  O   -0.136028   0.162336
    17  C   -0.324033   0.009116
    18  C   -0.543887  -0.029466
    19  O   -0.224606   0.000643
    20  H    0.150633   0.006506
    21  H    0.183528   0.001667
    22  H    0.109297   0.001086
    23  H    0.129742   0.001885
    24  H    0.193084   0.004804
    25  H    0.151223  -0.003720
    26  H    0.156232   0.005961
    27  H    0.140829   0.003713
    28  H    0.205323  -0.000343
    29  H    0.126136   0.001406
    30  H    0.224964  -0.008014
    31  H    0.181575   0.013449
    32  H    0.227310  -0.001175
    33  H    0.186130   0.004997
    34  H    0.139380  -0.000540
    35  H    0.240381   0.000431
 Sum of Mulliken charges =  -1.00000   1.00000

 Dipole moment (field-independent basis, Debye):
    X=            -16.4122    Y=             -1.9312    Z=              3.3599  Tot=             16.8636
 Quadrupole moment (field-independent basis, Debye-Ang):
   XX=           -201.0150   YY=           -147.7232   ZZ=           -133.3981
   XY=            -10.0740   XZ=              1.5567   YZ=             -6.3385

 Summary of Natural Population Analysis:

                                       Natural Population
                Natural  -----------------------------------------------
    Atom  No    Charge         Core      Valence    Rydberg      Total
 -----------------------------------------------------------------------
      C    1   -0.19921      0.99963     2.19283    0.00675     3.19921
      C    2   -0.19182      0.99962     2.18444    0.00776     3.19182
      C    3   -0.11862      0.99959     2.10912    0.00991     3.11862
      C    4   -0.08152      0.99960     2.07233    0.00960     3.08152
      N    5   -0.26125      0.99965     2.74904    0.01257     3.76125
      C    6   -0.08616      0.99962     2.07683    0.00971     3.08616
      C    7    0.33557      0.99956     1.64268    0.02219     2.66443
      O    8   -0.31385      0.99988     3.30821    0.00576     4.31385
      C    9   -0.09950      0.99947     2.08749    0.01255     3.09950
      C   10   -0.14212      0.99950     2.13351    0.00911     3.14212
      C   11   -0.10036      0.99949     2.08979    0.01108     3.10036
      C   12   -0.01768      0.99942     2.00337    0.01489     3.01768
      S   13    0.27355      4.99937     2.70442    0.02266     7.72645
      N   14    0.27623      0.99967     2.19590    0.02820     3.22377
      O   15   -0.19389      0.99990     3.18630    0.00769     4.19389
      O   16   -0.19070      0.99990     3.18312    0.00769     4.19070
      C   17   -0.21038      0.99961     2.20220    0.00857     3.21038
      C   18   -0.00988      0.99960     1.99861    0.01167     3.00988
      O   19   -0.36902      0.99990     3.36246    0.00666     4.36902
      H   20    0.09520      0.00000     0.40374    0.00106     0.40480
      H   21    0.10322      0.00000     0.39551    0.00127     0.39678
      H   22    0.09399      0.00000     0.40485    0.00116     0.40601
      H   23    0.09359      0.00000     0.40528    0.00113     0.40641
      H   24    0.09473      0.00000     0.40330    0.00196     0.40527
      H   25    0.11584      0.00000     0.38289    0.00127     0.38416
      H   26    0.08929      0.00000     0.40974    0.00097     0.41071
      H   27    0.08563      0.00000     0.41333    0.00104     0.41437
      H   28    0.11555      0.00000     0.38325    0.00120     0.38445
      H   29    0.09965      0.00000     0.39890    0.00144     0.40035
      H   30    0.11201      0.00000     0.38671    0.00128     0.38799
      H   31    0.10829      0.00000     0.39068    0.00103     0.39171
      H   32    0.10846      0.00000     0.38955    0.00200     0.39154
      H   33    0.08947      0.00000     0.40933    0.00120     0.41053
      H   34    0.07177      0.00000     0.42691    0.00132     0.42823
      H   35    0.22392      0.00000     0.27352    0.00255     0.27608
 =======================================================================
   * Total *    0.00000     22.99297    51.76011    0.24692    75.00000

 Normal termination of Gaussian 16 at Mon Dec 14 17:19:43 2020.
