 Gaussian 16, Revision A.03,

 -----------------------------------------------------------
 # opt freq B3LYP/6-31G(d) empiricaldispersion=gd3bj scf=xqc
 -----------------------------------------------------------

 ------------------------------
 CID_83528919_JID_1190_neutraal
 ------------------------------
 Symbolic Z-matrix:
 Charge =  0 Multiplicity = 1

 SCF Done:  E(RB3LYP) =  -512.858843630     A.U. after   15 cycles
 SCF Done:  E(RB3LYP) =  -512.862866847     A.U. after   12 cycles
 SCF Done:  E(RB3LYP) =  -512.863895409     A.U. after   12 cycles
 SCF Done:  E(RB3LYP) =  -512.864054673     A.U. after   12 cycles
 SCF Done:  E(RB3LYP) =  -512.864345063     A.U. after   11 cycles
 SCF Done:  E(RB3LYP) =  -512.864466407     A.U. after   11 cycles
 SCF Done:  E(RB3LYP) =  -512.864506671     A.U. after   11 cycles
 SCF Done:  E(RB3LYP) =  -512.864538649     A.U. after   10 cycles
 SCF Done:  E(RB3LYP) =  -512.864621105     A.U. after   12 cycles
 SCF Done:  E(RB3LYP) =  -512.864775389     A.U. after   13 cycles
 SCF Done:  E(RB3LYP) =  -512.869224022     A.U. after   11 cycles
 SCF Done:  E(RB3LYP) =  -512.869243742     A.U. after   11 cycles
 SCF Done:  E(RB3LYP) =  -512.869245956     A.U. after   10 cycles
 SCF Done:  E(RB3LYP) =  -512.869247295     A.U. after    8 cycles
 SCF Done:  E(RB3LYP) =  -512.869247771     A.U. after    8 cycles
 SCF Done:  E(RB3LYP) =  -512.869248016     A.U. after    8 cycles
 Optimization completed.
    -- Stationary point found.
 Normal termination of Gaussian 16 at Tue Dec  8 19:22:26 2020.

 --------------------------------------------------------------------
 #N Geom=AllCheck Guess=TCheck SCRF=Check GenChk RB3LYP/6-31G(d) Freq
 --------------------------------------------------------------------

 Structure from the checkpoint file:  "JID_1190.chk"
 ------------------------------
 CID_83528919_JID_1190_neutraal
 ------------------------------
 Charge =  0 Multiplicity = 1

 SCF Done:  E(RB3LYP) =  -512.869248016     A.U. after    1 cycles

  Exact polarizability: 110.629 -11.353  80.258  -6.176  -6.285  76.110
 Approx polarizability: 158.612 -22.749 121.093 -18.660 -12.215 120.284

                      1                      2                      3
                      A                      A                      A
 Frequencies --     32.8979                54.8775                66.8140
 Red. masses --      4.2227                 6.8464                 3.7152
 Frc consts  --      0.0027                 0.0121                 0.0098
 IR Inten    --      1.1691                 0.3016                 0.1550

                      4                      5                      6
                      A                      A                      A
 Frequencies --     97.5595               122.0582               216.5826
 Red. masses --      3.1007                 3.8504                 2.3587
 Frc consts  --      0.0174                 0.0338                 0.0652
 IR Inten    --      0.3588                 0.6338                 1.6189

                      7                      8                      9
                      A                      A                      A
 Frequencies --    322.0383               346.4123               399.9796
 Red. masses --      2.6135                 1.3566                 5.0820
 Frc consts  --      0.1597                 0.0959                 0.4790
 IR Inten    --     17.0182                42.3829                 2.3962

                     10                     11                     12
                      A                      A                      A
 Frequencies --    410.9163               433.2431               474.6196
 Red. masses --      2.1954                 6.1535                 1.4774
 Frc consts  --      0.2184                 0.6805                 0.1961
 IR Inten    --     15.9288                 6.2873                77.8282

                     13                     14                     15
                      A                      A                      A
 Frequencies --    518.0429               568.6133               646.6233
 Red. masses --      2.4491                 1.4939                 2.5159
 Frc consts  --      0.3872                 0.2846                 0.6198
 IR Inten    --     33.9104                49.5449                 0.6480

                     16                     17                     18
                      A                      A                      A
 Frequencies --    650.6230               689.8175               718.1043
 Red. masses --      2.5367                 1.3977                 2.6873
 Frc consts  --      0.6327                 0.3919                 0.8165
 IR Inten    --     15.6741                17.9213                67.9226

                     19                     20                     21
                      A                      A                      A
 Frequencies --    742.1277               789.3845               842.0197
 Red. masses --      2.0126                 1.5482                 1.3551
 Frc consts  --      0.6531                 0.5684                 0.5661
 IR Inten    --     16.6522                12.4392                 2.9164

                     22                     23                     24
                      A                      A                      A
 Frequencies --    855.8555               884.8816               899.9313
 Red. masses --      2.9226                 2.2829                 1.7769
 Frc consts  --      1.2613                 1.0532                 0.8479
 IR Inten    --     28.0835                 4.1502               151.3310

                     25                     26                     27
                      A                      A                      A
 Frequencies --    906.4870               968.5012              1011.7962
 Red. masses --      4.5477                 1.6107                 2.1124
 Frc consts  --      2.2017                 0.8902                 1.2741
 IR Inten    --      0.3729                23.5260                18.1277

                     28                     29                     30
                      A                      A                      A
 Frequencies --   1027.4658              1096.1896              1098.8210
 Red. masses --      2.2243                 1.7476                 1.6167
 Frc consts  --      1.3835                 1.2372                 1.1501
 IR Inten    --     52.0797                 9.5535                18.4873

                     31                     32                     33
                      A                      A                      A
 Frequencies --   1112.7439              1164.8771              1168.4535
 Red. masses --      2.2633                 1.3341                 1.3646
 Frc consts  --      1.6511                 1.0666                 1.0977
 IR Inten    --      1.1018                17.9187                 5.7050

                     34                     35                     36
                      A                      A                      A
 Frequencies --   1250.5477              1267.5951              1310.6724
 Red. masses --      1.4282                 1.6245                 2.2755
 Frc consts  --      1.3160                 1.5379                 2.3031
 IR Inten    --     49.7098                 7.6687                54.2504

                     37                     38                     39
                      A                      A                      A
 Frequencies --   1335.2841              1387.5926              1411.0873
 Red. masses --      2.0573                 1.3815                 2.9649
 Frc consts  --      2.1612                 1.5672                 3.4783
 IR Inten    --     46.5500                42.0197                14.4579

                     40                     41                     42
                      A                      A                      A
 Frequencies --   1412.9948              1420.0563              1461.8471
 Red. masses --      1.3747                 1.6209                 2.0959
 Frc consts  --      1.6171                 1.9259                 2.6389
 IR Inten    --     13.5368                60.4605                39.3820

                     43                     44                     45
                      A                      A                      A
 Frequencies --   1478.0505              1508.0321              1520.5011
 Red. masses --      2.8889                 1.1159                 1.1036
 Frc consts  --      3.7185                 1.4951                 1.5033
 IR Inten    --     10.3540                 7.1532                11.7453

                     46                     47                     48
                      A                      A                      A
 Frequencies --   1546.7731              1625.7935              1702.8373
 Red. masses --      3.2104                 4.4440                 1.0910
 Frc consts  --      4.5255                 6.9207                 1.8639
 IR Inten    --      2.7028                39.0503                24.9590

                     49                     50                     51
                      A                      A                      A
 Frequencies --   1787.9128              3057.8328              3069.6127
 Red. masses --      8.0831                 1.0639                 1.0628
 Frc consts  --     15.2238                 5.8613                 5.9003
 IR Inten    --    351.1479                32.2319                33.1752

                     52                     53                     54
                      A                      A                      A
 Frequencies --   3110.5301              3130.1961              3264.4010
 Red. masses --      1.1022                 1.1007                 1.0914
 Frc consts  --      6.2833                 6.3542                 6.8526
 IR Inten    --      4.5370                32.4578                 1.3259

                     55                     56                     57
                      A                      A                      A
 Frequencies --   3287.3380              3289.7506              3460.3355
 Red. masses --      1.1003                 1.1005                 1.0490
 Frc consts  --      7.0058                 7.0174                 7.4005
 IR Inten    --      1.2386                 0.2208                 0.9156

                     58                     59                     60
                      A                      A                      A
 Frequencies --   3546.0597              3560.0098              3670.3342
 Red. masses --      1.0924                 1.0748                 1.0810
 Frc consts  --      8.0931                 8.0255                 8.5797
 IR Inten    --      0.7802                19.5349                71.1911

 - Thermochemistry -
 -------------------
 Temperature   298.150 Kelvin.  Pressure   1.00000 Atm.
 Atom     1 has atomic number  6 and mass  12.00000

 Molecular mass:   153.09021 amu.
 Principal axes and moments of inertia in atomic units:
                           1         2         3
     Eigenvalues --   973.695262435.655362867.18879
           X            0.99986   0.01564   0.00562
           Y           -0.01553   0.99968  -0.02008
           Z           -0.00593   0.01999   0.99978
 This molecule is an asymmetric top.
 Rotational symmetry number  1.
 Warning -- assumption of classical behavior for rotation
           may cause significant error
 Rotational temperatures (Kelvin)      0.08895     0.03556     0.03021
 Rotational constants (GHZ):           1.85350     0.74097     0.62945
 Zero-point vibrational energy     485763.6 (Joules/Mol)
                                  116.10029 (Kcal/Mol)
 Warning -- explicit consideration of  14 degrees of freedom as
           vibrations may cause significant error
 Vibrational temperatures:     47.33    78.96    96.13   140.37   175.61
          (Kelvin)            311.61   463.34   498.41   575.48   591.22
                              623.34   682.87   745.35   818.11   930.35
                              936.10   992.49  1033.19  1067.76  1135.75
                             1211.48  1231.39  1273.15  1294.80  1304.23
                             1393.46  1455.75  1478.29  1577.17  1580.96
                             1600.99  1676.00  1681.14  1799.26  1823.79
                             1885.77  1921.18  1996.44  2030.24  2032.98
                             2043.14  2103.27  2126.59  2169.72  2187.66
                             2225.46  2339.15  2450.00  2572.41  4399.54
                             4416.49  4475.36  4503.65  4696.74  4729.75
                             4733.22  4978.65  5101.99  5122.06  5280.79

 Zero-point correction=                           0.185018 (Hartree/Particle)
 Thermal correction to Energy=                    0.195886
 Thermal correction to Enthalpy=                  0.196831
 Thermal correction to Gibbs Free Energy=         0.147018
 Sum of electronic and zero-point Energies=           -512.684230
 Sum of electronic and thermal Energies=              -512.673362
 Sum of electronic and thermal Enthalpies=            -512.672417
 Sum of electronic and thermal Free Energies=         -512.722230

                     E (Thermal)             CV                S
                      KCal/Mol        Cal/Mol-Kelvin    Cal/Mol-Kelvin
 Total                  122.921             40.240            104.840
 Electronic               0.000              0.000              0.000
 Translational            0.889              2.981             40.987
 Rotational               0.889              2.981             30.298
 Vibrational            121.143             34.278             33.554
 Vibration     1          0.594              1.983              5.647
 Vibration     2          0.596              1.976              4.633
 Vibration     3          0.598              1.970              4.245
 Vibration     4          0.603              1.951              3.502
 Vibration     5          0.610              1.931              3.068
 Vibration     6          0.645              1.816              1.987
 Vibration     7          0.707              1.631              1.300
 Vibration     8          0.724              1.583              1.182
 Vibration     9          0.766              1.470              0.963
 Vibration    10          0.775              1.447              0.923
 Vibration    11          0.794              1.398              0.848
 Vibration    12          0.831              1.306              0.725
 Vibration    13          0.873              1.210              0.615
 Vibration    14          0.925              1.099              0.507

                           ! Non-Optimized Parameters !
 Normal termination of Gaussian 16 at Tue Dec  8 19:26:57 2020.

 ----------------------------------------------------------------------
 # B3LYP/6-311++G(d,p) empiricaldispersion=gd3bj scf=xqc pop=npa geom=c
 heck
 ----------------------------------------------------------------------

 --------------------------------------
 CID_83528919_JID_1190_Energie_neutraal
 --------------------------------------
 Structure from the checkpoint file:  "JID_1190.chk"
 Charge =  0 Multiplicity = 1

 SCF Done:  E(RB3LYP) =  -513.031247239     A.U. after   14 cycles
 Normal termination of Gaussian 16 at Tue Dec  8 19:28:48 2020.

 ----------------------------------------------------------------------
 # B3LYP/6-311++G(d,p) empiricaldispersion=gd3bj scf=xqc pop=npa geom=c
 heck
 ----------------------------------------------------------------------

 ------------------------------------
 CID_83528919_JID_1190_Energie_kation
 ------------------------------------
 Structure from the checkpoint file:  "JID_1190.chk"
 Charge =  1 Multiplicity = 2

 SCF Done:  E(UB3LYP) =  -512.726445111     A.U. after   26 cycles
 Normal termination of Gaussian 16 at Tue Dec  8 19:33:39 2020.
 Gaussian 16:  ES64L-G16RevA.03 25-Dec-2016

 ----------------------------------------------------------------------
 # B3LYP/6-311++G(d,p) empiricaldispersion=gd3bj scf=xqc pop=npa geom=c
 heck
 ----------------------------------------------------------------------

 -----------------------------------
 CID_83528919_JID_1190_Energie_anion
 -----------------------------------
 Structure from the checkpoint file:  "JID_1190.chk"
 Charge = -1 Multiplicity = 2

                         Standard orientation:
 ---------------------------------------------------------------------
 Center     Atomic      Atomic             Coordinates (Angstroms)
 Number     Number       Type             X           Y           Z
 ---------------------------------------------------------------------
      1          6           0       -1.541701    0.602884   -0.960726
      2          6           0       -2.730886    0.943775   -0.355492
      3          7           0       -2.968997    0.029628    0.645300
      4          6           0       -1.957743   -0.896720    0.689609
      5          6           0       -1.049311   -0.563791   -0.296652
      6          7           0        0.151473   -1.257085   -0.584388
      7          6           0        1.406206   -1.009024   -0.066955
      8          8           0        2.394838   -1.550031   -0.546223
      9          6           0        1.513284   -0.028286    1.088465
     10          6           0        2.309073    1.220172    0.651461
     11          7           0        1.728670    1.989620   -0.449823
     12          1           0       -1.072155    1.110643   -1.791413
     13          1           0       -3.422718    1.749454   -0.551206
     14          1           0       -3.770971    0.037226    1.256105
     15          1           0       -1.947513   -1.703658    1.406564
     16          1           0        0.175517   -1.866727   -1.394970
     17          1           0        0.529638    0.263535    1.465699
     18          1           0        2.051411   -0.539150    1.895838
     19          1           0        2.420471    1.885715    1.515762
     20          1           0        3.313321    0.906714    0.350125
     21          1           0        0.745281    2.179254   -0.258596
     22          1           0        1.747451    1.428048   -1.300010
 ---------------------------------------------------------------------

 SCF Done:  E(UB3LYP) =  -513.024413454     A.U. after   29 cycles

 The electronic state is 2-A.
 Alpha  occ. eigenvalues --  -18.99534 -14.25339 -14.24637 -14.20149 -10.17940
 Alpha  occ. eigenvalues --  -10.10603 -10.09746 -10.09324 -10.09300 -10.07954
 Alpha  occ. eigenvalues --  -10.06097  -0.94657  -0.87869  -0.82681  -0.79390
 Alpha  occ. eigenvalues --   -0.67282  -0.65892  -0.62526  -0.55121  -0.51266
 Alpha  occ. eigenvalues --   -0.48526  -0.46242  -0.45027  -0.41773  -0.37821
 Alpha  occ. eigenvalues --   -0.37373  -0.35904  -0.34590  -0.32783  -0.32271
 Alpha  occ. eigenvalues --   -0.31235  -0.30848  -0.30768  -0.28080  -0.27169
 Alpha  occ. eigenvalues --   -0.26088  -0.17309  -0.17047  -0.15556  -0.14710
 Alpha  occ. eigenvalues --   -0.12180   0.04480
 Alpha virt. eigenvalues --    0.07242   0.07731   0.08114   0.09617   0.09997
 Alpha virt. eigenvalues --    0.10381   0.10550   0.11181   0.11661   0.12609
 Alpha virt. eigenvalues --    0.13727   0.13972   0.14894   0.15323   0.15898

  Beta  occ. eigenvalues --  -18.99529 -14.25259 -14.24632 -14.20140 -10.17935
  Beta  occ. eigenvalues --  -10.10598 -10.09747 -10.09299 -10.09273 -10.07946
  Beta  occ. eigenvalues --  -10.06090  -0.94647  -0.87782  -0.82661  -0.79374
  Beta  occ. eigenvalues --   -0.67203  -0.65862  -0.62468  -0.55097  -0.51188
  Beta  occ. eigenvalues --   -0.48442  -0.46217  -0.44916  -0.41760  -0.37746
  Beta  occ. eigenvalues --   -0.37358  -0.35880  -0.34567  -0.32693  -0.32225
  Beta  occ. eigenvalues --   -0.31202  -0.30821  -0.30722  -0.28062  -0.27145
  Beta  occ. eigenvalues --   -0.26075  -0.17295  -0.17025  -0.15544  -0.14683
  Beta  occ. eigenvalues --   -0.12166
  Beta virt. eigenvalues --    0.07016   0.07815   0.08650   0.08878   0.10039
  Beta virt. eigenvalues --    0.10566   0.10616   0.10664   0.11692   0.12161
  Beta virt. eigenvalues --    0.12717   0.13890   0.14186   0.14966   0.15387

 Mulliken charges and spin densities:
               1          2
     1  C   -0.790701   1.243942
     2  C    1.250231  -1.787805
     3  N    0.200429  -0.284803
     4  C   -0.118431   0.294351
     5  C    1.307967  -2.148839
     6  N   -0.170870   0.078489
     7  C    0.001863  -0.252294
     8  O   -0.345190   0.011055
     9  C   -0.162604   0.231322
    10  C   -0.179946  -0.358057
    11  N   -0.347641  -0.012670
    12  H   -0.057333   0.215862
    13  H   -0.920602   1.082887
    14  H   -0.978860   1.339058
    15  H   -0.629104   0.797856
    16  H    0.259304   0.023768
    17  H    0.110440   0.086405
    18  H    0.013287   0.170107
    19  H   -0.002317   0.170374
    20  H    0.190329  -0.014826
    21  H    0.173043   0.071815
    22  H    0.196705   0.042003
 Sum of Mulliken charges =  -1.00000   1.00000

 Dipole moment (field-independent basis, Debye):
    X=              8.7717    Y=             -1.1231    Z=             -3.5608  Tot=              9.5333
 Quadrupole moment (field-independent basis, Debye-Ang):
   XX=           -153.9743   YY=           -102.4053   ZZ=            -94.2073
   XY=              7.4710   XZ=             19.0302   YZ=              3.1831

 Summary of Natural Population Analysis:

                                       Natural Population
                Natural  -----------------------------------------------
    Atom  No    Charge         Core      Valence    Rydberg      Total
 -----------------------------------------------------------------------
      C    1   -0.15857      0.99952     2.14828    0.01078     3.15857
      C    2   -0.01043      0.99957     1.99617    0.01469     3.01043
      N    3   -0.25602      0.99970     2.74467    0.01165     3.75602
      C    4   -0.01385      0.99950     1.99997    0.01438     3.01385
      C    5    0.01091      0.99946     1.97540    0.01423     2.98909
      N    6   -0.31640      0.99964     2.80638    0.01039     3.81640
      C    7    0.34760      0.99967     1.62914    0.02360     2.65240
      O    8   -0.33211      0.99988     3.32602    0.00622     4.33211
      C    9   -0.24614      0.99958     2.23772    0.00885     3.24614
      C   10   -0.08606      0.99965     2.07556    0.01085     3.08606
      N   11   -0.42088      0.99978     2.91213    0.00897     3.92088
      H   12    0.10425      0.00000     0.39474    0.00101     0.39575
      H   13    0.10577      0.00000     0.39073    0.00350     0.39423
      H   14    0.22009      0.00000     0.21605    0.06386     0.27991
      H   15    0.10633      0.00000     0.39134    0.00233     0.39367
      H   16    0.19320      0.00000     0.30424    0.00256     0.30680
      H   17    0.11009      0.00000     0.38806    0.00184     0.38991
      H   18    0.11045      0.00000     0.38844    0.00111     0.38955
      H   19    0.08930      0.00000     0.40958    0.00113     0.41070
      H   20    0.09413      0.00000     0.40454    0.00133     0.40587
      H   21    0.17659      0.00000     0.32078    0.00264     0.32341
      H   22    0.17176      0.00000     0.32614    0.00210     0.32824
 =======================================================================
   * Total *    0.00000     10.99593    29.78606    0.21801    41.00000

 Normal termination of Gaussian 16 at Tue Dec  8 19:39:04 2020.
