 Gaussian 16, Revision A.03,

 -----------------------------------------------------------
 # opt freq B3LYP/6-31G(d) empiricaldispersion=gd3bj scf=xqc
 -----------------------------------------------------------

 -------------------------------
 CID_151855433_JID_4744_neutraal
 -------------------------------
 Symbolic Z-matrix:
 Charge =  0 Multiplicity = 1

 SCF Done:  E(RB3LYP) =  -1007.09735804     A.U. after   15 cycles
 SCF Done:  E(RB3LYP) =  -1007.10751601     A.U. after   13 cycles
 SCF Done:  E(RB3LYP) =  -1007.10897747     A.U. after   13 cycles
 SCF Done:  E(RB3LYP) =  -1007.10865931     A.U. after   13 cycles
 SCF Done:  E(RB3LYP) =  -1007.10954086     A.U. after   12 cycles
 SCF Done:  E(RB3LYP) =  -1007.10959592     A.U. after   10 cycles
 SCF Done:  E(RB3LYP) =  -1007.10960336     A.U. after   10 cycles
 SCF Done:  E(RB3LYP) =  -1007.10960411     A.U. after    8 cycles
 Optimization completed.
    -- Stationary point found.
 Normal termination of Gaussian 16 at Thu Dec 10 10:27:46 2020.

 --------------------------------------------------------------------
 #N Geom=AllCheck Guess=TCheck SCRF=Check GenChk RB3LYP/6-31G(d) Freq
 --------------------------------------------------------------------

 Structure from the checkpoint file:  "JID_4744.chk"
 -------------------------------
 CID_151855433_JID_4744_neutraal
 -------------------------------
 Charge =  0 Multiplicity = 1

 SCF Done:  E(RB3LYP) =  -1007.10960411     A.U. after    1 cycles

  Exact polarizability: 171.918  -7.666 136.797  -7.488  -3.644  70.114
 Approx polarizability: 239.786 -10.347 243.036 -12.562  -5.483 110.862

                      1                      2                      3
                      A                      A                      A
 Frequencies --     49.8565                57.3012                74.3782
 Red. masses --      6.7196                 6.5842                 6.2082
 Frc consts  --      0.0098                 0.0127                 0.0202
 IR Inten    --      1.3287                 0.4676                 1.3747

                      4                      5                      6
                      A                      A                      A
 Frequencies --    134.1298               136.9100               202.2375
 Red. masses --      5.2552                 3.7538                 5.5119
 Frc consts  --      0.0557                 0.0415                 0.1328
 IR Inten    --      0.5401                 0.2550                 1.7245

                      7                      8                      9
                      A                      A                      A
 Frequencies --    247.6394               260.6899               348.1948
 Red. masses --      4.9311                 3.5581                 5.2862
 Frc consts  --      0.1782                 0.1425                 0.3776
 IR Inten    --      0.4153                 1.0618                 2.1047

                     10                     11                     12
                      A                      A                      A
 Frequencies --    367.4140               408.5551               427.5773
 Red. masses --      6.3615                 5.2354                 3.7920
 Frc consts  --      0.5060                 0.5149                 0.4085
 IR Inten    --      3.6815                 7.2210                 3.7358

                     13                     14                     15
                      A                      A                      A
 Frequencies --    439.7378               456.4205               496.5415
 Red. masses --      2.9342                 2.6172                 3.5301
 Frc consts  --      0.3343                 0.3212                 0.5128
 IR Inten    --      3.3898                 2.1598                 3.2925

                     16                     17                     18
                      A                      A                      A
 Frequencies --    513.7380               561.9504               620.2659
 Red. masses --      4.0644                 3.5379                 3.3586
 Frc consts  --      0.6320                 0.6582                 0.7613
 IR Inten    --      0.2347                57.8062                28.5028

                     19                     20                     21
                      A                      A                      A
 Frequencies --    664.4846               698.4868               700.4991
 Red. masses --      1.9872                 3.9467                 5.9360
 Frc consts  --      0.5170                 1.1345                 1.7162
 IR Inten    --     64.5106                44.3641                 3.7104

                     22                     23                     24
                      A                      A                      A
 Frequencies --    718.4712               759.5933               779.8243
 Red. masses --      4.1297                 1.2401                 4.3414
 Frc consts  --      1.2560                 0.4216                 1.5555
 IR Inten    --      5.6975                47.4114                23.3960

                     25                     26                     27
                      A                      A                      A
 Frequencies --    805.4534               849.6920               870.1102
 Red. masses --      5.1251                 3.8667                 1.3429
 Frc consts  --      1.9590                 1.6448                 0.5990
 IR Inten    --      5.4370                 2.1608                 0.0474

                     28                     29                     30
                      A                      A                      A
 Frequencies --    890.2498               938.5463               962.9232
 Red. masses --      3.9151                 1.3585                 1.9063
 Frc consts  --      1.8282                 0.7051                 1.0414
 IR Inten    --      0.9428                 4.0725                38.8335

                     31                     32                     33
                      A                      A                      A
 Frequencies --    970.9521               978.9892              1021.1748
 Red. masses --      2.2777                 1.2577                 2.0205
 Frc consts  --      1.2652                 0.7102                 1.2414
 IR Inten    --      9.4082                 0.1094                 3.2283

                     34                     35                     36
                      A                      A                      A
 Frequencies --   1065.4172              1078.5824              1090.8879
 Red. masses --      2.8045                 3.1015                 3.3933
 Frc consts  --      1.8756                 2.1258                 2.3792
 IR Inten    --     34.0880                10.3036                 5.7530

                     37                     38                     39
                      A                      A                      A
 Frequencies --   1138.9186              1166.3601              1197.5628
 Red. masses --      2.5629                 1.6753                 1.0964
 Frc consts  --      1.9587                 1.3428                 0.9264
 IR Inten    --    136.0060                 0.4024                 0.1892

                     40                     41                     42
                      A                      A                      A
 Frequencies --   1209.1642              1228.6422              1292.0146
 Red. masses --      2.3959                 2.3280                 1.4272
 Frc consts  --      2.0639                 2.0705                 1.4037
 IR Inten    --    145.5358                 6.2286                 9.0924

                     43                     44                     45
                      A                      A                      A
 Frequencies --   1308.9779              1314.6516              1345.9583
 Red. masses --      1.4048                 1.2058                 2.0827
 Frc consts  --      1.4182                 1.2279                 2.2230
 IR Inten    --      2.9390                 0.8067                12.3692

                     46                     47                     48
                      A                      A                      A
 Frequencies --   1348.8936              1405.8461              1414.6080
 Red. masses --      2.5769                 1.7983                 1.4223
 Frc consts  --      2.7625                 2.0940                 1.6769
 IR Inten    --     10.4329                26.3868                 5.4858

                     49                     50                     51
                      A                      A                      A
 Frequencies --   1457.5313              1488.9360              1498.1580
 Red. masses --      1.2757                 1.8409                 1.1697
 Frc consts  --      1.5967                 2.4046                 1.5468
 IR Inten    --     13.5392                13.5034                11.1273

                     52                     53                     54
                      A                      A                      A
 Frequencies --   1509.6951              1531.1499              1630.1753
 Red. masses --      1.1684                 2.2005                 5.9317
 Frc consts  --      1.5690                 3.0396                 9.2875
 IR Inten    --     16.6808                20.8433                 5.3192

                     55                     56                     57
                      A                      A                      A
 Frequencies --   1658.0656              1846.2793              3018.4350
 Red. masses --      5.6214                 9.6666                 1.0661
 Frc consts  --      9.1054                19.4142                 5.7229
 IR Inten    --      7.8647               220.5464                15.9350

                     58                     59                     60
                      A                      A                      A
 Frequencies --   3078.6874              3087.6469              3144.5295
 Red. masses --      1.0631                 1.0946                 1.1040
 Frc consts  --      5.9367                 6.1485                 6.4316
 IR Inten    --     19.1649                19.4388                 5.9830

                     61                     62                     63
                      A                      A                      A
 Frequencies --   3172.8726              3185.2219              3198.6323
 Red. masses --      1.0878                 1.0874                 1.0917
 Frc consts  --      6.4519                 6.4998                 6.5807
 IR Inten    --     10.0397                 1.2379                18.8993

                     64                     65                     66
                      A                      A                      A
 Frequencies --   3212.9648              3456.9826              3673.7286
 Red. masses --      1.0973                 1.0751                 1.0639
 Frc consts  --      6.6741                 7.5702                 8.4602
 IR Inten    --     27.7937                 7.8246                51.0387

 - Thermochemistry -
 -------------------
 Temperature   298.150 Kelvin.  Pressure   1.00000 Atm.
 Atom     1 has atomic number  6 and mass  12.00000

 Molecular mass:   210.04630 amu.
 Principal axes and moments of inertia in atomic units:
                           1         2         3
     Eigenvalues --  1359.062814739.430465684.80942
           X            0.99993  -0.01083  -0.00566
           Y            0.01076   0.99985  -0.01335
           Z            0.00580   0.01329   0.99989
 This molecule is an asymmetric top.
 Rotational symmetry number  1.
 Warning -- assumption of classical behavior for rotation
           may cause significant error
 Rotational temperatures (Kelvin)      0.06373     0.01828     0.01524
 Rotational constants (GHZ):           1.32793     0.38079     0.31747
 Zero-point vibrational energy     489686.4 (Joules/Mol)
                                  117.03785 (Kcal/Mol)
 Warning -- explicit consideration of  18 degrees of freedom as
           vibrations may cause significant error
 Vibrational temperatures:     71.73    82.44   107.01   192.98   196.98
          (Kelvin)            290.97   356.30   375.07   500.97   528.63
                              587.82   615.19   632.68   656.69   714.41
                              739.15   808.52   892.42   956.05  1004.97
                             1007.86  1033.72  1092.89  1121.99  1158.87
                             1222.52  1251.89  1280.87  1350.36  1385.43
                             1396.98  1408.55  1469.24  1532.90  1551.84
                             1569.54  1638.65  1678.13  1723.03  1739.72
                             1767.74  1858.92  1883.33  1891.49  1936.53
                             1940.76  2022.70  2035.31  2097.06  2142.25
                             2155.52  2172.11  2202.98  2345.46  2385.59
                             2656.38  4342.85  4429.54  4442.44  4524.28
                             4565.06  4582.82  4602.12  4622.74  4973.83
                             5285.68

 Zero-point correction=                           0.186512 (Hartree/Particle)
 Thermal correction to Energy=                    0.198598
 Thermal correction to Enthalpy=                  0.199542
 Thermal correction to Gibbs Free Energy=         0.147267
 Sum of electronic and zero-point Energies=          -1006.923092
 Sum of electronic and thermal Energies=             -1006.911006
 Sum of electronic and thermal Enthalpies=           -1006.910062
 Sum of electronic and thermal Free Energies=        -1006.962337

                     E (Thermal)             CV                S
                      KCal/Mol        Cal/Mol-Kelvin    Cal/Mol-Kelvin
 Total                  124.622             46.768            110.023
 Electronic               0.000              0.000              0.000
 Translational            0.889              2.981             41.930
 Rotational               0.889              2.981             31.971
 Vibrational            122.845             40.806             36.121
 Vibration     1          0.595              1.978              4.823
 Vibration     2          0.596              1.975              4.548
 Vibration     3          0.599              1.966              4.034
 Vibration     4          0.613              1.919              2.886
 Vibration     5          0.614              1.916              2.847
 Vibration     6          0.639              1.837              2.113
 Vibration     7          0.661              1.767              1.747
 Vibration     8          0.669              1.745              1.657
 Vibration     9          0.726              1.579              1.174
 Vibration    10          0.740              1.539              1.091
 Vibration    11          0.773              1.452              0.932
 Vibration    12          0.789              1.410              0.867
 Vibration    13          0.800              1.384              0.827
 Vibration    14          0.815              1.347              0.777
 Vibration    15          0.852              1.258              0.667
 Vibration    16          0.869              1.220              0.625
 Vibration    17          0.918              1.114              0.520
 Vibration    18          0.980              0.989              0.416

                           ! Non-Optimized Parameters !
 Normal termination of Gaussian 16 at Thu Dec 10 10:34:16 2020.

 ----------------------------------------------------------------------
 # B3LYP/6-311++G(d,p) empiricaldispersion=gd3bj scf=xqc pop=npa geom=c
 heck
 ----------------------------------------------------------------------

 ---------------------------------------
 CID_151855433_JID_4744_Energie_neutraal
 ---------------------------------------
 Structure from the checkpoint file:  "JID_4744.chk"
 Charge =  0 Multiplicity = 1

 SCF Done:  E(RB3LYP) =  -1007.31541809     A.U. after   16 cycles
 Normal termination of Gaussian 16 at Thu Dec 10 10:37:48 2020.

 ----------------------------------------------------------------------
 # B3LYP/6-311++G(d,p) empiricaldispersion=gd3bj scf=xqc pop=npa geom=c
 heck
 ----------------------------------------------------------------------

 -------------------------------------
 CID_151855433_JID_4744_Energie_kation
 -------------------------------------
 Structure from the checkpoint file:  "JID_4744.chk"
 Charge =  1 Multiplicity = 2

 SCF Done:  E(UB3LYP) =  -1007.03724329     A.U. after   26 cycles
 Normal termination of Gaussian 16 at Thu Dec 10 10:46:10 2020.
 Gaussian 16:  ES64L-G16RevA.03 25-Dec-2016

 ----------------------------------------------------------------------
 # B3LYP/6-311++G(d,p) empiricaldispersion=gd3bj scf=xqc pop=npa geom=c
 heck
 ----------------------------------------------------------------------

 ------------------------------------
 CID_151855433_JID_4744_Energie_anion
 ------------------------------------
 Structure from the checkpoint file:  "JID_4744.chk"
 Charge = -1 Multiplicity = 2

                         Standard orientation:
 ---------------------------------------------------------------------
 Center     Atomic      Atomic             Coordinates (Angstroms)
 Number     Number       Type             X           Y           Z
 ---------------------------------------------------------------------
      1          6           0       -0.242805   -1.036198    0.426726
      2          6           0        1.211137   -0.693769    0.159343
      3          6           0        2.131878   -1.744980    0.080941
      4          6           0        3.482246   -1.518105   -0.168695
      5          6           0        3.937981   -0.211099   -0.353395
      6          6           0        3.039219    0.848494   -0.299308
      7          6           0        1.681155    0.613088   -0.047167
      8         16           0        0.602410    2.017025    0.072646
      9          7           0       -0.895361    1.111365   -0.217821
     10          7           0       -1.020977    0.127294    0.864924
     11          6           0       -2.434917   -0.170282    1.087950
     12          6           0       -3.182419   -0.560351   -0.185342
     13          8           0       -3.153345   -1.651365   -0.708596
     14          8           0       -3.852118    0.495224   -0.711406
     15          1           0       -0.296927   -1.773731    1.235259
     16          1           0       -0.676229   -1.497634   -0.473086
     17          1           0        1.774611   -2.761891    0.229351
     18          1           0        4.174095   -2.353662   -0.216042
     19          1           0        4.988126   -0.017602   -0.551875
     20          1           0        3.383154    1.866172   -0.463547
     21          1           0       -1.640439    1.797783   -0.073243
     22          1           0       -2.488568   -1.007914    1.787195
     23          1           0       -2.906885    0.705891    1.544446
     24          1           0       -4.232272    0.187903   -1.556831
 ---------------------------------------------------------------------

 SCF Done:  E(UB3LYP) =  -1007.30715091     A.U. after   33 cycles
 SCF Done:  E(UB3LYP) =  -1007.30715091     a.u. after    1 cycles

 The electronic state is 2-A.
 Alpha  occ. eigenvalues --  -88.74929 -19.05853 -19.00771 -14.23873 -14.23803
 Alpha  occ. eigenvalues --  -10.19497 -10.10499 -10.09980 -10.09588 -10.08388
 Alpha  occ. eigenvalues --  -10.07911 -10.07814 -10.07780 -10.07488  -7.83337
 Alpha  occ. eigenvalues --   -5.79795  -5.79402  -5.78667  -0.99940  -0.91259
 Alpha  occ. eigenvalues --   -0.88298  -0.76590  -0.73244  -0.67996  -0.66143
 Alpha  occ. eigenvalues --   -0.62565  -0.57025  -0.55108  -0.50817  -0.49887
 Alpha  occ. eigenvalues --   -0.46058  -0.41674  -0.41148  -0.39399  -0.38347
 Alpha  occ. eigenvalues --   -0.36761  -0.35500  -0.34879  -0.33463  -0.32150
 Alpha  occ. eigenvalues --   -0.31431  -0.30040  -0.29498  -0.28816  -0.27784
 Alpha  occ. eigenvalues --   -0.26383  -0.25449  -0.24588  -0.21813  -0.21552
 Alpha  occ. eigenvalues --   -0.18470  -0.17234  -0.15493  -0.11078  -0.09177
 Alpha  occ. eigenvalues --    0.04720
 Alpha virt. eigenvalues --    0.06818   0.07710   0.07768   0.08203   0.08550
 Alpha virt. eigenvalues --    0.09284   0.09733   0.09936   0.10199   0.11997
 Alpha virt. eigenvalues --    0.12531   0.13276   0.13687   0.14537   0.15479

  Beta  occ. eigenvalues --  -88.74886 -19.05778 -19.00742 -14.23876 -14.23617
  Beta  occ. eigenvalues --  -10.19468 -10.10450 -10.09931 -10.09577 -10.08351
  Beta  occ. eigenvalues --  -10.07896 -10.07823 -10.07769 -10.07439  -7.83298
  Beta  occ. eigenvalues --   -5.79655  -5.79381  -5.78641  -0.99835  -0.91168
  Beta  occ. eigenvalues --   -0.88153  -0.76508  -0.72980  -0.67908  -0.66020
  Beta  occ. eigenvalues --   -0.62463  -0.56833  -0.54995  -0.50727  -0.49759
  Beta  occ. eigenvalues --   -0.45948  -0.41587  -0.41055  -0.39255  -0.38279
  Beta  occ. eigenvalues --   -0.36683  -0.35426  -0.34803  -0.33391  -0.32014
  Beta  occ. eigenvalues --   -0.31327  -0.29950  -0.29411  -0.28702  -0.27592
  Beta  occ. eigenvalues --   -0.26246  -0.25292  -0.24505  -0.21683  -0.21392
  Beta  occ. eigenvalues --   -0.18348  -0.17047  -0.15370  -0.10930  -0.09013
  Beta virt. eigenvalues --    0.06776   0.07680   0.07863   0.08346   0.08718
  Beta virt. eigenvalues --    0.09242   0.09762   0.10276   0.10453   0.10865
  Beta virt. eigenvalues --    0.12314   0.12742   0.13356   0.13794   0.14579

 Mulliken charges and spin densities:
               1          2
     1  C   -2.099292   1.171861
     2  C    1.580203  -0.981125
     3  C   -0.188878  -0.047544
     4  C   -0.520897   0.036929
     5  C   -0.176201   0.035327
     6  C   -0.154083  -0.077551
     7  C    0.042837   0.051882
     8  S    0.080039   0.003788
     9  N    0.087481  -0.189919
    10  N   -0.011765   0.207118
    11  C    1.481422  -1.869777
    12  C    0.141825  -0.125176
    13  O   -0.318373   0.040072
    14  O   -0.210744   0.085708
    15  H    0.026401   0.142239
    16  H    0.184709   0.025168
    17  H    0.114461   0.029484
    18  H    0.125112  -0.002680
    19  H    0.130141   0.001299
    20  H    0.096252   0.052109
    21  H   -0.070980   0.382078
    22  H   -0.370170   0.537086
    23  H   -0.468643   0.703408
    24  H   -0.500855   0.788216
 Sum of Mulliken charges =  -1.00000   1.00000

 Dipole moment (field-independent basis, Debye):
    X=              8.4240    Y=             -2.1440    Z=              0.5108  Tot=              8.7075
 Quadrupole moment (field-independent basis, Debye-Ang):
   XX=           -150.6453   YY=           -116.1559   ZZ=           -117.2776
   XY=             -0.1494   XZ=             -5.6989   YZ=             -1.3880

 Summary of Natural Population Analysis:

                                       Natural Population
                Natural  -----------------------------------------------
    Atom  No    Charge         Core      Valence    Rydberg      Total
 -----------------------------------------------------------------------
      C    1   -0.09503      0.99957     2.08224    0.01322     3.09503
      C    2   -0.02256      0.99944     2.01244    0.01069     3.02256
      C    3   -0.09714      0.99952     2.08907    0.00855     3.09714
      C    4   -0.10634      0.99957     2.09768    0.00908     3.10634
      C    5   -0.10293      0.99957     2.09509    0.00827     3.10293
      C    6   -0.10906      0.99951     2.09868    0.01088     3.10906
      C    7   -0.08005      0.99937     2.06855    0.01213     3.08005
      S    8    0.22783      4.99953     2.74964    0.02300     7.77217
      N    9   -0.29367      0.99979     2.77875    0.01512     3.79367
      N   10   -0.18594      0.99973     2.66993    0.01628     3.68594
      C   11   -0.13478      0.99956     2.12214    0.01309     3.13478
      C   12    0.40094      0.99973     1.57321    0.02612     2.59906
      O   13   -0.30671      0.99987     3.30022    0.00663     4.30671
      O   14   -0.34360      0.99988     3.33586    0.00786     4.34360
      H   15    0.10103      0.00000     0.39763    0.00135     0.39897
      H   16    0.10381      0.00000     0.39435    0.00184     0.39619
      H   17    0.09739      0.00000     0.40159    0.00102     0.40261
      H   18    0.09513      0.00000     0.40397    0.00090     0.40487
      H   19    0.09556      0.00000     0.40363    0.00081     0.40444
      H   20    0.10080      0.00000     0.39801    0.00119     0.39920
      H   21    0.18872      0.00000     0.30732    0.00396     0.31128
      H   22    0.11302      0.00000     0.38457    0.00241     0.38698
      H   23    0.10916      0.00000     0.38816    0.00268     0.39084
      H   24    0.24441      0.00000     0.23592    0.01967     0.25559
 =======================================================================
   * Total *   -0.00000     17.99462    36.78864    0.21673    55.00000

 Normal termination of Gaussian 16 at Thu Dec 10 10:56:34 2020.
