 Gaussian 16, Revision A.03,

 -----------------------------------------------------------
 # opt freq B3LYP/6-31G(d) empiricaldispersion=gd3bj scf=xqc
 -----------------------------------------------------------

 ------------------------------
 CID_19426575_JID_2312_neutraal
 ------------------------------
 Symbolic Z-matrix:
 Charge =  0 Multiplicity = 1

 SCF Done:  E(RB3LYP) =  -505.042583854     A.U. after   13 cycles
 SCF Done:  E(RB3LYP) =  -505.045626109     A.U. after   11 cycles
 SCF Done:  E(RB3LYP) =  -505.045964128     A.U. after   11 cycles
 SCF Done:  E(RB3LYP) =  -505.046613668     A.U. after   11 cycles
 SCF Done:  E(RB3LYP) =  -505.047606482     A.U. after   11 cycles
 SCF Done:  E(RB3LYP) =  -505.048059062     A.U. after   10 cycles
 SCF Done:  E(RB3LYP) =  -505.048493248     A.U. after   11 cycles
 SCF Done:  E(RB3LYP) =  -505.049047327     A.U. after   10 cycles
 SCF Done:  E(RB3LYP) =  -505.048005291     A.U. after   11 cycles
 SCF Done:  E(RB3LYP) =  -505.049356955     A.U. after   10 cycles
 SCF Done:  E(RB3LYP) =  -505.049423628     A.U. after   10 cycles
 SCF Done:  E(RB3LYP) =  -505.049441827     A.U. after    9 cycles
 SCF Done:  E(RB3LYP) =  -505.049445549     A.U. after    8 cycles
 SCF Done:  E(RB3LYP) =  -505.049445656     A.U. after    8 cycles
 SCF Done:  E(RB3LYP) =  -505.049446325     A.U. after    7 cycles
 SCF Done:  E(RB3LYP) =  -505.049446390     A.U. after    6 cycles
 Optimization completed.
    -- Stationary point found.
 Normal termination of Gaussian 16 at Wed Dec  9 17:07:53 2020.

 --------------------------------------------------------------------
 #N Geom=AllCheck Guess=TCheck SCRF=Check GenChk RB3LYP/6-31G(d) Freq
 --------------------------------------------------------------------

 Structure from the checkpoint file:  "JID_2312.chk"
 ------------------------------
 CID_19426575_JID_2312_neutraal
 ------------------------------
 Charge =  0 Multiplicity = 1

 SCF Done:  E(RB3LYP) =  -505.049446390     A.U. after    1 cycles

  Exact polarizability: 129.707   1.407 124.882   0.687  -0.713 110.304
 Approx polarizability: 165.566   0.865 167.806   0.274  -0.019 162.248

                      1                      2                      3
                      A                      A                      A
 Frequencies --     72.2575                82.1309                87.8440
 Red. masses --      2.8498                 2.4952                 2.7037
 Frc consts  --      0.0088                 0.0099                 0.0123
 IR Inten    --      0.3322                 0.2141                 0.8978

                      4                      5                      6
                      A                      A                      A
 Frequencies --    114.8783               136.0996               160.9175
 Red. masses --      2.5925                 2.4066                 2.7484
 Frc consts  --      0.0202                 0.0263                 0.0419
 IR Inten    --      0.0324                 0.0736                 0.2218

                      7                      8                      9
                      A                      A                      A
 Frequencies --    179.0050               234.8879               239.4493
 Red. masses --      1.9643                 1.3169                 1.4029
 Frc consts  --      0.0371                 0.0428                 0.0474
 IR Inten    --      0.2904                 0.5617                 0.2000

                     10                     11                     12
                      A                      A                      A
 Frequencies --    252.3879               255.6239               270.4824
 Red. masses --      1.1789                 1.3082                 1.1904
 Frc consts  --      0.0442                 0.0504                 0.0513
 IR Inten    --      0.6161                 0.0305                 0.5219

                     13                     14                     15
                      A                      A                      A
 Frequencies --    279.7044               294.7183               304.9788
 Red. masses --      1.1871                 1.5265                 1.9682
 Frc consts  --      0.0547                 0.0781                 0.1079
 IR Inten    --      0.4302                 0.5078                 1.6155

                     16                     17                     18
                      A                      A                      A
 Frequencies --    323.4055               342.8883               360.1096
 Red. masses --      2.2443                 2.5656                 1.9894
 Frc consts  --      0.1383                 0.1777                 0.1520
 IR Inten    --      0.2676                 1.2210                 0.1840

                     19                     20                     21
                      A                      A                      A
 Frequencies --    376.6906               399.9031               445.1831
 Red. masses --      2.4273                 1.9282                 1.7552
 Frc consts  --      0.2029                 0.1817                 0.2050
 IR Inten    --     10.3284                 4.2963                 0.6996

                     22                     23                     24
                      A                      A                      A
 Frequencies --    453.9669               485.2813               528.4185
 Red. masses --      2.0589                 2.1904                 2.5213
 Frc consts  --      0.2500                 0.3039                 0.4148
 IR Inten    --      0.9050                 1.0132                 3.0850

                     25                     26                     27
                      A                      A                      A
 Frequencies --    578.2620               753.3503               795.0017
 Red. masses --      2.8750                 3.0270                 1.2479
 Frc consts  --      0.5664                 1.0122                 0.4647
 IR Inten    --      2.5127                 0.3203                10.0813

                     28                     29                     30
                      A                      A                      A
 Frequencies --    857.4928               864.5526               902.0615
 Red. masses --      3.3920                 3.4341                 2.5897
 Frc consts  --      1.4695                 1.5123                 1.2415
 IR Inten    --     44.9446                 2.7549                 1.8830

                     31                     32                     33
                      A                      A                      A
 Frequencies --    933.7057               967.5216              1003.8412
 Red. masses --      1.9911                 1.6926                 1.4706
 Frc consts  --      1.0227                 0.9335                 0.8731
 IR Inten    --      3.1195                 4.9852                 3.3778

                     34                     35                     36
                      A                      A                      A
 Frequencies --   1023.8162              1041.5160              1068.6660
 Red. masses --      1.7853                 2.2768                 1.7839
 Frc consts  --      1.1026                 1.4552                 1.2003
 IR Inten    --      3.1566                14.6900                25.9250

                     37                     38                     39
                      A                      A                      A
 Frequencies --   1074.4799              1078.6325              1083.8403
 Red. masses --      1.8647                 1.8955                 1.6680
 Frc consts  --      1.2684                 1.2993                 1.1544
 IR Inten    --     28.1367                40.5844                 5.0277

                     40                     41                     42
                      A                      A                      A
 Frequencies --   1087.9516              1136.2464              1137.3046
 Red. masses --      1.9888                 1.2581                 1.2525
 Frc consts  --      1.3870                 0.9570                 0.9545
 IR Inten    --     27.1424                 3.4761                 5.9949

                     43                     44                     45
                      A                      A                      A
 Frequencies --   1169.2315              1177.4080              1187.8439
 Red. masses --      1.9223                 2.0490                 1.4746
 Frc consts  --      1.5484                 1.6736                 1.2259
 IR Inten    --     15.6091                 2.4140                 5.7061

                     46                     47                     48
                      A                      A                      A
 Frequencies --   1201.0806              1234.8094              1262.6534
 Red. masses --      1.4914                 2.0371                 2.6200
 Frc consts  --      1.2676                 1.8301                 2.4610
 IR Inten    --      7.9715                 6.8202                 0.8028

                     49                     50                     51
                      A                      A                      A
 Frequencies --   1282.9746              1310.8970              1315.2536
 Red. masses --      2.8763                 2.4859                 2.3481
 Frc consts  --      2.7894                 2.5169                 2.3932
 IR Inten    --      7.2963                15.3723                12.7917

                     52                     53                     54
                      A                      A                      A
 Frequencies --   1337.5108              1370.2160              1380.1821
 Red. masses --      1.2651                 1.3880                 1.3058
 Frc consts  --      1.3334                 1.5354                 1.4656
 IR Inten    --     10.1122                 9.1535                 4.4892

                     55                     56                     57
                      A                      A                      A
 Frequencies --   1403.1685              1412.7009              1433.9568
 Red. masses --      1.4296                 1.2820                 1.2545
 Frc consts  --      1.6584                 1.5074                 1.5199
 IR Inten    --      2.8163                10.5149                 5.3044

                     58                     59                     60
                      A                      A                      A
 Frequencies --   1440.9556              1459.5215              1460.8622
 Red. masses --      1.2337                 1.2065                 1.1817
 Frc consts  --      1.5093                 1.5142                 1.4859
 IR Inten    --      0.7967                10.0808                 4.9533

                     61                     62                     63
                      A                      A                      A
 Frequencies --   1463.1532              1489.1561              1493.8723
 Red. masses --      1.1640                 1.1522                 1.1694
 Frc consts  --      1.4682                 1.5054                 1.5376
 IR Inten    --      8.0844                 1.1188                 0.2558

                     64                     65                     66
                      A                      A                      A
 Frequencies --   1508.9936              1515.6894              1516.1161
 Red. masses --      1.0617                 1.0583                 1.0627
 Frc consts  --      1.4244                 1.4324                 1.4392
 IR Inten    --      0.2037                 7.6700                 9.4884

                     67                     68                     69
                      A                      A                      A
 Frequencies --   1519.1725              1520.9976              1524.5836
 Red. masses --      1.0549                 1.0765                 1.0602
 Frc consts  --      1.4344                 1.4673                 1.4519
 IR Inten    --      3.1991                10.1382                 1.8281

                     70                     71                     72
                      A                      A                      A
 Frequencies --   1527.5892              1531.6234              1535.6538
 Red. masses --      1.0755                 1.0762                 1.0663
 Frc consts  --      1.4787                 1.4874                 1.4815
 IR Inten    --      1.7462                 1.0296                14.6418

                     73                     74                     75
                      A                      A                      A
 Frequencies --   1536.6842              1537.9515              1540.0827
 Red. masses --      1.0479                 1.0604                 1.0579
 Frc consts  --      1.4579                 1.4777                 1.4783
 IR Inten    --      7.3316                 0.6078                 3.6326

                     76                     77                     78
                      A                      A                      A
 Frequencies --   1545.2901              1551.8016              1552.4542
 Red. masses --      1.0507                 1.0491                 1.0524
 Frc consts  --      1.4783                 1.4885                 1.4944
 IR Inten    --      2.1535                 6.8433                15.3163

                     79                     80                     81
                      A                      A                      A
 Frequencies --   2897.2593              2926.6994              2929.5801
 Red. masses --      1.0729                 1.0620                 1.0615
 Frc consts  --      5.3060                 5.3597                 5.3674
 IR Inten    --     58.2675                48.2821                69.6603

                     82                     83                     84
                      A                      A                      A
 Frequencies --   2936.3683              2944.2087              2999.8052
 Red. masses --      1.0621                 1.0625                 1.0656
 Frc consts  --      5.3958                 5.4263                 5.6496
 IR Inten    --    234.0806                99.2904                53.6413

                     85                     86                     87
                      A                      A                      A
 Frequencies --   3041.6831              3045.4842              3051.1126
 Red. masses --      1.0603                 1.0520                 1.0393
 Frc consts  --      5.7798                 5.7487                 5.7005
 IR Inten    --     21.5132                23.4407                28.1441

                     88                     89                     90
                      A                      A                      A
 Frequencies --   3055.8723              3061.4382              3075.3699
 Red. masses --      1.0829                 1.0937                 1.0705
 Frc consts  --      5.9582                 6.0394                 5.9650
 IR Inten    --     22.8454                39.9673                39.8482

                     91                     92                     93
                      A                      A                      A
 Frequencies --   3075.7111              3082.3936              3090.7931
 Red. masses --      1.0748                 1.0711                 1.0783
 Frc consts  --      5.9908                 5.9957                 6.0693
 IR Inten    --     14.7718                47.4539                40.2879

                     94                     95                     96
                      A                      A                      A
 Frequencies --   3103.9999              3109.3720              3112.0127
 Red. masses --      1.1018                 1.1003                 1.0977
 Frc consts  --      6.2547                 6.2678                 6.2633
 IR Inten    --     32.7755                16.3383                44.3153

                     97                     98                     99
                      A                      A                      A
 Frequencies --   3120.1407              3129.3460              3133.4645
 Red. masses --      1.1036                 1.0976                 1.0990
 Frc consts  --      6.3304                 6.3331                 6.3578
 IR Inten    --     37.1157                59.3950                48.3717

                    100                    101                    102
                      A                      A                      A
 Frequencies --   3135.2453              3151.0797              3177.6348
 Red. masses --      1.0988                 1.0984                 1.0938
 Frc consts  --      6.3637                 6.4259                 6.5075
 IR Inten    --      2.8661                 7.3604                 8.7578

 - Thermochemistry -
 -------------------
 Temperature   298.150 Kelvin.  Pressure   1.00000 Atm.
 Atom     1 has atomic number  6 and mass  12.00000

 Molecular mass:   172.19395 amu.
 Principal axes and moments of inertia in atomic units:
                           1         2         3
     Eigenvalues --  1843.926112364.959933211.90496
           X            0.99997   0.00746   0.00127
           Y           -0.00745   0.99996  -0.00403
           Z           -0.00130   0.00402   0.99999
 This molecule is an asymmetric top.
 Rotational symmetry number  1.
 Warning -- assumption of classical behavior for rotation
           may cause significant error
 Rotational temperatures (Kelvin)      0.04697     0.03662     0.02697
 Rotational constants (GHZ):           0.97875     0.76312     0.56189
 Zero-point vibrational energy     889469.1 (Joules/Mol)
                                  212.58822 (Kcal/Mol)
 Warning -- explicit consideration of  25 degrees of freedom as
           vibrations may cause significant error
 Vibrational temperatures:    103.96   118.17   126.39   165.28   195.82
          (Kelvin)            231.52   257.55   337.95   344.51   363.13
                              367.79   389.16   402.43   424.03   438.80
                              465.31   493.34   518.12   541.97   575.37
                              640.52   653.16   698.21   760.28   831.99
                             1083.90  1143.83  1233.74  1243.90  1297.87
                             1343.39  1392.05  1444.30  1473.04  1498.51
                             1537.57  1545.94  1551.91  1559.40  1565.32
                             1634.81  1636.33  1682.26  1694.03  1709.04
                             1728.09  1776.62  1816.68  1845.91  1886.09
                             1892.36  1924.38  1971.44  1985.77  2018.85
                             2032.56  2063.14  2073.21  2099.93  2101.85
                             2105.15  2142.56  2149.35  2171.11  2180.74
                             2181.35  2185.75  2188.38  2193.54  2197.86
                             2203.66  2209.46  2210.95  2212.77  2215.84
                             2223.33  2232.70  2233.64  4168.51  4210.87
                             4215.01  4224.78  4236.06  4316.05  4376.30
                             4381.77  4389.87  4396.72  4404.73  4424.77
                             4425.26  4434.88  4446.96  4465.96  4473.69
                             4477.49  4489.19  4502.43  4508.36  4510.92
                             4533.70  4571.91

 Zero-point correction=                           0.338781 (Hartree/Particle)
 Thermal correction to Energy=                    0.354132
 Thermal correction to Enthalpy=                  0.355076
 Thermal correction to Gibbs Free Energy=         0.298316
 Sum of electronic and zero-point Energies=           -504.710666
 Sum of electronic and thermal Energies=              -504.695314
 Sum of electronic and thermal Enthalpies=            -504.694370
 Sum of electronic and thermal Free Energies=         -504.751130

                     E (Thermal)             CV                S
                      KCal/Mol        Cal/Mol-Kelvin    Cal/Mol-Kelvin
 Total                  222.221             58.113            119.461
 Electronic               0.000              0.000              0.000
 Translational            0.889              2.981             41.338
 Rotational               0.889              2.981             31.016
 Vibrational            220.444             52.151             47.107
 Vibration     1          0.598              1.967              4.091
 Vibration     2          0.600              1.961              3.839
 Vibration     3          0.601              1.958              3.708
 Vibration     4          0.608              1.937              3.185
 Vibration     5          0.614              1.917              2.858
 Vibration     6          0.622              1.890              2.539
 Vibration     7          0.629              1.868              2.339
 Vibration     8          0.655              1.787              1.841
 Vibration     9          0.657              1.780              1.807
 Vibration    10          0.664              1.759              1.714
 Vibration    11          0.666              1.753              1.691
 Vibration    12          0.674              1.728              1.593
 Vibration    13          0.680              1.711              1.535
 Vibration    14          0.689              1.684              1.447
 Vibration    15          0.696              1.664              1.389
 Vibration    16          0.708              1.629              1.293
 Vibration    17          0.722              1.590              1.199
 Vibration    18          0.735              1.554              1.122
 Vibration    19          0.747              1.520              1.052
 Vibration    20          0.766              1.470              0.963
 Vibration    21          0.805              1.372              0.810
 Vibration    22          0.812              1.352              0.784
 Vibration    23          0.841              1.283              0.696
 Vibration    24          0.883              1.187              0.591
 Vibration    25          0.935              1.078              0.489

 Optimization completed.
    -- Stationary point found.
 Normal termination of Gaussian 16 at Wed Dec  9 17:19:57 2020.

 ----------------------------------------------------------------------
 # B3LYP/6-311++G(d,p) empiricaldispersion=gd3bj scf=xqc pop=npa geom=c
 heck
 ----------------------------------------------------------------------

 --------------------------------------
 CID_19426575_JID_2312_Energie_neutraal
 --------------------------------------
 Structure from the checkpoint file:  "JID_2312.chk"
 Charge =  0 Multiplicity = 1

 SCF Done:  E(RB3LYP) =  -505.191815435     A.U. after   13 cycles
 Normal termination of Gaussian 16 at Wed Dec  9 17:25:38 2020.

 ----------------------------------------------------------------------
 # B3LYP/6-311++G(d,p) empiricaldispersion=gd3bj scf=xqc pop=npa geom=c
 heck
 ----------------------------------------------------------------------

 ------------------------------------
 CID_19426575_JID_2312_Energie_kation
 ------------------------------------
 Structure from the checkpoint file:  "JID_2312.chk"
 Charge =  1 Multiplicity = 2

 SCF Done:  E(UB3LYP) =  -504.918023095     A.U. after   20 cycles
 Normal termination of Gaussian 16 at Wed Dec  9 17:37:35 2020.
 Gaussian 16:  ES64L-G16RevA.03 25-Dec-2016

 ----------------------------------------------------------------------
 # B3LYP/6-311++G(d,p) empiricaldispersion=gd3bj scf=xqc pop=npa geom=c
 heck
 ----------------------------------------------------------------------

 -----------------------------------
 CID_19426575_JID_2312_Energie_anion
 -----------------------------------
 Structure from the checkpoint file:  "JID_2312.chk"
 Charge = -1 Multiplicity = 2

                         Standard orientation:
 ---------------------------------------------------------------------
 Center     Atomic      Atomic             Coordinates (Angstroms)
 Number     Number       Type             X           Y           Z
 ---------------------------------------------------------------------
      1          6           0       -2.658921   -1.342834   -0.980455
      2          6           0       -1.141832   -1.110992   -0.990658
      3          6           0       -0.467902   -0.935220    0.393967
      4          6           0       -1.006123   -1.996188    1.377710
      5          6           0        1.065396   -1.194834    0.329431
      6          7           0        1.957662   -0.130395   -0.126104
      7          6           0        3.337388   -0.476005    0.191648
      8          6           0        1.824954    0.195563   -1.540501
      9          6           0       -0.775898    0.456890    1.006265
     10          7           0       -0.594293    1.603185    0.106030
     11          6           0       -1.849737    2.235017   -0.266715
     12          6           0        0.363342    2.579112    0.607740
     13          1           0       -2.923738   -2.325562   -0.577508
     14          1           0       -3.055483   -1.290240   -2.000688
     15          1           0       -3.188361   -0.590510   -0.384713
     16          1           0       -0.665859   -1.956696   -1.504441
     17          1           0       -0.928372   -0.224713   -1.592137
     18          1           0       -0.775828   -3.010556    1.029843
     19          1           0       -0.553954   -1.872666    2.369023
     20          1           0       -2.090192   -1.922033    1.499797
     21          1           0        1.386269   -1.423157    1.353039
     22          1           0        1.228962   -2.123865   -0.256866
     23          1           0        3.687490   -1.393335   -0.322786
     24          1           0        3.997852    0.347152   -0.100434
     25          1           0        3.444106   -0.633563    1.270359
     26          1           0        1.934073   -0.689721   -2.197102
     27          1           0        0.856880    0.663494   -1.714778
     28          1           0        2.602788    0.916345   -1.814159
     29          1           0       -1.810128    0.447280    1.383237
     30          1           0       -0.138010    0.581733    1.890450
     31          1           0       -2.383763    2.687893    0.592670
     32          1           0       -1.657809    3.027777   -0.998246
     33          1           0       -2.518491    1.505844   -0.732211
     34          1           0        0.026335    3.081370    1.535997
     35          1           0        1.312186    2.071950    0.792889
     36          1           0        0.525459    3.353204   -0.151318
 ---------------------------------------------------------------------

 SCF Done:  E(UB3LYP) =  -505.175088437     A.U. after   26 cycles

 The electronic state is 2-A.
 Alpha  occ. eigenvalues --  -14.20142 -14.19782 -10.08505 -10.08468 -10.08360
 Alpha  occ. eigenvalues --  -10.08200 -10.07850 -10.07420 -10.07397 -10.05684
 Alpha  occ. eigenvalues --  -10.05556 -10.05535  -0.82314  -0.81195  -0.71426
 Alpha  occ. eigenvalues --   -0.63746  -0.60203  -0.59792  -0.59426  -0.58563
 Alpha  occ. eigenvalues --   -0.53440  -0.49426  -0.48596  -0.42750  -0.38542
 Alpha  occ. eigenvalues --   -0.38139  -0.37227  -0.36355  -0.35191  -0.34165
 Alpha  occ. eigenvalues --   -0.33053  -0.32071  -0.30316  -0.30089  -0.29382
 Alpha  occ. eigenvalues --   -0.29091  -0.28264  -0.27857  -0.27465  -0.26417
 Alpha  occ. eigenvalues --   -0.25998  -0.25312  -0.24686  -0.24351  -0.21638
 Alpha  occ. eigenvalues --   -0.21031  -0.20925  -0.11590  -0.10982   0.04559
 Alpha virt. eigenvalues --    0.06680   0.07155   0.07634   0.08789   0.09051
 Alpha virt. eigenvalues --    0.09349   0.09606   0.09853   0.11288   0.11689
 Alpha virt. eigenvalues --    0.11742   0.12124   0.12481   0.12700   0.12867

  Beta  occ. eigenvalues --  -14.20132 -14.19774 -10.08492 -10.08454 -10.08332
  Beta  occ. eigenvalues --  -10.08173 -10.07845 -10.07404 -10.07379 -10.05672
  Beta  occ. eigenvalues --  -10.05530 -10.05505  -0.82293  -0.81173  -0.71405
  Beta  occ. eigenvalues --   -0.63712  -0.60164  -0.59753  -0.59390  -0.58521
  Beta  occ. eigenvalues --   -0.53379  -0.49368  -0.48538  -0.42707  -0.38515
  Beta  occ. eigenvalues --   -0.38114  -0.37199  -0.36323  -0.35164  -0.34130
  Beta  occ. eigenvalues --   -0.33023  -0.32038  -0.30283  -0.30059  -0.29353
  Beta  occ. eigenvalues --   -0.29065  -0.28237  -0.27821  -0.27433  -0.26387
  Beta  occ. eigenvalues --   -0.25972  -0.25289  -0.24659  -0.24325  -0.21617
  Beta  occ. eigenvalues --   -0.21003  -0.20900  -0.11538  -0.10938
  Beta virt. eigenvalues --    0.06585   0.07462   0.07819   0.08216   0.09287
  Beta virt. eigenvalues --    0.09563   0.09814   0.10002   0.10197   0.11697
  Beta virt. eigenvalues --    0.12054   0.12147   0.12430   0.12771   0.12999

 Mulliken charges and spin densities:
               1          2
     1  C    1.150521  -1.830383
     2  C   -1.132227   0.808028
     3  C    0.396007   0.761339
     4  C    0.044339  -0.769685
     5  C   -0.290097  -0.537783
     6  N   -0.026985   0.181867
     7  C    0.666141  -0.939122
     8  C    0.007699  -0.401253
     9  C   -0.674078  -0.368591
    10  N    0.045100   0.150365
    11  C    0.544044  -0.829547
    12  C    0.238927  -0.556218
    13  H   -0.068109   0.216160
    14  H   -0.306601   0.456560
    15  H   -0.062532   0.207192
    16  H   -0.186446   0.328492
    17  H    0.251358  -0.096268
    18  H   -0.227565   0.381874
    19  H   -0.219012   0.346534
    20  H   -0.071717   0.221374
    21  H    0.194130  -0.032743
    22  H    0.142957  -0.008436
    23  H   -0.152550   0.263902
    24  H   -0.086861   0.220571
    25  H   -0.405512   0.536033
    26  H   -0.039921   0.158981
    27  H    0.043914   0.091376
    28  H   -0.202819   0.339744
    29  H   -0.016656   0.176269
    30  H    0.099484   0.088831
    31  H   -0.142515   0.258483
    32  H   -0.159180   0.303473
    33  H   -0.186578   0.308771
    34  H   -0.115087   0.210651
    35  H   -0.002713   0.166805
    36  H   -0.048858   0.186355
 Sum of Mulliken charges =  -1.00000   1.00000

 Dipole moment (field-independent basis, Debye):
    X=              0.1741    Y=              0.2888    Z=             -0.1453  Tot=              0.3672
 Quadrupole moment (field-independent basis, Debye-Ang):
   XX=           -142.1031   YY=           -131.2210   ZZ=           -120.6462
   XY=             -0.6390   XZ=             -3.4745   YZ=              1.1926

 Summary of Natural Population Analysis:

                                       Natural Population
                Natural  -----------------------------------------------
    Atom  No    Charge         Core      Valence    Rydberg      Total
 -----------------------------------------------------------------------
      C    1   -0.28742      0.99966     2.28251    0.00525     3.28742
      C    2   -0.19246      0.99959     2.18302    0.00986     3.19246
      C    3   -0.05200      0.99955     2.03835    0.01410     3.05200
      C    4   -0.28718      0.99963     2.27976    0.00779     3.28718
      C    5   -0.07485      0.99956     2.06247    0.01282     3.07485
      N    6   -0.28510      0.99973     2.77271    0.01266     3.78510
      C    7   -0.17377      0.99964     2.16563    0.00850     3.17377
      C    8   -0.17970      0.99963     2.17148    0.00859     3.17970
      C    9   -0.07885      0.99955     2.06668    0.01262     3.07885
      N   10   -0.29364      0.99973     2.78044    0.01347     3.79364
      C   11   -0.17243      0.99963     2.16443    0.00837     3.17243
      C   12   -0.17647      0.99964     2.16816    0.00868     3.17647
      H   13    0.09700      0.00000     0.40195    0.00105     0.40300
      H   14    0.09946      0.00000     0.39969    0.00085     0.40054
      H   15    0.09541      0.00000     0.40337    0.00121     0.40459
      H   16    0.09661      0.00000     0.40208    0.00131     0.40339
      H   17    0.10335      0.00000     0.39456    0.00209     0.39665
      H   18    0.10185      0.00000     0.39712    0.00103     0.39815
      H   19    0.09992      0.00000     0.39899    0.00108     0.40008
      H   20    0.10224      0.00000     0.39672    0.00104     0.39776
      H   21    0.09534      0.00000     0.40293    0.00174     0.40466
      H   22    0.08176      0.00000     0.41657    0.00168     0.41824
      H   23    0.07928      0.00000     0.41935    0.00137     0.42072
      H   24    0.09462      0.00000     0.40426    0.00112     0.40538
      H   25    0.09537      0.00000     0.40344    0.00119     0.40463
      H   26    0.07946      0.00000     0.41942    0.00112     0.42054
      H   27    0.10503      0.00000     0.39280    0.00217     0.39497
      H   28    0.09299      0.00000     0.40604    0.00097     0.40701
      H   29    0.09133      0.00000     0.40701    0.00166     0.40867
      H   30    0.09749      0.00000     0.40074    0.00177     0.40251
      H   31    0.07875      0.00000     0.41990    0.00135     0.42125
      H   32    0.09460      0.00000     0.40431    0.00109     0.40540
      H   33    0.09569      0.00000     0.40308    0.00123     0.40431
      H   34    0.07683      0.00000     0.42197    0.00120     0.42317
      H   35    0.10738      0.00000     0.39091    0.00171     0.39262
      H   36    0.09214      0.00000     0.40686    0.00100     0.40786
 =======================================================================
   * Total *   -0.00000     11.99554    36.84971    0.15475    49.00000

 Normal termination of Gaussian 16 at Wed Dec  9 17:53:49 2020.
