 Gaussian 16, Revision A.03,

 -----------------------------------------------------------
 # opt freq B3LYP/6-31G(d) empiricaldispersion=gd3bj scf=xqc
 -----------------------------------------------------------

 -------------------------------
 CID_117812828_JID_7629_neutraal
 -------------------------------
 Symbolic Z-matrix:
 Charge =  0 Multiplicity = 1

 SCF Done:  E(RB3LYP) =  -735.318409487     A.U. after   15 cycles
 SCF Done:  E(RB3LYP) =  -735.323518586     A.U. after   14 cycles
 SCF Done:  E(RB3LYP) =  -735.325326212     A.U. after   14 cycles
 SCF Done:  E(RB3LYP) =  -735.325549658     A.U. after   14 cycles
 SCF Done:  E(RB3LYP) =  -735.326820024     A.U. after   13 cycles
 SCF Done:  E(RB3LYP) =  -735.327076582     A.U. after   12 cycles
 SCF Done:  E(RB3LYP) =  -735.327036670     A.U. after   13 cycles
 SCF Done:  E(RB3LYP) =  -735.327355106     A.U. after   12 cycles
 SCF Done:  E(RB3LYP) =  -735.327456083     A.U. after   11 cycles
 SCF Done:  E(RB3LYP) =  -735.327486403     A.U. after   12 cycles
 SCF Done:  E(RB3LYP) =  -735.327500739     A.U. after    8 cycles
 SCF Done:  E(RB3LYP) =  -735.327500908     A.U. after    7 cycles
 SCF Done:  E(RB3LYP) =  -735.327501083     A.U. after    7 cycles
 SCF Done:  E(RB3LYP) =  -735.327501177     A.U. after    7 cycles
 SCF Done:  E(RB3LYP) =  -735.327501223     A.U. after    7 cycles
 Optimization completed.
    -- Stationary point found.
 Normal termination of Gaussian 16 at Fri Dec 11 13:11:17 2020.

 --------------------------------------------------------------------
 #N Geom=AllCheck Guess=TCheck SCRF=Check GenChk RB3LYP/6-31G(d) Freq
 --------------------------------------------------------------------

 Structure from the checkpoint file:  "JID_7629.chk"
 -------------------------------
 CID_117812828_JID_7629_neutraal
 -------------------------------
 Charge =  0 Multiplicity = 1

 SCF Done:  E(RB3LYP) =  -735.327501223     A.U. after    1 cycles

  Exact polarizability: 280.827  15.180 155.128 -25.948   3.411 119.148
 Approx polarizability: 401.063  35.875 223.854 -63.264   3.963 186.553

                      1                      2                      3
                      A                      A                      A
 Frequencies --     18.4440                27.6398                35.0315
 Red. masses --      4.0365                 3.9895                 3.0809
 Frc consts  --      0.0008                 0.0018                 0.0022
 IR Inten    --      0.6133                 0.1631                 0.0126

                      4                      5                      6
                      A                      A                      A
 Frequencies --     37.4771                48.7559                63.2661
 Red. masses --      4.4327                 4.2813                 3.6520
 Frc consts  --      0.0037                 0.0060                 0.0086
 IR Inten    --      0.4354                 5.4947                 2.0629

                      7                      8                      9
                      A                      A                      A
 Frequencies --     86.2647               106.0138               136.3644
 Red. masses --      3.4293                 3.1220                 3.0872
 Frc consts  --      0.0150                 0.0207                 0.0338
 IR Inten    --      0.5392                 0.3867                 0.5394

                     10                     11                     12
                      A                      A                      A
 Frequencies --    145.1669               158.2794               178.9294
 Red. masses --      1.0861                 1.2979                 1.5595
 Frc consts  --      0.0135                 0.0192                 0.0294
 IR Inten    --      0.4945                 0.3233                 1.5360

                     13                     14                     15
                      A                      A                      A
 Frequencies --    193.3388               200.2511               221.6322
 Red. masses --      1.0584                 1.0859                 1.7240
 Frc consts  --      0.0233                 0.0257                 0.0499
 IR Inten    --      0.1272                 1.1496                 1.1910

                     16                     17                     18
                      A                      A                      A
 Frequencies --    227.2955               263.3818               277.3199
 Red. masses --      2.8196                 3.4645                 3.6236
 Frc consts  --      0.0858                 0.1416                 0.1642
 IR Inten    --      5.0177                 2.4868                 1.5440

                     19                     20                     21
                      A                      A                      A
 Frequencies --    315.9899               333.6873               357.7743
 Red. masses --      3.2823                 2.3018                 2.8160
 Frc consts  --      0.1931                 0.1510                 0.2124
 IR Inten    --      2.5340                 0.1059                 0.8725

                     22                     23                     24
                      A                      A                      A
 Frequencies --    372.4465               385.8525               406.5536
 Red. masses --      2.5927                 3.5212                 2.4523
 Frc consts  --      0.2119                 0.3089                 0.2388
 IR Inten    --      1.1098                 2.3175                 0.6748

                     25                     26                     27
                      A                      A                      A
 Frequencies --    427.6433               450.8011               474.5924
 Red. masses --      3.5449                 2.8045                 2.7155
 Frc consts  --      0.3820                 0.3358                 0.3604
 IR Inten    --      0.4663                 1.6641                 2.6005

                     28                     29                     30
                      A                      A                      A
 Frequencies --    486.4931               530.2168               563.0437
 Red. masses --      2.9831                 2.4950                 2.8310
 Frc consts  --      0.4160                 0.4133                 0.5288
 IR Inten    --      0.3399                 6.0475                 3.6755

                     31                     32                     33
                      A                      A                      A
 Frequencies --    573.2392               620.5989               626.3909
 Red. masses --      3.1982                 2.6104                 3.6575
 Frc consts  --      0.6192                 0.5924                 0.8455
 IR Inten    --     25.7340                10.0475                31.7267

                     34                     35                     36
                      A                      A                      A
 Frequencies --    671.5090               734.6206               767.3627
 Red. masses --      2.6996                 3.8911                 2.4823
 Frc consts  --      0.7172                 1.2372                 0.8612
 IR Inten    --      9.8671                 1.8906                 2.0702

                     37                     38                     39
                      A                      A                      A
 Frequencies --    809.4120               859.3989               890.4401
 Red. masses --      3.1288                 1.3863                 1.7669
 Frc consts  --      1.2077                 0.6032                 0.8254
 IR Inten    --      3.0432                 6.8865                 6.4323

                     40                     41                     42
                      A                      A                      A
 Frequencies --    920.3660               931.8254               954.3088
 Red. masses --      2.0607                 1.8279                 1.4185
 Frc consts  --      1.0285                 0.9351                 0.7611
 IR Inten    --     22.1505                11.0682                 8.4638

                     43                     44                     45
                      A                      A                      A
 Frequencies --    960.6782               977.0139              1006.3802
 Red. masses --      2.2614                 1.4422                 1.8728
 Frc consts  --      1.2297                 0.8111                 1.1176
 IR Inten    --     10.2509                 0.4823                31.2430

                     46                     47                     48
                      A                      A                      A
 Frequencies --   1014.6641              1031.2513              1034.6419
 Red. masses --      1.6312                 1.2528                 1.8864
 Frc consts  --      0.9895                 0.7850                 1.1898
 IR Inten    --      4.6645                 3.1207                21.8551

                     49                     50                     51
                      A                      A                      A
 Frequencies --   1050.1221              1056.5920              1063.6196
 Red. masses --      1.7130                 1.7903                 1.9232
 Frc consts  --      1.1130                 1.1776                 1.2819
 IR Inten    --      8.2058                 6.5430                 8.3741

                     52                     53                     54
                      A                      A                      A
 Frequencies --   1078.7121              1084.3717              1118.9861
 Red. masses --      1.6184                 1.8663                 1.6649
 Frc consts  --      1.1096                 1.2930                 1.2283
 IR Inten    --     25.4887                 1.9387                 0.5667

                     55                     56                     57
                      A                      A                      A
 Frequencies --   1145.4298              1156.0612              1197.6520
 Red. masses --      2.0592                 2.1150                 1.8201
 Frc consts  --      1.5918                 1.6654                 1.5382
 IR Inten    --      2.7472                31.4087                82.3366

                     58                     59                     60
                      A                      A                      A
 Frequencies --   1210.9890              1238.6061              1254.3441
 Red. masses --      2.1876                 2.7301                 1.5285
 Frc consts  --      1.8901                 2.4677                 1.4169
 IR Inten    --     51.0638                40.6524                14.8648

                     61                     62                     63
                      A                      A                      A
 Frequencies --   1277.4081              1304.9644              1354.4072
 Red. masses --      1.7077                 2.6493                 1.3436
 Frc consts  --      1.6418                 2.6582                 1.4521
 IR Inten    --      3.6771               238.0518                30.7042

                     64                     65                     66
                      A                      A                      A
 Frequencies --   1360.8939              1388.6704              1400.8711
 Red. masses --      1.2365                 1.4545                 1.3483
 Frc consts  --      1.3493                 1.6526                 1.5590
 IR Inten    --     11.6819                 2.4163                12.1878

                     67                     68                     69
                      A                      A                      A
 Frequencies --   1412.2049              1413.4196              1432.4999
 Red. masses --      1.3598                 1.3576                 1.7261
 Frc consts  --      1.5978                 1.5980                 2.0869
 IR Inten    --      7.6193                12.4389               100.3366

                     70                     71                     72
                      A                      A                      A
 Frequencies --   1435.9271              1440.9000              1450.5541
 Red. masses --      1.3110                 1.3651                 1.2515
 Frc consts  --      1.5926                 1.6699                 1.5515
 IR Inten    --     30.0323                 4.3793                 1.2113

                     73                     74                     75
                      A                      A                      A
 Frequencies --   1481.4112              1500.1843              1501.8376
 Red. masses --      1.0569                 1.0603                 1.0479
 Frc consts  --      1.3666                 1.4059                 1.3925
 IR Inten    --     16.5900                 5.0594                 0.4975

                     76                     77                     78
                      A                      A                      A
 Frequencies --   1503.3170              1504.1122              1508.6836
 Red. masses --      1.0507                 1.0591                 1.0725
 Frc consts  --      1.3991                 1.4117                 1.4382
 IR Inten    --      3.6919                 3.7382                 3.6979

                     79                     80                     81
                      A                      A                      A
 Frequencies --   1514.0585              1514.7489              1520.2746
 Red. masses --      1.0489                 1.0907                 1.0463
 Frc consts  --      1.4167                 1.4745                 1.4248
 IR Inten    --      9.4552                 3.8657                13.0448

                     82                     83                     84
                      A                      A                      A
 Frequencies --   1524.5254              1532.9906              1535.0034
 Red. masses --      1.0684                 1.0857                 1.1102
 Frc consts  --      1.4630                 1.5033                 1.5413
 IR Inten    --      5.3581                 0.8755                17.9654

                     85                     86                     87
                      A                      A                      A
 Frequencies --   1620.7580              1677.9891              1754.8911
 Red. masses --      5.2240                 4.9855                10.0715
 Frc consts  --      8.0851                 8.2706                18.2745
 IR Inten    --    176.0682               351.2592               245.1251

                     88                     89                     90
                      A                      A                      A
 Frequencies --   1756.0723              1764.6499              3026.9664
 Red. masses --      6.4359                10.0344                 1.0389
 Frc consts  --     11.6936                18.4102                 5.6085
 IR Inten    --      5.4771               121.3942                26.1074

                     91                     92                     93
                      A                      A                      A
 Frequencies --   3031.1599              3035.0064              3047.6209
 Red. masses --      1.0403                 1.0409                 1.0635
 Frc consts  --      5.6316                 5.6493                 5.8200
 IR Inten    --     17.7134                59.7888                15.3721

                     94                     95                     96
                      A                      A                      A
 Frequencies --   3050.3883              3055.6110              3071.7844
 Red. masses --      1.0604                 1.0384                 1.0999
 Frc consts  --      5.8136                 5.7121                 6.1147
 IR Inten    --     24.3410                 3.1821                 8.5184

                     97                     98                     99
                      A                      A                      A
 Frequencies --   3072.3505              3076.7419              3080.8612
 Red. masses --      1.0346                 1.0994                 1.0964
 Frc consts  --      5.7540                 6.1319                 6.1317
 IR Inten    --      5.0947                36.5603                 9.9346

                    100                    101                    102
                      A                      A                      A
 Frequencies --   3089.6013              3099.1918              3117.1155
 Red. masses --      1.0996                 1.1023                 1.1004
 Frc consts  --      6.1843                 6.2378                 6.2998
 IR Inten    --     17.6125                53.4682                11.2774

                    103                    104                    105
                      A                      A                      A
 Frequencies --   3125.8719              3139.0595              3143.4042
 Red. masses --      1.0995                 1.1006                 1.0954
 Frc consts  --      6.3297                 6.3896                 6.3772
 IR Inten    --     18.9363                16.1926                24.1404

                    106                    107                    108
                      A                      A                      A
 Frequencies --   3144.0928              3151.1725              3165.7120
 Red. masses --      1.0991                 1.0886                 1.1058
 Frc consts  --      6.4012                 6.3691                 6.5292
 IR Inten    --      8.2146                26.1394                17.9494

                    109                    110                    111
                      A                      A                      A
 Frequencies --   3170.4615              3204.7430              3242.5555
 Red. masses --      1.1009                 1.0854                 1.0889
 Frc consts  --      6.5202                 6.5679                 6.7457
 IR Inten    --     11.7001                 7.4997                 5.3098

 - Thermochemistry -
 -------------------
 Temperature   298.150 Kelvin.  Pressure   1.00000 Atm.
 Atom     1 has atomic number  6 and mass  12.00000

 Molecular mass:   234.16198 amu.
 Principal axes and moments of inertia in atomic units:
                           1         2         3
     Eigenvalues --  2228.544739531.56712**********
           X            0.99999  -0.00002   0.00474
           Y           -0.00004   0.99992   0.01275
           Z           -0.00474  -0.01275   0.99991
 This molecule is an asymmetric top.
 Rotational symmetry number  1.
 Warning -- assumption of classical behavior for rotation
           may cause significant error
 Rotational temperatures (Kelvin)      0.03887     0.00909     0.00825
 Rotational constants (GHZ):           0.80983     0.18934     0.17188
 Zero-point vibrational energy     887026.4 (Joules/Mol)
                                  212.00440 (Kcal/Mol)
 Warning -- explicit consideration of  32 degrees of freedom as
           vibrations may cause significant error
 Vibrational temperatures:     26.54    39.77    50.40    53.92    70.15
          (Kelvin)             91.03   124.12   152.53   196.20   208.86
                              227.73   257.44   278.17   288.12   318.88
                              327.03   378.95   399.00   454.64   480.10
                              514.76   535.87   555.16   584.94   615.28
                              648.60   682.83   699.96   762.86   810.09
                              824.76   892.90   901.24   966.15  1056.96
                             1104.06  1164.56  1236.48  1281.14  1324.20
                             1340.69  1373.04  1382.20  1405.71  1447.96
                             1459.88  1483.74  1488.62  1510.89  1520.20
                             1530.31  1552.03  1560.17  1609.97  1648.02
                             1663.31  1723.15  1742.34  1782.08  1804.72
                             1837.91  1877.55  1948.69  1958.02  1997.99
                             2015.54  2031.85  2033.60  2061.05  2065.98
                             2073.13  2087.02  2131.42  2158.43  2160.81
                             2162.94  2164.08  2170.66  2178.39  2179.39
                             2187.34  2193.45  2205.63  2208.53  2331.91
                             2414.25  2524.90  2526.60  2538.94  4355.13
                             4361.16  4366.70  4384.85  4388.83  4396.34
                             4419.61  4420.43  4426.75  4432.67  4445.25
                             4459.05  4484.83  4497.43  4516.41  4522.66
                             4523.65  4533.83  4554.75  4561.59  4610.91
                             4665.31

 Zero-point correction=                           0.337851 (Hartree/Particle)
 Thermal correction to Energy=                    0.358236
 Thermal correction to Enthalpy=                  0.359180
 Thermal correction to Gibbs Free Energy=         0.286275
 Sum of electronic and zero-point Energies=           -734.989651
 Sum of electronic and thermal Energies=              -734.969265
 Sum of electronic and thermal Enthalpies=            -734.968321
 Sum of electronic and thermal Free Energies=         -735.041226

                     E (Thermal)             CV                S
                      KCal/Mol        Cal/Mol-Kelvin    Cal/Mol-Kelvin
 Total                  224.797             73.181            153.442
 Electronic               0.000              0.000              0.000
 Translational            0.889              2.981             42.254
 Rotational               0.889              2.981             33.766
 Vibrational            223.019             67.220             77.422
 Vibration     1          0.593              1.986              6.795
 Vibration     2          0.593              1.984              5.992
 Vibration     3          0.594              1.982              5.522
 Vibration     4          0.594              1.982              5.388
 Vibration     5          0.595              1.978              4.867
 Vibration     6          0.597              1.972              4.353
 Vibration     7          0.601              1.959              3.743
 Vibration     8          0.605              1.944              3.341
 Vibration     9          0.614              1.917              2.854
 Vibration    10          0.617              1.908              2.735
 Vibration    11          0.621              1.893              2.570
 Vibration    12          0.629              1.868              2.340
 Vibration    13          0.635              1.849              2.196
 Vibration    14          0.638              1.840              2.131
 Vibration    15          0.648              1.808              1.946
 Vibration    16          0.651              1.799              1.900
 Vibration    17          0.670              1.740              1.639
 Vibration    18          0.678              1.715              1.550
 Vibration    19          0.703              1.643              1.331
 Vibration    20          0.715              1.608              1.242
 Vibration    21          0.733              1.559              1.132
 Vibration    22          0.744              1.529              1.070
 Vibration    23          0.755              1.500              1.016
 Vibration    24          0.771              1.456              0.939
 Vibration    25          0.789              1.410              0.866
 Vibration    26          0.810              1.359              0.793
 Vibration    27          0.831              1.306              0.725
 Vibration    28          0.842              1.280              0.693
 Vibration    29          0.885              1.183              0.587
 Vibration    30          0.919              1.111              0.518
 Vibration    31          0.929              1.089              0.498
 Vibration    32          0.981              0.988              0.416

                           ! Non-Optimized Parameters !
 Normal termination of Gaussian 16 at Fri Dec 11 13:25:44 2020.

 ----------------------------------------------------------------------
 # B3LYP/6-311++G(d,p) empiricaldispersion=gd3bj scf=xqc pop=npa geom=c
 heck
 ----------------------------------------------------------------------

 ---------------------------------------
 CID_117812828_JID_7629_Energie_neutraal
 ---------------------------------------
 Structure from the checkpoint file:  "JID_7629.chk"
 Charge =  0 Multiplicity = 1

 SCF Done:  E(RB3LYP) =  -735.534749328     A.U. after   16 cycles
 Normal termination of Gaussian 16 at Fri Dec 11 13:34:08 2020.

 ----------------------------------------------------------------------
 # B3LYP/6-311++G(d,p) empiricaldispersion=gd3bj scf=xqc pop=npa geom=c
 heck
 ----------------------------------------------------------------------

 -------------------------------------
 CID_117812828_JID_7629_Energie_kation
 -------------------------------------
 Structure from the checkpoint file:  "JID_7629.chk"
 Charge =  1 Multiplicity = 2

 SCF Done:  E(UB3LYP) =  -735.240408258     A.U. after   33 cycles
 SCF Done:  E(UB3LYP) =  -735.240530539     a.u. after    5 cycles
 Normal termination of Gaussian 16 at Fri Dec 11 15:27:22 2020.
 Gaussian 16:  ES64L-G16RevA.03 25-Dec-2016

 ----------------------------------------------------------------------
 # B3LYP/6-311++G(d,p) empiricaldispersion=gd3bj scf=xqc pop=npa geom=c
 heck
 ----------------------------------------------------------------------

 ------------------------------------
 CID_117812828_JID_7629_Energie_anion
 ------------------------------------
 Structure from the checkpoint file:  "JID_7629.chk"
 Charge = -1 Multiplicity = 2

                         Standard orientation:
 ---------------------------------------------------------------------
 Center     Atomic      Atomic             Coordinates (Angstroms)
 Number     Number       Type             X           Y           Z
 ---------------------------------------------------------------------
      1          6           0       -5.042178   -0.696749   -1.629529
      2          6           0       -4.283214    0.260971   -0.745464
      3          6           0       -2.942194    0.258168   -0.719075
      4          6           0       -2.040544    1.129684    0.112006
      5          6           0       -1.539717    0.440250    1.411751
      6          6           0       -0.862625   -0.887377    1.155242
      7          6           0        0.410785   -1.014057    0.700984
      8          6           0        1.286073    0.102843    0.471105
      9          6           0        2.556544    0.107484   -0.036916
     10          6           0        3.272638    1.402664   -0.193235
     11          8           0        4.369646    1.471485   -0.735245
     12          6           0        2.617104    2.687922    0.305544
     13          6           0        3.233322   -1.171593   -0.449634
     14          8           0        2.574291   -2.138184   -0.811443
     15          6           0        4.742554   -1.277665   -0.367513
     16          6           0       -1.714817   -2.103844    1.373415
     17          6           0       -5.150953    1.181971    0.073739
     18          1           0       -4.370021   -1.346429   -2.198138
     19          1           0       -5.677707   -0.154162   -2.342970
     20          1           0       -5.714139   -1.333018   -1.037040
     21          1           0       -2.426460   -0.469922   -1.344921
     22          1           0       -1.164623    1.406127   -0.488419
     23          1           0       -2.537544    2.063715    0.394133
     24          1           0       -0.866307    1.129247    1.935380
     25          1           0       -2.401250    0.280758    2.069911
     26          1           0        0.792347   -2.001439    0.473734
     27          1           0        0.885947    1.067421    0.766691
     28          1           0        1.681816    2.894608   -0.227475
     29          1           0        2.386353    2.637703    1.375458
     30          1           0        3.314290    3.507214    0.124767
     31          1           0        5.197126   -0.760854   -1.216834
     32          1           0        5.137385   -0.796617    0.532514
     33          1           0        5.008600   -2.336944   -0.387700
     34          1           0       -2.017166   -2.176095    2.427632
     35          1           0       -2.642021   -2.026033    0.790726
     36          1           0       -1.196543   -3.025656    1.095894
     37          1           0       -5.809213    1.774732   -0.575770
     38          1           0       -5.809321    0.601553    0.734390
     39          1           0       -4.579720    1.873644    0.697025
 ---------------------------------------------------------------------

 SCF Done:  E(UB3LYP) =  -735.570686752     A.U. after   25 cycles

 The electronic state is 2-A.
 Alpha  occ. eigenvalues --  -18.94653 -18.93776 -10.09929 -10.09333 -10.08687
 Alpha  occ. eigenvalues --  -10.08627 -10.08506 -10.06869 -10.06541 -10.05551
 Alpha  occ. eigenvalues --  -10.04235 -10.03873 -10.02662 -10.02400 -10.01275
 Alpha  occ. eigenvalues --  -10.01173 -10.00900  -0.88350  -0.87663  -0.73058
 Alpha  occ. eigenvalues --   -0.69530  -0.65477  -0.63602  -0.61420  -0.60037
 Alpha  occ. eigenvalues --   -0.59153  -0.58103  -0.54888  -0.51118  -0.46425
 Alpha  occ. eigenvalues --   -0.42923  -0.42150  -0.38889  -0.37456  -0.36670
 Alpha  occ. eigenvalues --   -0.35507  -0.35065  -0.33447  -0.32266  -0.31558
 Alpha  occ. eigenvalues --   -0.30968  -0.30926  -0.30668  -0.29462  -0.29010
 Alpha  occ. eigenvalues --   -0.28932  -0.28115  -0.27755  -0.27461  -0.27228
 Alpha  occ. eigenvalues --   -0.26370  -0.24940  -0.24382  -0.23327  -0.23036
 Alpha  occ. eigenvalues --   -0.22057  -0.21871  -0.20848  -0.19560  -0.16776
 Alpha  occ. eigenvalues --   -0.14738  -0.10451  -0.08890  -0.08748   0.02098
 Alpha virt. eigenvalues --    0.05783   0.07563   0.07965   0.08771   0.09692
 Alpha virt. eigenvalues --    0.10123   0.10584   0.10630   0.11063   0.11477
 Alpha virt. eigenvalues --    0.11678   0.11828   0.12361   0.12826   0.13155

  Beta  occ. eigenvalues --  -18.94521 -18.93479 -10.09843 -10.09212 -10.08684
  Beta  occ. eigenvalues --  -10.08626 -10.08506 -10.06871 -10.06498 -10.05588
  Beta  occ. eigenvalues --  -10.04277 -10.03885 -10.02406 -10.02101 -10.01334
  Beta  occ. eigenvalues --  -10.00850 -10.00735  -0.88067  -0.87178  -0.73019
  Beta  occ. eigenvalues --   -0.69069  -0.65044  -0.63218  -0.61418  -0.59930
  Beta  occ. eigenvalues --   -0.58882  -0.58070  -0.54771  -0.51011  -0.45607
  Beta  occ. eigenvalues --   -0.42837  -0.41832  -0.38736  -0.37232  -0.36565
  Beta  occ. eigenvalues --   -0.35457  -0.34874  -0.33291  -0.32105  -0.31379
  Beta  occ. eigenvalues --   -0.30934  -0.30558  -0.30299  -0.29385  -0.28917
  Beta  occ. eigenvalues --   -0.28734  -0.28002  -0.27661  -0.27334  -0.27086
  Beta  occ. eigenvalues --   -0.26163  -0.24835  -0.24273  -0.23177  -0.22797
  Beta  occ. eigenvalues --   -0.21852  -0.21047  -0.20060  -0.19232  -0.15325
  Beta  occ. eigenvalues --   -0.14364  -0.10193  -0.08601  -0.06951
  Beta virt. eigenvalues --    0.05746   0.07407   0.07939   0.08582   0.08927
  Beta virt. eigenvalues --    0.09712   0.10098   0.10557   0.10704   0.11065
  Beta virt. eigenvalues --    0.11494   0.11671   0.12290   0.12772   0.13074

 Mulliken charges and spin densities:
               1          2
     1  C   -0.643087  -0.000821
     2  C    0.296647  -0.005033
     3  C   -0.155026   0.050848
     4  C   -0.021900  -0.053572
     5  C   -0.631076  -0.052564
     6  C    0.675484   0.369014
     7  C   -0.218785  -0.135960
     8  C   -0.175429   0.434202
     9  C    1.030599   0.034964
    10  C   -0.539047   0.072526
    11  O   -0.365098   0.102854
    12  C   -0.426284  -0.003480
    13  C   -0.271082   0.066300
    14  O   -0.302930   0.044298
    15  C   -0.672780  -0.000882
    16  C   -0.720388  -0.033709
    17  C   -0.659580  -0.011039
    18  H    0.153465   0.000683
    19  H    0.116895   0.000039
    20  H    0.124958   0.000284
    21  H    0.210878  -0.000099
    22  H    0.117153   0.000547
    23  H    0.120232   0.001670
    24  H    0.129025   0.057009
    25  H    0.137570   0.003909
    26  H    0.190395   0.007634
    27  H   -0.103158  -0.037326
    28  H    0.141835   0.004040
    29  H    0.117726   0.012805
    30  H    0.161919  -0.001137
    31  H    0.184690   0.006215
    32  H    0.145064   0.000928
    33  H    0.118129  -0.000759
    34  H    0.103642   0.034763
    35  H    0.135550   0.018439
    36  H    0.124375   0.000978
    37  H    0.119638   0.000700
    38  H    0.134223   0.002631
    39  H    0.115559   0.008101
 Sum of Mulliken charges =  -1.00000   1.00000

 Dipole moment (field-independent basis, Debye):
    X=             -9.7819    Y=              1.7582    Z=              1.5343  Tot=             10.0563
 Quadrupole moment (field-independent basis, Debye-Ang):
   XX=           -166.4709   YY=           -128.0032   ZZ=           -118.3815
   XY=             -3.9382   XZ=              9.9114   YZ=              0.7847

 Summary of Natural Population Analysis:

                                       Natural Population
                Natural  -----------------------------------------------
    Atom  No    Charge         Core      Valence    Rydberg      Total
 -----------------------------------------------------------------------
      C    1   -0.29224      0.99963     2.28789    0.00471     3.29224
      C    2   -0.02413      0.99950     2.01701    0.00763     3.02413
      C    3   -0.08370      0.99946     2.07557    0.00867     3.08370
      C    4   -0.19476      0.99961     2.18792    0.00723     3.19476
      C    5   -0.20444      0.99959     2.19536    0.00948     3.20444
      C    6    0.12349      0.99953     1.86801    0.00898     2.87651
      C    7   -0.16485      0.99947     2.15659    0.00879     3.16485
      C    8    0.05393      0.99953     1.93921    0.00734     2.94607
      C    9   -0.12722      0.99941     2.11529    0.01251     3.12722
      C   10    0.27935      0.99965     1.70103    0.01997     2.72065
      O   11   -0.29052      0.99988     3.28301    0.00763     4.29052
      C   12   -0.33242      0.99964     2.32819    0.00459     3.33242
      C   13    0.29243      0.99965     1.68563    0.02229     2.70757
      O   14   -0.30185      0.99988     3.29442    0.00755     4.30185
      C   15   -0.32910      0.99963     2.32501    0.00446     3.32910
      C   16   -0.29942      0.99963     2.29545    0.00434     3.29942
      C   17   -0.29823      0.99963     2.29390    0.00469     3.29823
      H   18    0.10301      0.00000     0.39615    0.00084     0.39699
      H   19    0.09474      0.00000     0.40406    0.00120     0.40526
      H   20    0.09573      0.00000     0.40310    0.00117     0.40427
      H   21    0.09866      0.00000     0.40032    0.00102     0.40134
      H   22    0.10727      0.00000     0.39159    0.00114     0.39273
      H   23    0.08979      0.00000     0.40855    0.00165     0.41021
      H   24    0.10411      0.00000     0.39442    0.00147     0.39589
      H   25    0.09184      0.00000     0.40657    0.00159     0.40816
      H   26    0.10968      0.00000     0.38884    0.00148     0.39032
      H   27    0.08032      0.00000     0.41809    0.00159     0.41968
      H   28    0.10223      0.00000     0.39678    0.00099     0.39777
      H   29    0.10164      0.00000     0.39739    0.00097     0.39836
      H   30    0.10208      0.00000     0.39635    0.00158     0.39792
      H   31    0.11901      0.00000     0.38009    0.00090     0.38099
      H   32    0.10334      0.00000     0.39586    0.00081     0.39666
      H   33    0.09471      0.00000     0.40391    0.00138     0.40529
      H   34    0.09742      0.00000     0.40142    0.00116     0.40258
      H   35    0.10130      0.00000     0.39766    0.00104     0.39870
      H   36    0.09909      0.00000     0.40008    0.00083     0.40091
      H   37    0.09609      0.00000     0.40274    0.00117     0.40391
      H   38    0.09804      0.00000     0.40084    0.00112     0.40196
      H   39    0.10355      0.00000     0.39560    0.00086     0.39645
 =======================================================================
   * Total *    0.00000     16.99330    46.82990    0.17680    64.00000

 Normal termination of Gaussian 16 at Fri Dec 11 15:45:46 2020.
