 Gaussian 16, Revision A.03,

 -----------------------------------------------------------
 # opt freq B3LYP/6-31G(d) empiricaldispersion=gd3bj scf=xqc
 -----------------------------------------------------------

 -------------------------------
 CID_114531299_JID_7189_neutraal
 -------------------------------
 Symbolic Z-matrix:
 Charge =  0 Multiplicity = 1

 SCF Done:  E(RB3LYP) =  -778.400940066     A.U. after   15 cycles
 SCF Done:  E(RB3LYP) =  -778.405377349     A.U. after   13 cycles
 SCF Done:  E(RB3LYP) =  -778.405317030     A.U. after   12 cycles
 SCF Done:  E(RB3LYP) =  -778.406189421     A.U. after   12 cycles
 SCF Done:  E(RB3LYP) =  -778.406718417     A.U. after   12 cycles
 SCF Done:  E(RB3LYP) =  -778.406899206     A.U. after   12 cycles
 SCF Done:  E(RB3LYP) =  -778.407072981     A.U. after   12 cycles
 SCF Done:  E(RB3LYP) =  -778.407213892     A.U. after   12 cycles
 SCF Done:  E(RB3LYP) =  -778.407311772     A.U. after   12 cycles
 SCF Done:  E(RB3LYP) =  -778.407375794     A.U. after   10 cycles
 SCF Done:  E(RB3LYP) =  -778.408722427     A.U. after   11 cycles
 SCF Done:  E(RB3LYP) =  -778.408715235     A.U. after   10 cycles
 SCF Done:  E(RB3LYP) =  -778.408724394     A.U. after   10 cycles
 SCF Done:  E(RB3LYP) =  -778.408724443     A.U. after    7 cycles
 SCF Done:  E(RB3LYP) =  -778.408724439     A.U. after    7 cycles
 SCF Done:  E(RB3LYP) =  -778.408724498     A.U. after    7 cycles
 Optimization completed.
    -- Stationary point found.
 Normal termination of Gaussian 16 at Fri Dec 11 12:34:45 2020.

 --------------------------------------------------------------------
 #N Geom=AllCheck Guess=TCheck SCRF=Check GenChk RB3LYP/6-31G(d) Freq
 --------------------------------------------------------------------

 Structure from the checkpoint file:  "JID_7189.chk"
 -------------------------------
 CID_114531299_JID_7189_neutraal
 -------------------------------
 Charge =  0 Multiplicity = 1

 SCF Done:  E(RB3LYP) =  -778.408724498     A.U. after    1 cycles

  Exact polarizability: 161.443 -14.104 142.372  11.327  13.883 113.302
 Approx polarizability: 236.596 -19.341 218.287  30.848  34.527 189.112

                      1                      2                      3
                      A                      A                      A
 Frequencies --     24.5651                38.7877                49.7733
 Red. masses --      4.8906                 4.1675                 5.3190
 Frc consts  --      0.0017                 0.0037                 0.0078
 IR Inten    --      1.7580                 0.2092                 2.1549

                      4                      5                      6
                      A                      A                      A
 Frequencies --     60.1521                99.2578               103.1128
 Red. masses --      4.8425                 1.7870                 1.5368
 Frc consts  --      0.0103                 0.0104                 0.0096
 IR Inten    --      1.5151                 0.8146                 0.2508

                      7                      8                      9
                      A                      A                      A
 Frequencies --    111.1407               138.3472               161.9203
 Red. masses --      4.4346                 4.9851                 3.6354
 Frc consts  --      0.0323                 0.0562                 0.0562
 IR Inten    --      5.8654                 3.4836                 1.7593

                     10                     11                     12
                      A                      A                      A
 Frequencies --    194.9487               197.4122               264.7680
 Red. masses --      3.7261                 3.9672                 2.9659
 Frc consts  --      0.0834                 0.0911                 0.1225
 IR Inten    --      0.7458                 2.5643                 1.7587

                     13                     14                     15
                      A                      A                      A
 Frequencies --    289.6985               299.8373               331.3522
 Red. masses --      2.7466                 2.4889                 2.5307
 Frc consts  --      0.1358                 0.1318                 0.1637
 IR Inten    --      3.7035                 2.9355                 3.0450

                     16                     17                     18
                      A                      A                      A
 Frequencies --    392.3475               408.8139               427.8891
 Red. masses --      3.9679                 2.4130                 2.3655
 Frc consts  --      0.3599                 0.2376                 0.2552
 IR Inten    --      5.4034                 3.9630                 1.1712

                     19                     20                     21
                      A                      A                      A
 Frequencies --    482.6548               540.8260               620.6326
 Red. masses --      3.4292                 3.2141                 3.6805
 Frc consts  --      0.4707                 0.5539                 0.8353
 IR Inten    --      4.5014                 2.6313                 0.4189

                     22                     23                     24
                      A                      A                      A
 Frequencies --    625.6653               633.0867               651.6288
 Red. masses --      1.0603                 4.0653                 4.1981
 Frc consts  --      0.2445                 0.9600                 1.0503
 IR Inten    --     96.8043                 1.4054                 1.4763

                     25                     26                     27
                      A                      A                      A
 Frequencies --    687.9263               712.5228               716.1243
 Red. masses --      3.4669                 2.1497                 2.4544
 Frc consts  --      0.9667                 0.6430                 0.7416
 IR Inten    --     11.6251                12.5782                18.5717

                     28                     29                     30
                      A                      A                      A
 Frequencies --    731.7578               732.7240               741.4258
 Red. masses --      3.4637                 2.2060                 2.3118
 Frc consts  --      1.0928                 0.6978                 0.7487
 IR Inten    --      1.0397                 4.3651                 5.1993

                     31                     32                     33
                      A                      A                      A
 Frequencies --    773.9803               809.1185               848.6570
 Red. masses --      1.5175                 2.2406                 1.2942
 Frc consts  --      0.5356                 0.8643                 0.5492
 IR Inten    --     14.3386                10.3212                 8.0660

                     34                     35                     36
                      A                      A                      A
 Frequencies --    867.0094               930.5002               940.3129
 Red. masses --      2.6708                 3.5607                 3.2672
 Frc consts  --      1.1829                 1.8164                 1.7020
 IR Inten    --      5.1705                 6.4749                 2.5183

                     37                     38                     39
                      A                      A                      A
 Frequencies --    959.0085               964.9151              1026.9274
 Red. masses --      2.2539                 2.0563                 2.2798
 Frc consts  --      1.2213                 1.1280                 1.4165
 IR Inten    --      4.9627                 2.7178                11.9732

                     40                     41                     42
                      A                      A                      A
 Frequencies --   1031.3636              1055.2152              1067.4161
 Red. masses --      2.0361                 4.1973                 1.8633
 Frc consts  --      1.2761                 2.7536                 1.2508
 IR Inten    --      1.8044                 6.9456                 0.1190

                     43                     44                     45
                      A                      A                      A
 Frequencies --   1077.4292              1088.5303              1101.2034
 Red. masses --      3.2972                 2.2507                 3.0836
 Frc consts  --      2.2551                 1.5713                 2.2031
 IR Inten    --     33.9642                25.7722                57.6570

                     46                     47                     48
                      A                      A                      A
 Frequencies --   1111.8245              1131.7856              1156.1977
 Red. masses --      1.2405                 2.0390                 1.3250
 Frc consts  --      0.9035                 1.5388                 1.0436
 IR Inten    --      7.8195                12.8744                 2.5003

                     49                     50                     51
                      A                      A                      A
 Frequencies --   1173.2147              1188.8854              1203.9825
 Red. masses --      1.7070                 1.9463                 1.6992
 Frc consts  --      1.3844                 1.6209                 1.4512
 IR Inten    --     22.4916                 2.1181                 1.6450

                     52                     53                     54
                      A                      A                      A
 Frequencies --   1222.5992              1225.8413              1264.4510
 Red. masses --      1.6874                 1.3167                 1.5533
 Frc consts  --      1.4861                 1.1657                 1.4632
 IR Inten    --     25.0333                 3.4822                 4.7081

                     55                     56                     57
                      A                      A                      A
 Frequencies --   1298.4505              1306.4119              1321.3743
 Red. masses --      5.6292                 1.2860                 2.6225
 Frc consts  --      5.5918                 1.2932                 2.6978
 IR Inten    --     27.6919                21.1694                29.7667

                     58                     59                     60
                      A                      A                      A
 Frequencies --   1346.2693              1354.0418              1381.3185
 Red. masses --      1.7617                 1.7118                 1.4720
 Frc consts  --      1.8813                 1.8491                 1.6548
 IR Inten    --      2.8495                 9.2413                 4.8257

                     61                     62                     63
                      A                      A                      A
 Frequencies --   1387.4040              1392.6289              1404.8815
 Red. masses --      1.5498                 2.2600                 1.7929
 Frc consts  --      1.7577                 2.5824                 2.0849
 IR Inten    --      5.3458                 8.3549                 3.5577

                     64                     65                     66
                      A                      A                      A
 Frequencies --   1411.4027              1441.6229              1461.6286
 Red. masses --      2.4512                 1.2805                 1.8061
 Frc consts  --      2.8770                 1.5680                 2.2733
 IR Inten    --     10.8339                10.5985                35.5444

                     67                     68                     69
                      A                      A                      A
 Frequencies --   1465.5062              1489.9740              1494.9027
 Red. masses --      1.1925                 1.8485                 2.0446
 Frc consts  --      1.5090                 2.4179                 2.6920
 IR Inten    --     83.9881                12.8049                 5.9730

                     70                     71                     72
                      A                      A                      A
 Frequencies --   1500.5991              1505.6537              1511.2946
 Red. masses --      1.6856                 1.0922                 1.2079
 Frc consts  --      2.2363                 1.4589                 1.6255
 IR Inten    --     18.6754                 2.9237                 3.3280

                     73                     74                     75
                      A                      A                      A
 Frequencies --   1518.9225              1521.2419              1535.9987
 Red. masses --      1.1257                 1.0644                 1.1979
 Frc consts  --      1.5301                 1.4513                 1.6651
 IR Inten    --      6.7565                15.0635                 3.9035

                     76                     77                     78
                      A                      A                      A
 Frequencies --   1541.1501              1543.9840              1578.0417
 Red. masses --      2.3649                 1.0889                 4.4682
 Frc consts  --      3.3095                 1.5295                 6.5557
 IR Inten    --     31.9000                 1.1229                11.9773

                     79                     80                     81
                      A                      A                      A
 Frequencies --   1609.3518              3031.0301              3037.6608
 Red. masses --      6.2671                 1.0611                 1.0627
 Frc consts  --      9.5636                 5.7437                 5.7776
 IR Inten    --      6.5052                17.8932                33.4385

                     82                     83                     84
                      A                      A                      A
 Frequencies --   3054.2299              3056.1605              3068.7068
 Red. masses --      1.0476                 1.0627                 1.0654
 Frc consts  --      5.7579                 5.8482                 5.9114
 IR Inten    --     25.9850                37.8101                16.7045

                     85                     86                     87
                      A                      A                      A
 Frequencies --   3076.2656              3090.6822              3091.2584
 Red. masses --      1.0983                 1.0795                 1.0864
 Frc consts  --      6.1237                 6.0754                 6.1168
 IR Inten    --     40.9653               105.2598                15.8570

                     88                     89                     90
                      A                      A                      A
 Frequencies --   3118.2776              3127.9304              3139.2831
 Red. masses --      1.1020                 1.0949                 1.0961
 Frc consts  --      6.3133                 6.3115                 6.3645
 IR Inten    --     17.1823                18.8092                 5.3405

                     91                     92                     93
                      A                      A                      A
 Frequencies --   3152.8970              3161.0696              3262.3934
 Red. masses --      1.1034                 1.1047                 1.0910
 Frc consts  --      6.4624                 6.5038                 6.8414
 IR Inten    --      8.9370                 7.6655                 3.4635

                     94                     95                     96
                      A                      A                      A
 Frequencies --   3286.6701              3297.5829              3626.5545
 Red. masses --      1.1047                 1.0992                 1.0665
 Frc consts  --      7.0311                 7.0421                 8.2641
 IR Inten    --      3.2027                 0.1985               155.9593

 - Thermochemistry -
 -------------------
 Temperature   298.150 Kelvin.  Pressure   1.00000 Atm.
 Atom     1 has atomic number  6 and mass  12.00000

 Molecular mass:   235.14331 amu.
 Principal axes and moments of inertia in atomic units:
                           1         2         3
     Eigenvalues --  2377.751985046.326316124.46281
           X            0.99953  -0.03046   0.00212
           Y            0.03040   0.99927   0.02312
           Z           -0.00283  -0.02304   0.99973
 This molecule is an asymmetric top.
 Rotational symmetry number  1.
 Warning -- assumption of classical behavior for rotation
           may cause significant error
 Rotational temperatures (Kelvin)      0.03643     0.01716     0.01414
 Rotational constants (GHZ):           0.75901     0.35763     0.29468
 Zero-point vibrational energy     757799.5 (Joules/Mol)
                                  181.11842 (Kcal/Mol)
 Warning -- explicit consideration of  21 degrees of freedom as
           vibrations may cause significant error
 Vibrational temperatures:     35.34    55.81    71.61    86.55   142.81
          (Kelvin)            148.36   159.91   199.05   232.97   280.49
                              284.03   380.94   416.81   431.40   476.74
                              564.50   588.19   615.64   694.43   778.13
                              892.95   900.19   910.87   937.55   989.77
                             1025.16  1030.34  1052.84  1054.23  1066.75
                             1113.59  1164.14  1221.03  1247.43  1338.78
                             1352.90  1379.80  1388.30  1477.52  1483.90
                             1518.22  1535.77  1550.18  1566.15  1584.39
                             1599.67  1628.39  1663.51  1687.99  1710.54
                             1732.26  1759.05  1763.71  1819.26  1868.18
                             1879.64  1901.16  1936.98  1948.16  1987.41
                             1996.16  2003.68  2021.31  2030.69  2074.17
                             2102.96  2108.54  2143.74  2150.83  2159.03
                             2166.30  2174.42  2185.39  2188.73  2209.96
                             2217.37  2221.45  2270.45  2315.50  4360.98
                             4370.52  4394.36  4397.13  4415.18  4426.06
                             4446.80  4447.63  4486.51  4500.39  4516.73
                             4536.32  4548.07  4693.86  4728.79  4744.49
                             5217.80

 Zero-point correction=                           0.288631 (Hartree/Particle)
 Thermal correction to Energy=                    0.304687
 Thermal correction to Enthalpy=                  0.305631
 Thermal correction to Gibbs Free Energy=         0.243298
 Sum of electronic and zero-point Energies=           -778.120094
 Sum of electronic and thermal Energies=              -778.104038
 Sum of electronic and thermal Enthalpies=            -778.103094
 Sum of electronic and thermal Free Energies=         -778.165426

                     E (Thermal)             CV                S
                      KCal/Mol        Cal/Mol-Kelvin    Cal/Mol-Kelvin
 Total                  191.194             59.955            131.190
 Electronic               0.000              0.000              0.000
 Translational            0.889              2.981             42.267
 Rotational               0.889              2.981             32.663
 Vibrational            189.416             53.994             56.260
 Vibration     1          0.593              1.985              6.226
 Vibration     2          0.594              1.981              5.320
 Vibration     3          0.595              1.978              4.826
 Vibration     4          0.597              1.973              4.452
 Vibration     5          0.604              1.950              3.469
 Vibration     6          0.605              1.947              3.395
 Vibration     7          0.607              1.940              3.249
 Vibration     8          0.614              1.915              2.827
 Vibration     9          0.622              1.889              2.527
 Vibration    10          0.636              1.847              2.180
 Vibration    11          0.637              1.843              2.157
 Vibration    12          0.671              1.738              1.630
 Vibration    13          0.686              1.693              1.476
 Vibration    14          0.692              1.674              1.418
 Vibration    15          0.714              1.613              1.253
 Vibration    16          0.760              1.487              0.991
 Vibration    17          0.773              1.451              0.931
 Vibration    18          0.789              1.410              0.866
 Vibration    19          0.839              1.289              0.703
 Vibration    20          0.896              1.160              0.564
 Vibration    21          0.981              0.988              0.416

 Optimization completed.
    -- Stationary point found.
 Normal termination of Gaussian 16 at Fri Dec 11 12:49:39 2020.

 ----------------------------------------------------------------------
 # B3LYP/6-311++G(d,p) empiricaldispersion=gd3bj scf=xqc pop=npa geom=c
 heck
 ----------------------------------------------------------------------

 ---------------------------------------
 CID_114531299_JID_7189_Energie_neutraal
 ---------------------------------------
 Structure from the checkpoint file:  "JID_7189.chk"
 Charge =  0 Multiplicity = 1

 SCF Done:  E(RB3LYP) =  -778.626363618     A.U. after   16 cycles
 Normal termination of Gaussian 16 at Fri Dec 11 12:56:31 2020.

 ----------------------------------------------------------------------
 # B3LYP/6-311++G(d,p) empiricaldispersion=gd3bj scf=xqc pop=npa geom=c
 heck
 ----------------------------------------------------------------------

 -------------------------------------
 CID_114531299_JID_7189_Energie_kation
 -------------------------------------
 Structure from the checkpoint file:  "JID_7189.chk"
 Charge =  1 Multiplicity = 2

 SCF Done:  E(UB3LYP) =  -778.325032577     A.U. after   26 cycles
 Normal termination of Gaussian 16 at Fri Dec 11 13:12:51 2020.
 Gaussian 16:  ES64L-G16RevA.03 25-Dec-2016

 ----------------------------------------------------------------------
 # B3LYP/6-311++G(d,p) empiricaldispersion=gd3bj scf=xqc pop=npa geom=c
 heck
 ----------------------------------------------------------------------

 ------------------------------------
 CID_114531299_JID_7189_Energie_anion
 ------------------------------------
 Structure from the checkpoint file:  "JID_7189.chk"
 Charge = -1 Multiplicity = 2

                         Standard orientation:
 ---------------------------------------------------------------------
 Center     Atomic      Atomic             Coordinates (Angstroms)
 Number     Number       Type             X           Y           Z
 ---------------------------------------------------------------------
      1          6           0        3.869300    0.268329    0.872363
      2          7           0        2.742681    0.847884    0.163220
      3          6           0        2.250179    2.128681    0.344962
      4          6           0        1.181934    2.239954   -0.508799
      5          7           0        0.999550    1.066896   -1.204144
      6          6           0        1.946802    0.245605   -0.786257
      7          6           0        2.060467   -1.189023   -1.188933
      8          6           0        1.530347   -2.156133   -0.106376
      9          7           0        0.179491   -1.801941    0.287461
     10          6           0       -0.216198   -0.842607    1.166516
     11          6           0       -1.570768   -0.712518    0.959532
     12          7           0       -1.918799   -1.587859   -0.036147
     13          7           0       -0.862923   -2.235814   -0.450496
     14          6           0       -2.564291    0.254498    1.520157
     15          6           0       -2.655407    1.548926    0.681142
     16          6           0       -2.829276    1.270116   -0.820260
     17          8           0       -3.862244    0.331684   -1.084070
     18          1           0        4.349516   -0.488661    0.248768
     19          1           0        4.602533    1.048260    1.090408
     20          1           0        3.558669   -0.195500    1.816107
     21          1           0        2.715516    2.818996    1.032854
     22          1           0        0.540348    3.094959   -0.670671
     23          1           0        1.457410   -1.313753   -2.091122
     24          1           0        3.092928   -1.471027   -1.432242
     25          1           0        1.501623   -3.178433   -0.489136
     26          1           0        2.158203   -2.139209    0.789282
     27          1           0        0.473695   -0.332813    1.820480
     28          1           0       -3.546349   -0.227662    1.525401
     29          1           0       -2.313971    0.500325    2.558039
     30          1           0       -3.503342    2.137017    1.053419
     31          1           0       -1.746474    2.149813    0.823577
     32          1           0       -3.103327    2.200140   -1.331903
     33          1           0       -1.871490    0.935850   -1.242980
     34          1           0       -3.466078   -0.550900   -0.951260
 ---------------------------------------------------------------------

 SCF Done:  E(UB3LYP) =  -778.627657013     A.U. after   29 cycles

 The electronic state is 2-A.
 Alpha  occ. eigenvalues --  -19.01245 -14.30891 -14.27999 -14.27448 -14.24188
 Alpha  occ. eigenvalues --  -14.20021 -10.13625 -10.13419 -10.11812 -10.11323
 Alpha  occ. eigenvalues --  -10.11302 -10.10816 -10.10583 -10.09902 -10.09280
 Alpha  occ. eigenvalues --  -10.08969 -10.07931  -1.00623  -0.92747  -0.91557
 Alpha  occ. eigenvalues --   -0.82962  -0.79456  -0.73404  -0.71043  -0.67919
 Alpha  occ. eigenvalues --   -0.65105  -0.62348  -0.59989  -0.57933  -0.53075
 Alpha  occ. eigenvalues --   -0.51177  -0.50547  -0.48827  -0.46128  -0.44218
 Alpha  occ. eigenvalues --   -0.42383  -0.40886  -0.40133  -0.38487  -0.37523
 Alpha  occ. eigenvalues --   -0.36767  -0.36029  -0.35248  -0.34344  -0.33936
 Alpha  occ. eigenvalues --   -0.33146  -0.32354  -0.30948  -0.29700  -0.29550
 Alpha  occ. eigenvalues --   -0.28481  -0.28141  -0.28127  -0.26927  -0.24117
 Alpha  occ. eigenvalues --   -0.22621  -0.20070  -0.18801  -0.18316  -0.18263
 Alpha  occ. eigenvalues --   -0.17275  -0.16152  -0.13832   0.03468
 Alpha virt. eigenvalues --    0.06539   0.06913   0.07649   0.07702   0.08408
 Alpha virt. eigenvalues --    0.08964   0.09675   0.09939   0.10315   0.10760
 Alpha virt. eigenvalues --    0.11259   0.11716   0.12106   0.12501   0.12738

  Beta  occ. eigenvalues --  -19.01244 -14.30874 -14.27994 -14.27405 -14.24181
  Beta  occ. eigenvalues --  -14.20021 -10.13619 -10.13387 -10.11781 -10.11302
  Beta  occ. eigenvalues --  -10.11219 -10.10819 -10.10565 -10.09881 -10.09280
  Beta  occ. eigenvalues --  -10.08966 -10.07930  -1.00579  -0.92734  -0.91555
  Beta  occ. eigenvalues --   -0.82922  -0.79439  -0.73373  -0.71003  -0.67899
  Beta  occ. eigenvalues --   -0.65057  -0.62248  -0.59976  -0.57884  -0.53055
  Beta  occ. eigenvalues --   -0.51155  -0.50494  -0.48810  -0.46055  -0.44148
  Beta  occ. eigenvalues --   -0.42312  -0.40863  -0.40063  -0.38445  -0.37466
  Beta  occ. eigenvalues --   -0.36743  -0.35990  -0.35209  -0.34316  -0.33882
  Beta  occ. eigenvalues --   -0.33131  -0.32282  -0.30872  -0.29655  -0.29511
  Beta  occ. eigenvalues --   -0.28467  -0.28113  -0.28104  -0.26918  -0.24085
  Beta  occ. eigenvalues --   -0.22615  -0.19974  -0.18769  -0.18304  -0.18235
  Beta  occ. eigenvalues --   -0.17265  -0.16049  -0.13802
  Beta virt. eigenvalues --    0.06393   0.07076   0.07532   0.07987   0.08305
  Beta virt. eigenvalues --    0.08798   0.09501   0.09953   0.10147   0.10550
  Beta virt. eigenvalues --    0.10980   0.11699   0.12063   0.12283   0.12663

 Mulliken charges and spin densities:
               1          2
     1  C    2.150090  -2.450831
     2  N   -0.164214   0.298546
     3  C   -0.189959   0.168092
     4  C    0.338788  -0.429736
     5  N    0.025219   0.020287
     6  C   -0.900532   0.533051
     7  C    0.290741  -0.906003
     8  C    0.345230  -0.664453
     9  N    0.329173   0.069640
    10  C   -0.693322   0.155451
    11  C    0.974136  -0.367291
    12  N   -0.211888   0.041310
    13  N   -0.072317  -0.020072
    14  C   -0.734862  -0.301121
    15  C    0.128654   0.020950
    16  C   -0.617706  -0.025111
    17  O   -0.273518  -0.001388
    18  H   -0.743648   0.912446
    19  H   -0.550020   0.721640
    20  H   -0.710357   0.922490
    21  H   -0.442283   0.610287
    22  H    0.120622   0.020063
    23  H    0.251481  -0.048971
    24  H   -0.222996   0.410960
    25  H   -0.156547   0.371085
    26  H   -0.128557   0.332323
    27  H   -0.282229   0.501399
    28  H    0.217928  -0.011283
    29  H    0.044826   0.106258
    30  H    0.146810   0.008599
    31  H    0.128945  -0.009802
    32  H    0.150117   0.001584
    33  H    0.189671   0.007338
    34  H    0.262527   0.002263
 Sum of Mulliken charges =  -1.00000   1.00000

 Dipole moment (field-independent basis, Debye):
    X=             -6.6707    Y=              2.7542    Z=             -1.4470  Tot=              7.3606
 Quadrupole moment (field-independent basis, Debye-Ang):
   XX=           -198.4691   YY=           -136.4095   ZZ=           -140.5293
   XY=              0.6498   XZ=            -21.9377   YZ=              0.6377

 Summary of Natural Population Analysis:

                                       Natural Population
                Natural  -----------------------------------------------
    Atom  No    Charge         Core      Valence    Rydberg      Total
 -----------------------------------------------------------------------
      C    1   -0.17710      0.99963     2.16870    0.00877     3.17710
      N    2   -0.20781      0.99962     2.69651    0.01168     3.70781
      C    3   -0.03223      0.99954     2.02099    0.01170     3.03223
      C    4   -0.03918      0.99958     2.02580    0.01381     3.03918
      N    5   -0.26054      0.99970     2.75121    0.00964     3.76054
      C    6    0.19046      0.99959     1.79121    0.01874     2.80954
      C    7   -0.21601      0.99958     2.20750    0.00893     3.21601
      C    8   -0.08179      0.99960     2.07016    0.01203     3.08179
      N    9   -0.10006      0.99966     2.58650    0.01390     3.60006
      C   10   -0.01337      0.99947     2.00222    0.01168     3.01337
      C   11    0.04264      0.99955     1.94173    0.01608     2.95736
      N   12   -0.16459      0.99970     2.65156    0.01333     3.66459
      N   13   -0.03590      0.99977     2.52068    0.01544     3.53590
      C   14   -0.21238      0.99960     2.20139    0.01139     3.21238
      C   15   -0.19227      0.99957     2.18441    0.00829     3.19227
      C   16   -0.02069      0.99961     2.00926    0.01181     3.02069
      O   17   -0.38470      0.99990     3.37834    0.00646     4.38470
      H   18    0.10736      0.00000     0.38850    0.00414     0.39264
      H   19    0.10581      0.00000     0.39142    0.00277     0.39419
      H   20    0.10578      0.00000     0.38530    0.00892     0.39422
      H   21    0.10541      0.00000     0.39360    0.00099     0.39459
      H   22    0.09522      0.00000     0.40375    0.00103     0.40478
      H   23    0.11744      0.00000     0.38127    0.00129     0.38256
      H   24    0.11345      0.00000     0.38519    0.00135     0.38655
      H   25    0.10984      0.00000     0.38869    0.00147     0.39016
      H   26    0.10844      0.00000     0.38892    0.00264     0.39156
      H   27    0.11573      0.00000     0.38250    0.00178     0.38427
      H   28    0.10846      0.00000     0.39022    0.00132     0.39154
      H   29    0.10492      0.00000     0.39404    0.00104     0.39508
      H   30    0.09234      0.00000     0.40680    0.00086     0.40766
      H   31    0.09891      0.00000     0.39991    0.00117     0.40109
      H   32    0.08078      0.00000     0.41816    0.00106     0.41922
      H   33    0.09193      0.00000     0.40621    0.00186     0.40807
      H   34    0.24374      0.00000     0.25369    0.00257     0.25626
 =======================================================================
   * Total *    0.00006     16.99366    45.76634    0.23995    62.99994

 Normal termination of Gaussian 16 at Fri Dec 11 13:31:04 2020.
