 Gaussian 16, Revision A.03,

 -----------------------------------------------------------
 # opt freq B3LYP/6-31G(d) empiricaldispersion=gd3bj scf=xqc
 -----------------------------------------------------------

 -------------------------------
 CID_61690234_JID_10557_neutraal
 -------------------------------
 Symbolic Z-matrix:
 Charge =  0 Multiplicity = 1

 SCF Done:  E(RB3LYP) =  -863.117763682     A.U. after   15 cycles
 SCF Done:  E(RB3LYP) =  -863.119669054     A.U. after   13 cycles
 SCF Done:  E(RB3LYP) =  -863.118215161     A.U. after   13 cycles
 SCF Done:  E(RB3LYP) =  -863.122261839     A.U. after   13 cycles
 SCF Done:  E(RB3LYP) =  -863.122777520     A.U. after   13 cycles
 SCF Done:  E(RB3LYP) =  -863.123865749     A.U. after   13 cycles
 SCF Done:  E(RB3LYP) =  -863.124881521     A.U. after   12 cycles
 SCF Done:  E(RB3LYP) =  -863.125208328     A.U. after   11 cycles
 SCF Done:  E(RB3LYP) =  -863.125361728     A.U. after   11 cycles
 SCF Done:  E(RB3LYP) =  -863.125490154     A.U. after   10 cycles
 SCF Done:  E(RB3LYP) =  -863.125925121     A.U. after    7 cycles
 SCF Done:  E(RB3LYP) =  -863.125925237     A.U. after    8 cycles
 SCF Done:  E(RB3LYP) =  -863.125925281     A.U. after    7 cycles
 SCF Done:  E(RB3LYP) =  -863.125925295     A.U. after    6 cycles
 Optimization completed.
    -- Stationary point found.
 Normal termination of Gaussian 16 at Sun Dec 13 20:41:45 2020.

 --------------------------------------------------------------------
 #N Geom=AllCheck Guess=TCheck SCRF=Check GenChk RB3LYP/6-31G(d) Freq
 --------------------------------------------------------------------

 Structure from the checkpoint file:  "JID_10557.chk"
 -------------------------------
 CID_61690234_JID_10557_neutraal
 -------------------------------
 Charge =  0 Multiplicity = 1

 SCF Done:  E(RB3LYP) =  -863.125925295     A.U. after    1 cycles

  Exact polarizability: 206.365  10.273 194.795  19.270  -1.868 139.062
 Approx polarizability: 268.229  22.309 304.586  41.887   2.317 239.033

                      1                      2                      3
                      A                      A                      A
 Frequencies --     18.6642                48.4113                59.4833
 Red. masses --      4.4670                 3.7029                 5.2013
 Frc consts  --      0.0009                 0.0051                 0.0108
 IR Inten    --      0.0813                 0.1346                 0.3754

                      4                      5                      6
                      A                      A                      A
 Frequencies --     65.8305                89.8962               114.9829
 Red. masses --      3.7328                 4.0203                 4.8027
 Frc consts  --      0.0095                 0.0191                 0.0374
 IR Inten    --      0.1064                 0.5454                 2.8752

                      7                      8                      9
                      A                      A                      A
 Frequencies --    150.6788               173.3762               181.0906
 Red. masses --      2.9255                 2.5321                 2.7314
 Frc consts  --      0.0391                 0.0448                 0.0528
 IR Inten    --      0.7043                 1.7796                 0.1846

                     10                     11                     12
                      A                      A                      A
 Frequencies --    231.2226               254.5682               254.9539
 Red. masses --      3.7047                 1.3231                 2.2032
 Frc consts  --      0.1167                 0.0505                 0.0844
 IR Inten    --      0.7743                 0.1521                 1.0085

                     13                     14                     15
                      A                      A                      A
 Frequencies --    289.3210               314.0792               339.5524
 Red. masses --      2.7605                 2.2785                 3.3677
 Frc consts  --      0.1361                 0.1324                 0.2288
 IR Inten    --      4.6756                 5.3791                 2.3719

                     16                     17                     18
                      A                      A                      A
 Frequencies --    358.3767               372.0164               376.1684
 Red. masses --      3.5491                 2.7568                 4.7339
 Frc consts  --      0.2686                 0.2248                 0.3947
 IR Inten    --      1.8295                 5.6896                11.3270

                     19                     20                     21
                      A                      A                      A
 Frequencies --    410.4709               425.4754               435.7763
 Red. masses --      3.4864                 2.4752                 3.0382
 Frc consts  --      0.3461                 0.2640                 0.3399
 IR Inten    --      2.2420                 3.0894                 0.8065

                     22                     23                     24
                      A                      A                      A
 Frequencies --    448.4910               480.4951               515.7270
 Red. masses --      2.6847                 3.9361                 3.4825
 Frc consts  --      0.3182                 0.5354                 0.5457
 IR Inten    --      0.9439                 9.7830                 0.9007

                     25                     26                     27
                      A                      A                      A
 Frequencies --    520.1318               530.3111               559.0594
 Red. masses --      2.6654                 3.4434                 2.4606
 Frc consts  --      0.4249                 0.5706                 0.4531
 IR Inten    --      8.4618                 4.2700                 1.3510

                     28                     29                     30
                      A                      A                      A
 Frequencies --    590.9923               632.9049               653.7079
 Red. masses --      3.1728                 2.1590                 3.3284
 Frc consts  --      0.6529                 0.5095                 0.8380
 IR Inten    --      0.6307                43.6197                 3.5970

                     31                     32                     33
                      A                      A                      A
 Frequencies --    675.5190               720.5433               768.0233
 Red. masses --      2.6406                 4.4640                 1.3530
 Frc consts  --      0.7100                 1.3655                 0.4702
 IR Inten    --     46.3365                19.9752                24.9567

                     34                     35                     36
                      A                      A                      A
 Frequencies --    770.9027               778.5549               804.9172
 Red. masses --      4.0357                 2.3776                 2.4989
 Frc consts  --      1.4131                 0.8491                 0.9539
 IR Inten    --     23.1083                66.4102                22.1319

                     37                     38                     39
                      A                      A                      A
 Frequencies --    808.1688               846.6986               878.5154
 Red. masses --      2.4431                 2.7760                 2.4890
 Frc consts  --      0.9401                 1.1725                 1.1318
 IR Inten    --     26.6755                 4.3098                17.6755

                     40                     41                     42
                      A                      A                      A
 Frequencies --    881.4074               891.1205               895.4338
 Red. masses --      1.6289                 1.8871                 1.8334
 Frc consts  --      0.7456                 0.8829                 0.8661
 IR Inten    --      6.7704                16.7724                 1.0646

                     43                     44                     45
                      A                      A                      A
 Frequencies --    918.6543               926.8941               956.3299
 Red. masses --      1.8619                 2.2400                 1.4234
 Frc consts  --      0.9258                 1.1339                 0.7670
 IR Inten    --     27.3526                 2.3668                 0.6137

                     46                     47                     48
                      A                      A                      A
 Frequencies --    974.9168               984.7227               986.4951
 Red. masses --      2.3631                 1.3648                 2.0082
 Frc consts  --      1.3233                 0.7797                 1.1514
 IR Inten    --      5.6575                 2.2075                 6.2551

                     49                     50                     51
                      A                      A                      A
 Frequencies --   1004.8506              1024.6568              1049.7536
 Red. masses --      1.6300                 2.1814                 1.8014
 Frc consts  --      0.9697                 1.3494                 1.1696
 IR Inten    --      3.7617                 2.0943                 8.6583

                     52                     53                     54
                      A                      A                      A
 Frequencies --   1069.5631              1091.1635              1096.1819
 Red. masses --      2.3122                 1.7908                 1.8818
 Frc consts  --      1.5585                 1.2562                 1.3323
 IR Inten    --      3.5554                18.0274                18.2608

                     55                     56                     57
                      A                      A                      A
 Frequencies --   1119.5036              1133.1997              1134.3787
 Red. masses --      2.2986                 2.7517                 2.5563
 Frc consts  --      1.6973                 2.0819                 1.9381
 IR Inten    --     27.0205                 7.9319                 8.1556

                     58                     59                     60
                      A                      A                      A
 Frequencies --   1148.8642              1150.6397              1184.4719
 Red. masses --      1.6769                 2.3589                 1.3144
 Frc consts  --      1.3040                 1.8401                 1.0865
 IR Inten    --      7.1401                26.9962                 6.7663

                     61                     62                     63
                      A                      A                      A
 Frequencies --   1194.4007              1195.5479              1202.9548
 Red. masses --      1.1818                 1.8737                 2.3872
 Frc consts  --      0.9933                 1.5779                 2.0354
 IR Inten    --      2.4546                19.2955                23.6656

                     64                     65                     66
                      A                      A                      A
 Frequencies --   1215.7667              1221.4336              1240.1596
 Red. masses --      2.1968                 1.4003                 1.7037
 Frc consts  --      1.9131                 1.2309                 1.5438
 IR Inten    --      0.6549                23.8954                 1.5434

                     67                     68                     69
                      A                      A                      A
 Frequencies --   1241.7216              1256.9994              1291.0891
 Red. masses --      1.6677                 1.5845                 1.4618
 Frc consts  --      1.5150                 1.4751                 1.4356
 IR Inten    --      5.0099                 2.8798                31.4127

                     70                     71                     72
                      A                      A                      A
 Frequencies --   1300.0118              1305.7517              1312.8302
 Red. masses --      1.8365                 1.2520                 1.3113
 Frc consts  --      1.8286                 1.2577                 1.3316
 IR Inten    --      5.8739                 2.6349                18.6457

                     73                     74                     75
                      A                      A                      A
 Frequencies --   1333.6493              1348.6816              1356.5408
 Red. masses --      1.5394                 1.3419                 1.9365
 Frc consts  --      1.6131                 1.4381                 2.0996
 IR Inten    --      9.8720                 7.0303                22.3619

                     76                     77                     78
                      A                      A                      A
 Frequencies --   1357.3948              1365.3902              1377.1004
 Red. masses --      1.2602                 1.5644                 2.1968
 Frc consts  --      1.3681                 1.7183                 2.4545
 IR Inten    --      0.4592                 0.7436                35.0881

                     79                     80                     81
                      A                      A                      A
 Frequencies --   1387.5764              1391.6914              1398.2300
 Red. masses --      1.8694                 1.5245                 1.5099
 Frc consts  --      2.1207                 1.7397                 1.7393
 IR Inten    --     66.5314                59.1556                 8.7775

                     82                     83                     84
                      A                      A                      A
 Frequencies --   1412.4906              1418.6976              1436.0590
 Red. masses --      1.3499                 1.4874                 1.5013
 Frc consts  --      1.5869                 1.7638                 1.8242
 IR Inten    --      6.7783                 1.5622                36.1573

                     85                     86                     87
                      A                      A                      A
 Frequencies --   1485.3222              1502.2052              1507.5366
 Red. masses --      1.1936                 2.0094                 1.6841
 Frc consts  --      1.5515                 2.6716                 2.2550
 IR Inten    --      0.1561                15.3753                29.4825

                     88                     89                     90
                      A                      A                      A
 Frequencies --   1511.5544              1514.8617              1516.3953
 Red. masses --      1.1036                 1.2259                 1.0783
 Frc consts  --      1.4856                 1.6575                 1.4608
 IR Inten    --      9.5479                11.2612                11.5489

                     91                     92                     93
                      A                      A                      A
 Frequencies --   1521.0459              1523.0161              1530.9413
 Red. masses --      1.0846                 1.1405                 1.3167
 Frc consts  --      1.4784                 1.5587                 1.8183
 IR Inten    --      2.1134                 7.3624                 3.6371

                     94                     95                     96
                      A                      A                      A
 Frequencies --   1537.2222              1540.3449              1541.4419
 Red. masses --      1.0525                 1.6857                 1.1092
 Frc consts  --      1.4653                 2.3565                 1.5527
 IR Inten    --      2.3861                 8.6990                12.3816

                     97                     98                     99
                      A                      A                      A
 Frequencies --   1563.2842              1641.3653              1667.4201
 Red. masses --      1.1805                 6.0134                 6.0857
 Frc consts  --      1.6998                 9.5450                 9.9690
 IR Inten    --     24.1721                 0.3019                 0.4200

                    100                    101                    102
                      A                      A                      A
 Frequencies --   1752.3653              2877.5929              2902.5921
 Red. masses --      7.4986                 1.0729                 1.0728
 Frc consts  --     13.5669                 5.2343                 5.3254
 IR Inten    --    382.5035                50.0233                71.9907

                    103                    104                    105
                      A                      A                      A
 Frequencies --   2941.5380              3016.9402              3027.9292
 Red. masses --      1.0617                 1.0838                 1.0711
 Frc consts  --      5.4128                 5.8121                 5.7859
 IR Inten    --    125.6062                38.5613                24.0174

                    106                    107                    108
                      A                      A                      A
 Frequencies --   3037.4151              3055.6586              3058.3282
 Red. masses --      1.0690                 1.0612                 1.0593
 Frc consts  --      5.8110                 5.8379                 5.8375
 IR Inten    --     57.2090                18.2394                19.8947

                    109                    110                    111
                      A                      A                      A
 Frequencies --   3077.6322              3080.1928              3086.2407
 Red. masses --      1.0769                 1.0807                 1.0854
 Frc consts  --      6.0099                 6.0409                 6.0911
 IR Inten    --     19.5594                59.5441                35.1792

                    112                    113                    114
                      A                      A                      A
 Frequencies --   3098.2608              3098.8253              3104.2016
 Red. masses --      1.1042                 1.0987                 1.1038
 Frc consts  --      6.2451                 6.2163                 6.2667
 IR Inten    --     34.9037                38.7511                29.3427

                    115                    116                    117
                      A                      A                      A
 Frequencies --   3122.3312              3123.6775              3168.0200
 Red. masses --      1.0926                 1.1041                 1.0842
 Frc consts  --      6.2757                 6.3476                 6.4110
 IR Inten    --     15.7206                30.7869                10.2968

                    118                    119                    120
                      A                      A                      A
 Frequencies --   3176.8281              3181.3104              3194.7265
 Red. masses --      1.0857                 1.0885                 1.0918
 Frc consts  --      6.4558                 6.4907                 6.5655
 IR Inten    --     11.1189                 1.9068                28.6877

                    121                    122                    123
                      A                      A                      A
 Frequencies --   3209.1933              3497.7686              3559.8985
 Red. masses --      1.0972                 1.0722                 1.0748
 Frc consts  --      6.6579                 7.7291                 8.0248
 IR Inten    --     23.1262                19.5025                11.8589

 - Thermochemistry -
 -------------------
 Temperature   298.150 Kelvin.  Pressure   1.00000 Atm.
 Atom     1 has atomic number  6 and mass  12.00000

 Molecular mass:   273.18411 amu.
 Principal axes and moments of inertia in atomic units:
                           1         2         3
     Eigenvalues --  3152.769527351.893369292.34153
           X            0.99999  -0.00158   0.00346
           Y            0.00162   0.99993  -0.01212
           Z           -0.00344   0.01213   0.99992
 This molecule is an asymmetric top.
 Rotational symmetry number  1.
 Warning -- assumption of classical behavior for rotation
           may cause significant error
 Rotational temperatures (Kelvin)      0.02747     0.01178     0.00932
 Rotational constants (GHZ):           0.57243     0.24548     0.19422
 Zero-point vibrational energy     997008.8 (Joules/Mol)
                                  238.29082 (Kcal/Mol)
 Warning -- explicit consideration of  28 degrees of freedom as
           vibrations may cause significant error
 Vibrational temperatures:     26.85    69.65    85.58    94.72   129.34
          (Kelvin)            165.43   216.79   249.45   260.55   332.68
                              366.27   366.82   416.27   451.89   488.54
                              515.62   535.25   541.22   590.58   612.16
                              626.98   645.28   691.33   742.02   748.35
                              763.00   804.36   850.31   910.61   940.54
                              971.92  1036.70  1105.01  1109.16  1120.17
                             1158.10  1162.77  1218.21  1263.99  1268.15
                             1282.12  1288.33  1321.74  1333.59  1375.95
                             1402.69  1416.80  1419.35  1445.76  1474.25
                             1510.36  1538.86  1569.94  1577.16  1610.72
                             1630.42  1632.12  1652.96  1655.51  1704.19
                             1718.48  1720.13  1730.78  1749.22  1757.37
                             1784.31  1786.56  1808.54  1857.59  1870.43
                             1878.69  1888.87  1918.82  1940.45  1951.76
                             1952.99  1964.49  1981.34  1996.41  2002.33
                             2011.74  2032.26  2041.19  2066.17  2137.05
                             2161.34  2169.01  2174.79  2179.55  2181.75
                             2188.45  2191.28  2202.68  2211.72  2216.21
                             2217.79  2249.22  2361.56  2399.05  2521.26
                             4140.21  4176.18  4232.22  4340.70  4356.51
                             4370.16  4396.41  4400.25  4428.03  4431.71
                             4440.41  4457.71  4458.52  4466.25  4492.34
                             4494.28  4558.07  4570.75  4577.20  4596.50
                             4617.31  5032.51  5121.90

 Zero-point correction=                           0.379741 (Hartree/Particle)
 Thermal correction to Energy=                    0.397378
 Thermal correction to Enthalpy=                  0.398322
 Thermal correction to Gibbs Free Energy=         0.333679
 Sum of electronic and zero-point Energies=           -862.746185
 Sum of electronic and thermal Energies=              -862.728547
 Sum of electronic and thermal Enthalpies=            -862.727603
 Sum of electronic and thermal Free Energies=         -862.792246

                     E (Thermal)             CV                S
                      KCal/Mol        Cal/Mol-Kelvin    Cal/Mol-Kelvin
 Total                  249.358             70.964            136.053
 Electronic               0.000              0.000              0.000
 Translational            0.889              2.981             42.714
 Rotational               0.889              2.981             33.732
 Vibrational            247.581             65.002             59.607
 Vibration     1          0.593              1.986              6.771
 Vibration     2          0.595              1.978              4.881
 Vibration     3          0.597              1.974              4.474
 Vibration     4          0.597              1.971              4.274
 Vibration     5          0.602              1.956              3.662
 Vibration     6          0.608              1.937              3.183
 Vibration     7          0.618              1.902              2.664
 Vibration     8          0.627              1.875              2.399
 Vibration     9          0.630              1.865              2.317
 Vibration    10          0.653              1.793              1.869
 Vibration    11          0.665              1.755              1.699
 Vibration    12          0.665              1.754              1.696
 Vibration    13          0.686              1.694              1.478
 Vibration    14          0.702              1.647              1.341
 Vibration    15          0.719              1.596              1.214
 Vibration    16          0.733              1.558              1.129
 Vibration    17          0.744              1.530              1.071
 Vibration    18          0.747              1.521              1.055
 Vibration    19          0.775              1.447              0.925
 Vibration    20          0.787              1.415              0.874
 Vibration    21          0.796              1.392              0.840
 Vibration    22          0.808              1.364              0.800
 Vibration    23          0.837              1.293              0.709
 Vibration    24          0.871              1.215              0.620
 Vibration    25          0.875              1.205              0.610
 Vibration    26          0.885              1.183              0.587
 Vibration    27          0.915              1.120              0.526
 Vibration    28          0.948              1.051              0.465

 Optimization completed.
    -- Stationary point found.
 Normal termination of Gaussian 16 at Sun Dec 13 21:11:57 2020.

 ----------------------------------------------------------------------
 # B3LYP/6-311++G(d,p) empiricaldispersion=gd3bj scf=xqc pop=npa geom=c
 heck
 ----------------------------------------------------------------------

 ---------------------------------------
 CID_61690234_JID_10557_Energie_neutraal
 ---------------------------------------
 Structure from the checkpoint file:  "JID_10557.chk"
 Charge =  0 Multiplicity = 1

 SCF Done:  E(RB3LYP) =  -863.361862393     A.U. after   16 cycles
 Normal termination of Gaussian 16 at Sun Dec 13 21:26:32 2020.

 ----------------------------------------------------------------------
 # B3LYP/6-311++G(d,p) empiricaldispersion=gd3bj scf=xqc pop=npa geom=c
 heck
 ----------------------------------------------------------------------

 -------------------------------------
 CID_61690234_JID_10557_Energie_kation
 -------------------------------------
 Structure from the checkpoint file:  "JID_10557.chk"
 Charge =  1 Multiplicity = 2

 SCF Done:  E(UB3LYP) =  -863.077888762     A.U. after   33 cycles
 SCF Done:  E(UB3LYP) =  -863.077888762     a.u. after    1 cycles
 Normal termination of Gaussian 16 at Sun Dec 13 22:10:04 2020.
 Gaussian 16:  ES64L-G16RevA.03 25-Dec-2016

 ----------------------------------------------------------------------
 # B3LYP/6-311++G(d,p) empiricaldispersion=gd3bj scf=xqc pop=npa geom=c
 heck
 ----------------------------------------------------------------------

 ------------------------------------
 CID_61690234_JID_10557_Energie_anion
 ------------------------------------
 Structure from the checkpoint file:  "JID_10557.chk"
 Charge = -1 Multiplicity = 2

                         Standard orientation:
 ---------------------------------------------------------------------
 Center     Atomic      Atomic             Coordinates (Angstroms)
 Number     Number       Type             X           Y           Z
 ---------------------------------------------------------------------
      1          6           0        5.044033   -0.756510    0.816921
      2          7           0        3.750560   -0.175224    0.496052
      3          6           0        3.875682    0.930955   -0.452512
      4          6           0        2.524717    1.609398   -0.680444
      5          6           0        1.477241    0.595302   -1.146858
      6          6           0        1.418755   -0.586081   -0.170593
      7          6           0        2.815998   -1.187760    0.021990
      8          7           0        0.501015   -1.624314   -0.616289
      9          6           0       -0.792240   -1.875793   -0.275810
     10          8           0       -1.413219   -2.770751   -0.847989
     11          6           0       -1.475302   -1.078267    0.890575
     12          6           0       -1.542527    0.408866    0.608899
     13          6           0       -0.761511    1.347684    1.284688
     14          6           0       -0.819304    2.698215    0.940006
     15          6           0       -1.683185    3.117705   -0.072534
     16          6           0       -2.517539    2.192047   -0.701711
     17          6           0       -2.462100    0.838639   -0.363383
     18          6           0       -3.442934   -0.192043   -0.859447
     19          6           0       -3.907261   -0.987138    0.379589
     20          7           0       -2.811649   -1.646099    1.117886
     21          1           0        5.550422   -1.201195   -0.062312
     22          1           0        5.700880    0.015231    1.231820
     23          1           0        4.919832   -1.541674    1.570229
     24          1           0        4.597053    1.647666   -0.043910
     25          1           0        4.282767    0.579605   -1.424374
     26          1           0        2.634268    2.413397   -1.417306
     27          1           0        2.192186    2.069488    0.257819
     28          1           0        1.749176    0.209168   -2.140299
     29          1           0        0.489746    1.056518   -1.234677
     30          1           0        1.087554   -0.232558    0.803975
     31          1           0        3.151664   -1.641792   -0.936998
     32          1           0        2.764500   -1.996034    0.759568
     33          1           0        0.805587   -2.192315   -1.400257
     34          1           0       -0.858396   -1.243185    1.785756
     35          1           0       -0.102179    1.023522    2.085970
     36          1           0       -0.199103    3.418650    1.465442
     37          1           0       -1.731129    4.167209   -0.349033
     38          1           0       -3.232690    2.523791   -1.450603
     39          1           0       -2.987773   -0.880612   -1.580692
     40          1           0       -4.294839    0.291472   -1.351092
     41          1           0       -4.627701   -1.759704    0.093713
     42          1           0       -4.426544   -0.291481    1.051749
     43          1           0       -2.754154   -2.601019    0.769623
 ---------------------------------------------------------------------

 SCF Done:  E(UB3LYP) =  -863.351119789     A.U. after   33 cycles
 SCF Done:  E(UB3LYP) =  -863.351119789     a.u. after    1 cycles

 The electronic state is 2-A.
 Alpha  occ. eigenvalues --  -19.00303 -14.25093 -14.21767 -14.20511 -10.18518
 Alpha  occ. eigenvalues --  -10.12631 -10.12356 -10.10788 -10.10715 -10.09859
 Alpha  occ. eigenvalues --  -10.09484 -10.09053 -10.08970 -10.08328 -10.08162
 Alpha  occ. eigenvalues --  -10.08118 -10.08070 -10.07985 -10.07569 -10.07300
 Alpha  occ. eigenvalues --   -0.95601  -0.85174  -0.83140  -0.82596  -0.76521
 Alpha  occ. eigenvalues --   -0.70609  -0.69357  -0.67772  -0.66502  -0.64016
 Alpha  occ. eigenvalues --   -0.60496  -0.58436  -0.55037  -0.53795  -0.53085
 Alpha  occ. eigenvalues --   -0.52157  -0.49863  -0.47321  -0.45974  -0.43525
 Alpha  occ. eigenvalues --   -0.41938  -0.40804  -0.39754  -0.38734  -0.38035
 Alpha  occ. eigenvalues --   -0.37243  -0.36036  -0.35956  -0.35140  -0.34927
 Alpha  occ. eigenvalues --   -0.33675  -0.32746  -0.32440  -0.31692  -0.31124
 Alpha  occ. eigenvalues --   -0.30935  -0.30115  -0.29899  -0.29056  -0.28193
 Alpha  occ. eigenvalues --   -0.27630  -0.27220  -0.26355  -0.24652  -0.24515
 Alpha  occ. eigenvalues --   -0.24247  -0.23408  -0.23255  -0.18668  -0.17013
 Alpha  occ. eigenvalues --   -0.16295  -0.15127  -0.13898  -0.13329   0.04030
 Alpha virt. eigenvalues --    0.05794   0.06428   0.06699   0.07174   0.07481
 Alpha virt. eigenvalues --    0.07708   0.07767   0.08829   0.09096   0.09451
 Alpha virt. eigenvalues --    0.09688   0.10032   0.10237   0.10623   0.11328

  Beta  occ. eigenvalues --  -19.00276 -14.25091 -14.21757 -14.20509 -10.18483
  Beta  occ. eigenvalues --  -10.12633 -10.12355 -10.10770 -10.10714 -10.09836
  Beta  occ. eigenvalues --  -10.09450 -10.09061 -10.08937 -10.08323 -10.08139
  Beta  occ. eigenvalues --  -10.08088 -10.08028 -10.07925 -10.07566 -10.07287
  Beta  occ. eigenvalues --   -0.95549  -0.85154  -0.83118  -0.82575  -0.76451
  Beta  occ. eigenvalues --   -0.70587  -0.69324  -0.67701  -0.66466  -0.63933
  Beta  occ. eigenvalues --   -0.60448  -0.58378  -0.55002  -0.53774  -0.53035
  Beta  occ. eigenvalues --   -0.52043  -0.49820  -0.47269  -0.45934  -0.43483
  Beta  occ. eigenvalues --   -0.41887  -0.40755  -0.39718  -0.38700  -0.37976
  Beta  occ. eigenvalues --   -0.37211  -0.35992  -0.35923  -0.35109  -0.34876
  Beta  occ. eigenvalues --   -0.33640  -0.32717  -0.32383  -0.31656  -0.31083
  Beta  occ. eigenvalues --   -0.30893  -0.30064  -0.29866  -0.29021  -0.28140
  Beta  occ. eigenvalues --   -0.27570  -0.27173  -0.26253  -0.24623  -0.24480
  Beta  occ. eigenvalues --   -0.24206  -0.23371  -0.23221  -0.18583  -0.16943
  Beta  occ. eigenvalues --   -0.16034  -0.15016  -0.13857  -0.13270
  Beta virt. eigenvalues --    0.06092   0.06529   0.06834   0.07182   0.07518
  Beta virt. eigenvalues --    0.07593   0.08025   0.08178   0.09101   0.09417
  Beta virt. eigenvalues --    0.09650   0.10102   0.10312   0.10421   0.10918

 Mulliken charges and spin densities:
               1          2
     1  C    0.745048  -1.030054
     2  N    0.035253   0.221910
     3  C    0.383756  -0.892890
     4  C   -0.785276   0.249388
     5  C    0.375553  -0.143424
     6  C   -1.407003   0.844005
     7  C    0.812775  -1.211976
     8  N   -0.098153   0.056424
     9  C   -0.070075  -0.106325
    10  O   -0.331965   0.012893
    11  C    0.843291  -1.007454
    12  C   -0.488492   0.701361
    13  C    0.153010  -0.117790
    14  C    0.293475  -0.712399
    15  C    0.351985  -0.625241
    16  C    0.036496   0.017335
    17  C   -0.817297   0.607134
    18  C   -0.212037  -0.165052
    19  C   -0.516800  -0.054767
    20  N   -0.005291   0.028280
    21  H   -0.217362   0.325381
    22  H   -0.218340   0.361145
    23  H   -0.304426   0.435988
    24  H   -0.464629   0.644458
    25  H    0.071516   0.033021
    26  H   -0.378454   0.556107
    27  H    0.341612  -0.183058
    28  H    0.085952   0.073788
    29  H    0.351226  -0.153382
    30  H    0.311544  -0.123694
    31  H   -0.041435   0.129261
    32  H    0.117035   0.094312
    33  H    0.268270   0.038620
    34  H    0.044304   0.246372
    35  H   -0.172215   0.355795
    36  H   -0.328276   0.506525
    37  H   -0.437242   0.607701
    38  H   -0.057178   0.224155
    39  H    0.199182  -0.000330
    40  H    0.032588   0.108031
    41  H    0.133995   0.013884
    42  H    0.118370   0.039603
    43  H    0.245708  -0.005042
 Sum of Mulliken charges =  -1.00000   1.00000

 Dipole moment (field-independent basis, Debye):
    X=             -5.3443    Y=             -3.0811    Z=             -2.2125  Tot=              6.5536
 Quadrupole moment (field-independent basis, Debye-Ang):
   XX=           -212.0820   YY=           -184.0045   ZZ=           -156.0765
   XY=             -1.7626   XZ=             -2.4431   YZ=              1.3052

 Summary of Natural Population Analysis:

                                       Natural Population
                Natural  -----------------------------------------------
    Atom  No    Charge         Core      Valence    Rydberg      Total
 -----------------------------------------------------------------------
      C    1   -0.17498      0.99965     2.16680    0.00853     3.17498
      N    2   -0.27846      0.99971     2.76656    0.01218     3.77846
      C    3   -0.08260      0.99961     2.07147    0.01152     3.08260
      C    4   -0.19509      0.99962     2.18618    0.00929     3.19509
      C    5   -0.19237      0.99960     2.18473    0.00804     3.19237
      C    6   -0.02163      0.99956     2.00998    0.01210     3.02163
      C    7   -0.08074      0.99959     2.06935    0.01180     3.08074
      N    8   -0.31243      0.99965     2.80264    0.01015     3.81243
      C    9    0.34936      0.99966     1.62689    0.02409     2.65064
      O   10   -0.33579      0.99988     3.33042    0.00549     4.33579
      C   11   -0.05335      0.99953     2.04103    0.01279     3.05335
      C   12   -0.02026      0.99944     2.00985    0.01097     3.02026
      C   13   -0.09175      0.99951     2.08186    0.01038     3.09175
      C   14   -0.10353      0.99955     2.09373    0.01025     3.10353
      C   15   -0.09419      0.99956     2.08456    0.01007     3.09419
      C   16   -0.09258      0.99951     2.08299    0.01008     3.09258
      C   17   -0.01298      0.99946     2.00340    0.01012     3.01298
      C   18   -0.21243      0.99960     2.20480    0.00804     3.21243
      C   19   -0.08106      0.99963     2.07155    0.00989     3.08106
      N   20   -0.33937      0.99975     2.82844    0.01118     3.83937
      H   21    0.08037      0.00000     0.41811    0.00152     0.41963
      H   22    0.09829      0.00000     0.40031    0.00141     0.40171
      H   23    0.09586      0.00000     0.40287    0.00127     0.40414
      H   24    0.10055      0.00000     0.39782    0.00162     0.39945
      H   25    0.07693      0.00000     0.42145    0.00162     0.42307
      H   26    0.10201      0.00000     0.39700    0.00099     0.39799
      H   27    0.10106      0.00000     0.39689    0.00206     0.39894
      H   28    0.09219      0.00000     0.40648    0.00134     0.40781
      H   29    0.11069      0.00000     0.38750    0.00181     0.38931
      H   30    0.10662      0.00000     0.39026    0.00312     0.39338
      H   31    0.07637      0.00000     0.42188    0.00176     0.42363
      H   32    0.10128      0.00000     0.39739    0.00132     0.39872
      H   33    0.19172      0.00000     0.30602    0.00225     0.30828
      H   34    0.10808      0.00000     0.38959    0.00233     0.39192
      H   35    0.10173      0.00000     0.39638    0.00189     0.39827
      H   36    0.10344      0.00000     0.39533    0.00122     0.39656
      H   37    0.10168      0.00000     0.39715    0.00117     0.39832
      H   38    0.09864      0.00000     0.40030    0.00106     0.40136
      H   39    0.11076      0.00000     0.38801    0.00123     0.38924
      H   40    0.10192      0.00000     0.39704    0.00104     0.39808
      H   41    0.09268      0.00000     0.40642    0.00089     0.40732
      H   42    0.08783      0.00000     0.41085    0.00132     0.41217
      H   43    0.18554      0.00000     0.31206    0.00239     0.31446
 =======================================================================
   * Total *   -0.00000     19.99207    53.75434    0.25359    74.00000

 Normal termination of Gaussian 16 at Sun Dec 13 22:54:13 2020.
