 Gaussian 16, Revision A.03,

 -----------------------------------------------------------
 # opt freq B3LYP/6-31G(d) empiricaldispersion=gd3bj scf=xqc
 -----------------------------------------------------------

 -------------------------------
 CID_131845947_JID_2722_neutraal
 -------------------------------
 Symbolic Z-matrix:
 Charge =  0 Multiplicity = 1

 SCF Done:  E(RB3LYP) =  -879.000726016     A.U. after   15 cycles
 SCF Done:  E(RB3LYP) =  -879.007427379     A.U. after   13 cycles
 SCF Done:  E(RB3LYP) =  -879.006186125     A.U. after   13 cycles
 SCF Done:  E(RB3LYP) =  -879.008323497     A.U. after   12 cycles
 SCF Done:  E(RB3LYP) =  -879.008606708     A.U. after   13 cycles
 SCF Done:  E(RB3LYP) =  -879.008656070     A.U. after   12 cycles
 SCF Done:  E(RB3LYP) =  -879.008737961     A.U. after   11 cycles
 SCF Done:  E(RB3LYP) =  -879.008752086     A.U. after   11 cycles
 SCF Done:  E(RB3LYP) =  -879.008754875     A.U. after    8 cycles
 SCF Done:  E(RB3LYP) =  -879.008756025     A.U. after    9 cycles
 SCF Done:  E(RB3LYP) =  -879.008756168     A.U. after    7 cycles
 Optimization completed.
    -- Stationary point found.
 Normal termination of Gaussian 16 at Wed Dec  9 17:55:42 2020.

 --------------------------------------------------------------------
 #N Geom=AllCheck Guess=TCheck SCRF=Check GenChk RB3LYP/6-31G(d) Freq
 --------------------------------------------------------------------

 Structure from the checkpoint file:  "JID_2722.chk"
 -------------------------------
 CID_131845947_JID_2722_neutraal
 -------------------------------
 Charge =  0 Multiplicity = 1

 SCF Done:  E(RB3LYP) =  -879.008756168     A.U. after    1 cycles

  Exact polarizability: 146.642  20.535  95.284  -0.075   4.830 116.068
 Approx polarizability: 212.350  40.371 141.785 -12.442   7.283 209.721

                      1                      2                      3
                      A                      A                      A
 Frequencies --     32.2581                55.8759                69.4236
 Red. masses --      4.3600                 4.2922                 3.4577
 Frc consts  --      0.0027                 0.0079                 0.0098
 IR Inten    --      1.1956                 0.1581                 0.9833

                      4                      5                      6
                      A                      A                      A
 Frequencies --    122.1963               158.5532               182.6563
 Red. masses --      3.4877                 1.7449                 3.6562
 Frc consts  --      0.0307                 0.0258                 0.0719
 IR Inten    --      0.4009                 0.1294                 1.1593

                      7                      8                      9
                      A                      A                      A
 Frequencies --    214.3676               229.3907               255.6962
 Red. masses --      3.2501                 3.2473                 2.3478
 Frc consts  --      0.0880                 0.1007                 0.0904
 IR Inten    --      1.5921                 0.7710                 2.3099

                     10                     11                     12
                      A                      A                      A
 Frequencies --    297.9019               364.4153               406.4389
 Red. masses --      2.3873                 2.1257                 5.3403
 Frc consts  --      0.1248                 0.1663                 0.5198
 IR Inten    --      1.1575                 0.6571                 0.7068

                     13                     14                     15
                      A                      A                      A
 Frequencies --    433.3893               470.9900               490.7660
 Red. masses --      3.2247                 2.3604                 5.1013
 Frc consts  --      0.3569                 0.3085                 0.7239
 IR Inten    --      5.1135                 0.7893                 4.3831

                     16                     17                     18
                      A                      A                      A
 Frequencies --    546.2574               592.3251               642.6279
 Red. masses --      7.9071                 2.8812                 4.2364
 Frc consts  --      1.3901                 0.5956                 1.0308
 IR Inten    --      6.7332                14.6950                 8.3416

                     19                     20                     21
                      A                      A                      A
 Frequencies --    688.4920               698.2740               731.0518
 Red. masses --      6.3312                 1.6383                 2.2031
 Frc consts  --      1.7682                 0.4706                 0.6937
 IR Inten    --      2.5091                30.7456                 3.1473

                     22                     23                     24
                      A                      A                      A
 Frequencies --    751.4302               800.3708               811.3531
 Red. masses --      1.2963                 1.5642                 2.0274
 Frc consts  --      0.4312                 0.5904                 0.7863
 IR Inten    --     25.2681                66.4511                17.3930

                     25                     26                     27
                      A                      A                      A
 Frequencies --    868.4258               888.2848               893.5789
 Red. masses --      1.4946                 1.5928                 3.4585
 Frc consts  --      0.6641                 0.7405                 1.6270
 IR Inten    --      1.7171                 0.2618                 7.2966

                     28                     29                     30
                      A                      A                      A
 Frequencies --    936.4648               986.3569              1003.2342
 Red. masses --      1.9167                 1.7409                 1.3175
 Frc consts  --      0.9903                 0.9979                 0.7813
 IR Inten    --      6.2679                 0.9583                 1.4960

                     31                     32                     33
                      A                      A                      A
 Frequencies --   1011.6721              1068.8900              1082.5089
 Red. masses --      5.4175                 2.2783                 1.8750
 Frc consts  --      3.2668                 1.5337                 1.2946
 IR Inten    --     25.2988                 0.9575                 1.4639

                     34                     35                     36
                      A                      A                      A
 Frequencies --   1105.0053              1129.0690              1142.5223
 Red. masses --      1.3882                 1.8577                 1.8913
 Frc consts  --      0.9987                 1.3953                 1.4546
 IR Inten    --      1.9949                 1.3136                 6.7146

                     37                     38                     39
                      A                      A                      A
 Frequencies --   1177.1101              1222.5840              1239.1745
 Red. masses --      1.3569                 1.2695                 2.4260
 Frc consts  --      1.1077                 1.1180                 2.1948
 IR Inten    --     23.9416                 1.0976                 2.1844

                     40                     41                     42
                      A                      A                      A
 Frequencies --   1270.2849              1326.0663              1342.1877
 Red. masses --      1.3239                 1.2163                 1.1736
 Frc consts  --      1.2586                 1.2602                 1.2456
 IR Inten    --      0.4045                14.7860                17.9330

                     43                     44                     45
                      A                      A                      A
 Frequencies --   1359.0064              1401.6933              1407.3348
 Red. masses --      1.3526                 1.3508                 1.4704
 Frc consts  --      1.4719                 1.5637                 1.7158
 IR Inten    --      3.6556                 3.5786                 4.5395

                     46                     47                     48
                      A                      A                      A
 Frequencies --   1446.9783              1448.4518              1468.1899
 Red. masses --      1.3681                 1.9627                 2.4424
 Frc consts  --      1.6876                 2.4261                 3.1020
 IR Inten    --      2.9701                 2.4046                13.7644

                     49                     50                     51
                      A                      A                      A
 Frequencies --   1491.7613              1508.3458              1522.0702
 Red. masses --      1.0949                 1.0931                 1.0611
 Frc consts  --      1.4356                 1.4652                 1.4484
 IR Inten    --      3.5313                 2.7564                 5.2739

                     52                     53                     54
                      A                      A                      A
 Frequencies --   1532.7325              1540.7937              1584.6258
 Red. masses --      1.0581                 1.0597                 5.0780
 Frc consts  --      1.4646                 1.4822                 7.5127
 IR Inten    --      8.2634                 1.1901               168.8433

                     55                     56                     57
                      A                      A                      A
 Frequencies --   1658.1524              1793.3770              3022.3284
 Red. masses --      5.5690                 8.6479                 1.0665
 Frc consts  --      9.0215                16.3872                 5.7398
 IR Inten    --     33.5663               549.0491                30.2127

                     58                     59                     60
                      A                      A                      A
 Frequencies --   3050.3530              3050.7466              3076.0959
 Red. masses --      1.0596                 1.0465                 1.0915
 Frc consts  --      5.8088                 5.7385                 6.0853
 IR Inten    --     28.6177                18.0385                21.1581

                     61                     62                     63
                      A                      A                      A
 Frequencies --   3086.9957              3093.1636              3116.2925
 Red. masses --      1.0655                 1.0940                 1.1002
 Frc consts  --      5.9826                 6.1667                 6.2948
 IR Inten    --     16.4533                21.1845                37.0147

                     64                     65                     66
                      A                      A                      A
 Frequencies --   3130.4879              3136.9598              3192.2846
 Red. masses --      1.1018                 1.1044                 1.0894
 Frc consts  --      6.3619                 6.4034                 6.5410
 IR Inten    --     35.2562                16.4628                16.4995

                     67                     68                     69
                      A                      A                      A
 Frequencies --   3238.8527              3250.1156              3591.7402
 Red. masses --      1.0934                 1.0933                 1.0773
 Frc consts  --      6.7581                 6.8042                 8.1887
 IR Inten    --      3.3244                 0.3368                44.4674

 - Thermochemistry -
 -------------------
 Temperature   298.150 Kelvin.  Pressure   1.00000 Atm.
 Atom     1 has atomic number  6 and mass  12.00000

 Molecular mass:   183.07179 amu.
 Principal axes and moments of inertia in atomic units:
                           1         2         3
     Eigenvalues --  1520.557543255.795653475.86676
           X            0.99950  -0.02096   0.02362
           Y            0.01934   0.99756   0.06706
           Z           -0.02497  -0.06657   0.99747
 This molecule is an asymmetric top.
 Rotational symmetry number  1.
 Warning -- assumption of classical behavior for rotation
           may cause significant error
 Rotational temperatures (Kelvin)      0.05696     0.02660     0.02492
 Rotational constants (GHZ):           1.18689     0.55432     0.51922
 Zero-point vibrational energy     549922.4 (Joules/Mol)
                                  131.43462 (Kcal/Mol)
 Warning -- explicit consideration of  17 degrees of freedom as
           vibrations may cause significant error
 Vibrational temperatures:     46.41    80.39    99.89   175.81   228.12
          (Kelvin)            262.80   308.43   330.04   367.89   428.61
                              524.31   584.77   623.55   677.65   706.10
                              785.94   852.22   924.60   990.59  1004.66
                             1051.82  1081.14  1151.56  1167.36  1249.47
                             1278.04  1285.66  1347.36  1419.15  1443.43
                             1455.57  1537.89  1557.49  1589.86  1624.48
                             1643.83  1693.60  1759.03  1782.90  1827.66
                             1907.91  1931.11  1955.31  2016.72  2024.84
                             2081.88  2084.00  2112.40  2146.31  2170.17
                             2189.92  2205.26  2216.86  2279.92  2385.71
                             2580.27  4348.46  4388.78  4389.34  4425.82
                             4441.50  4450.37  4483.65  4504.07  4513.39
                             4592.99  4659.99  4676.19  5167.71

 Zero-point correction=                           0.209454 (Hartree/Particle)
 Thermal correction to Energy=                    0.221725
 Thermal correction to Enthalpy=                  0.222669
 Thermal correction to Gibbs Free Energy=         0.169967
 Sum of electronic and zero-point Energies=           -878.799302
 Sum of electronic and thermal Energies=              -878.787032
 Sum of electronic and thermal Enthalpies=            -878.786087
 Sum of electronic and thermal Free Energies=         -878.838789

                     E (Thermal)             CV                S
                      KCal/Mol        Cal/Mol-Kelvin    Cal/Mol-Kelvin
 Total                  139.134             45.838            110.919
 Electronic               0.000              0.000              0.000
 Translational            0.889              2.981             41.521
 Rotational               0.889              2.981             31.221
 Vibrational            137.357             39.876             38.178
 Vibration     1          0.594              1.983              5.685
 Vibration     2          0.596              1.975              4.598
 Vibration     3          0.598              1.969              4.170
 Vibration     4          0.610              1.931              3.065
 Vibration     5          0.621              1.893              2.567
 Vibration     6          0.630              1.863              2.301
 Vibration     7          0.644              1.819              2.006
 Vibration     8          0.652              1.796              1.884
 Vibration     9          0.666              1.753              1.691
 Vibration    10          0.691              1.678              1.429
 Vibration    11          0.738              1.546              1.103
 Vibration    12          0.771              1.456              0.939
 Vibration    13          0.794              1.397              0.848
 Vibration    14          0.828              1.314              0.735
 Vibration    15          0.847              1.271              0.682
 Vibration    16          0.901              1.148              0.552
 Vibration    17          0.950              1.048              0.463

 Optimization completed.
    -- Stationary point found.
 Normal termination of Gaussian 16 at Wed Dec  9 18:01:53 2020.

 ----------------------------------------------------------------------
 # B3LYP/6-311++G(d,p) empiricaldispersion=gd3bj scf=xqc pop=npa geom=c
 heck
 ----------------------------------------------------------------------

 ---------------------------------------
 CID_131845947_JID_2722_Energie_neutraal
 ---------------------------------------
 Structure from the checkpoint file:  "JID_2722.chk"
 Charge =  0 Multiplicity = 1

 SCF Done:  E(RB3LYP) =  -879.173767597     A.U. after   16 cycles
 Normal termination of Gaussian 16 at Wed Dec  9 18:05:24 2020.

 ----------------------------------------------------------------------
 # B3LYP/6-311++G(d,p) empiricaldispersion=gd3bj scf=xqc pop=npa geom=c
 heck
 ----------------------------------------------------------------------

 -------------------------------------
 CID_131845947_JID_2722_Energie_kation
 -------------------------------------
 Structure from the checkpoint file:  "JID_2722.chk"
 Charge =  1 Multiplicity = 2

 SCF Done:  E(UB3LYP) =  -878.877633476     A.U. after   25 cycles
 Normal termination of Gaussian 16 at Wed Dec  9 18:13:27 2020.
 Gaussian 16:  ES64L-G16RevA.03 25-Dec-2016

 ----------------------------------------------------------------------
 # B3LYP/6-311++G(d,p) empiricaldispersion=gd3bj scf=xqc pop=npa geom=c
 heck
 ----------------------------------------------------------------------

 ------------------------------------
 CID_131845947_JID_2722_Energie_anion
 ------------------------------------
 Structure from the checkpoint file:  "JID_2722.chk"
 Charge = -1 Multiplicity = 2

                         Standard orientation:
 ---------------------------------------------------------------------
 Center     Atomic      Atomic             Coordinates (Angstroms)
 Number     Number       Type             X           Y           Z
 ---------------------------------------------------------------------
      1          6           0       -1.268363    2.267177   -0.422153
      2          6           0       -2.256997    1.475305    0.438228
      3          6           0       -2.984964    0.350025   -0.307781
      4          6           0       -2.090173   -0.734814   -0.911637
      5         16           0       -1.132023   -1.724055    0.329376
      6          6           0        0.368187   -0.780059    0.460342
      7          6           0        0.802585   -0.230976    1.635463
      8          6           0        2.042488    0.472530    1.638501
      9          6           0        2.784753    0.628051    0.503581
     10          6           0        2.361604    0.056744   -0.761578
     11          8           0        2.948121    0.113797   -1.836204
     12          7           0        1.134945   -0.643046   -0.666539
     13          1           0       -0.433274    1.648110   -0.764771
     14          1           0       -0.839261    3.099672    0.145346
     15          1           0       -1.760759    2.686146   -1.308511
     16          1           0       -1.734825    1.055329    1.305161
     17          1           0       -3.016197    2.158852    0.839231
     18          1           0       -3.705852   -0.126456    0.367663
     19          1           0       -3.568298    0.780695   -1.135539
     20          1           0       -2.695979   -1.477714   -1.438793
     21          1           0       -1.384598   -0.320757   -1.636906
     22          1           0        0.196479   -0.316637    2.527544
     23          1           0        2.391417    0.907292    2.571705
     24          1           0        3.724458    1.167636    0.496913
     25          1           0        0.854741   -1.110246   -1.521454
 ---------------------------------------------------------------------

 SCF Done:  E(UB3LYP) =  -879.178846287     A.U. after   30 cycles

 The electronic state is 2-A.
 Alpha  occ. eigenvalues --  -88.72005 -18.93249 -14.20378 -10.11769 -10.08275
 Alpha  occ. eigenvalues --  -10.07690 -10.06280 -10.05761 -10.04873 -10.02940
 Alpha  occ. eigenvalues --  -10.02730 -10.00704  -7.80521  -5.76901  -5.76550
 Alpha  occ. eigenvalues --   -5.75936  -0.88683  -0.80521  -0.70117  -0.66197
 Alpha  occ. eigenvalues --   -0.65180  -0.61144  -0.56594  -0.52197  -0.49065
 Alpha  occ. eigenvalues --   -0.47308  -0.44947  -0.39835  -0.36075  -0.35629
 Alpha  occ. eigenvalues --   -0.34656  -0.32367  -0.30643  -0.30079  -0.29143
 Alpha  occ. eigenvalues --   -0.28533  -0.28186  -0.26566  -0.24275  -0.23622
 Alpha  occ. eigenvalues --   -0.22740  -0.22590  -0.22272  -0.20824  -0.18426
 Alpha  occ. eigenvalues --   -0.15990  -0.11974  -0.10910  -0.07521   0.04813
 Alpha virt. eigenvalues --    0.07197   0.08602   0.09524   0.09680   0.11114
 Alpha virt. eigenvalues --    0.11502   0.11932   0.12164   0.12842   0.13687
 Alpha virt. eigenvalues --    0.13883   0.14186   0.15011   0.16255   0.16554

  Beta  occ. eigenvalues --  -88.72010 -18.93219 -14.20110 -10.11773 -10.07853
  Beta  occ. eigenvalues --  -10.07542 -10.06271 -10.05762 -10.04872 -10.02814
  Beta  occ. eigenvalues --  -10.02698 -10.00432  -7.80524  -5.76902  -5.76568
  Beta  occ. eigenvalues --   -5.75932  -0.88537  -0.80033  -0.69994  -0.65702
  Beta  occ. eigenvalues --   -0.64911  -0.60803  -0.56398  -0.51966  -0.48595
  Beta  occ. eigenvalues --   -0.47100  -0.44821  -0.39554  -0.35942  -0.35556
  Beta  occ. eigenvalues --   -0.34378  -0.32173  -0.30482  -0.29722  -0.28828
  Beta  occ. eigenvalues --   -0.28449  -0.27728  -0.26352  -0.24126  -0.23486
  Beta  occ. eigenvalues --   -0.22650  -0.22504  -0.21943  -0.20413  -0.17878
  Beta  occ. eigenvalues --   -0.14283  -0.11746  -0.10754  -0.06276
  Beta virt. eigenvalues --    0.07343   0.08782   0.09466   0.09638   0.10730
  Beta virt. eigenvalues --    0.11218   0.11515   0.11898   0.12193   0.12867
  Beta virt. eigenvalues --    0.13702   0.13882   0.14662   0.15174   0.16310

 Mulliken charges and spin densities:
               1          2
     1  C   -0.560864  -0.053389
     2  C   -0.121145   0.068333
     3  C   -0.164605  -0.289901
     4  C    0.209866  -0.394468
     5  S   -0.190247  -0.022654
     6  C    0.360920   0.344527
     7  C   -0.469017  -0.020405
     8  C   -0.234036   0.177271
     9  C   -0.079608   0.208770
    10  C   -0.190146   0.020808
    11  O   -0.424642   0.011352
    12  N   -0.206773   0.074888
    13  H    0.222070  -0.007508
    14  H    0.115523  -0.004945
    15  H    0.067939   0.043279
    16  H    0.125370  -0.001705
    17  H    0.139085   0.004547
    18  H    0.022373   0.104462
    19  H    0.028365   0.079105
    20  H   -0.498127   0.735976
    21  H    0.216454  -0.103836
    22  H    0.129440   0.005066
    23  H    0.116978  -0.016205
    24  H    0.136851  -0.015586
    25  H    0.247976   0.052217
 Sum of Mulliken charges =  -1.00000   1.00000

 Dipole moment (field-independent basis, Debye):
    X=             -3.9066    Y=              2.3751    Z=              2.5824  Tot=              5.2508
 Quadrupole moment (field-independent basis, Debye-Ang):
   XX=           -127.3978   YY=           -100.8461   ZZ=           -101.0562
   XY=             -7.5517   XZ=              5.4703   YZ=              0.1732

 Summary of Natural Population Analysis:

                                       Natural Population
                Natural  -----------------------------------------------
    Atom  No    Charge         Core      Valence    Rydberg      Total
 -----------------------------------------------------------------------
      C    1   -0.28819      0.99967     2.28418    0.00434     3.28819
      C    2   -0.19637      0.99964     2.18835    0.00838     3.19637
      C    3   -0.19443      0.99962     2.18393    0.01088     3.19443
      C    4   -0.23413      0.99957     2.22224    0.01231     3.23413
      S    5    0.09356      4.99955     2.88705    0.01984     7.90644
      C    6    0.10312      0.99944     1.88133    0.01612     2.89688
      C    7   -0.17487      0.99947     2.16613    0.00927     3.17487
      C    8   -0.04207      0.99958     2.03335    0.00914     3.04207
      C    9   -0.11398      0.99952     2.10524    0.00922     3.11398
      C   10    0.31261      0.99963     1.66635    0.02141     2.68739
      O   11   -0.34977      0.99988     3.34322    0.00667     4.34977
      N   12   -0.26801      0.99962     2.75759    0.01079     3.76801
      H   13    0.10804      0.00000     0.39079    0.00117     0.39196
      H   14    0.09751      0.00000     0.40171    0.00078     0.40249
      H   15    0.08847      0.00000     0.41066    0.00087     0.41153
      H   16    0.10518      0.00000     0.39348    0.00134     0.39482
      H   17    0.08827      0.00000     0.41081    0.00092     0.41173
      H   18    0.09666      0.00000     0.40210    0.00124     0.40334
      H   19    0.09182      0.00000     0.40699    0.00118     0.40818
      H   20    0.10352      0.00000     0.39422    0.00226     0.39648
      H   21    0.09893      0.00000     0.39947    0.00160     0.40107
      H   22    0.10100      0.00000     0.39810    0.00090     0.39900
      H   23    0.08701      0.00000     0.41131    0.00168     0.41299
      H   24    0.09386      0.00000     0.40507    0.00107     0.40614
      H   25    0.19226      0.00000     0.30498    0.00276     0.30774
 =======================================================================
   * Total *    0.00000     15.99519    32.84868    0.15613    49.00000

 Normal termination of Gaussian 16 at Wed Dec  9 18:22:20 2020.
