 Gaussian 16, Revision A.03,

 -----------------------------------------------------------
 # opt freq B3LYP/6-31G(d) empiricaldispersion=gd3bj scf=xqc
 -----------------------------------------------------------

 ------------------------------
 CID_97381909_JID_9946_neutraal
 ------------------------------
 Symbolic Z-matrix:
 Charge =  0 Multiplicity = 1

 SCF Done:  E(RB3LYP) =  -1181.43015232     A.U. after   15 cycles
 SCF Done:  E(RB3LYP) =  -1181.43424174     A.U. after   12 cycles
 SCF Done:  E(RB3LYP) =  -1181.43480990     A.U. after   12 cycles
 SCF Done:  E(RB3LYP) =  -1181.43491350     A.U. after   12 cycles
 SCF Done:  E(RB3LYP) =  -1181.43507225     A.U. after   11 cycles
 SCF Done:  E(RB3LYP) =  -1181.43512021     A.U. after   12 cycles
 SCF Done:  E(RB3LYP) =  -1181.43513927     A.U. after   11 cycles
 SCF Done:  E(RB3LYP) =  -1181.43514693     A.U. after   11 cycles
 SCF Done:  E(RB3LYP) =  -1181.43515020     A.U. after   10 cycles
 SCF Done:  E(RB3LYP) =  -1181.43515066     A.U. after    8 cycles
 SCF Done:  E(RB3LYP) =  -1181.43515082     A.U. after    8 cycles
 SCF Done:  E(RB3LYP) =  -1181.43515085     A.U. after    6 cycles
 Optimization completed.
    -- Stationary point found.
 Normal termination of Gaussian 16 at Sat Dec 12 10:07:54 2020.

 --------------------------------------------------------------------
 #N Geom=AllCheck Guess=TCheck SCRF=Check GenChk RB3LYP/6-31G(d) Freq
 --------------------------------------------------------------------

 Structure from the checkpoint file:  "JID_9946.chk"
 ------------------------------
 CID_97381909_JID_9946_neutraal
 ------------------------------
 Charge =  0 Multiplicity = 1

 SCF Done:  E(RB3LYP) =  -1181.43515085     A.U. after    1 cycles

  Exact polarizability: 219.816   3.080 180.217  -4.893   6.889 127.773
 Approx polarizability: 289.319   1.599 323.171  -6.798  23.715 214.279

                      1                      2                      3
                      A                      A                      A
 Frequencies --      6.3160                18.9027                36.2377
 Red. masses --      3.5629                 7.1573                 5.4701
 Frc consts  --      0.0001                 0.0015                 0.0042
 IR Inten    --      0.3219                 0.2468                 0.1654

                      4                      5                      6
                      A                      A                      A
 Frequencies --     53.6228                79.3660                99.1478
 Red. masses --      6.0417                 3.7623                 3.7855
 Frc consts  --      0.0102                 0.0140                 0.0219
 IR Inten    --      0.2963                 0.5787                 1.4020

                      7                      8                      9
                      A                      A                      A
 Frequencies --    120.2239               153.7753               195.9854
 Red. masses --      2.7840                 2.3560                 2.7779
 Frc consts  --      0.0237                 0.0328                 0.0629
 IR Inten    --      1.0811                 2.9841                 0.3124

                     10                     11                     12
                      A                      A                      A
 Frequencies --    202.6603               227.1033               239.6900
 Red. masses --      3.3680                 2.0833                 3.9728
 Frc consts  --      0.0815                 0.0633                 0.1345
 IR Inten    --      1.6209                 0.9496                 0.9674

                     13                     14                     15
                      A                      A                      A
 Frequencies --    256.7457               290.9708               317.8389
 Red. masses --      2.6109                 2.9331                 3.4569
 Frc consts  --      0.1014                 0.1463                 0.2058
 IR Inten    --      2.8219                 6.7095                 3.2035

                     16                     17                     18
                      A                      A                      A
 Frequencies --    370.1331               382.6285               420.3007
 Red. masses --      2.2629                 2.5360                 2.3787
 Frc consts  --      0.1827                 0.2188                 0.2476
 IR Inten    --      3.6117                 2.3373                 1.0656

                     19                     20                     21
                      A                      A                      A
 Frequencies --    430.0861               463.8676               490.8977
 Red. masses --      3.3983                 4.1971                 3.5843
 Frc consts  --      0.3704                 0.5321                 0.5089
 IR Inten    --      2.6819                 6.1359                 2.8236

                     22                     23                     24
                      A                      A                      A
 Frequencies --    506.2255               536.6241               552.4894
 Red. masses --      4.0593                 4.4375                 5.0516
 Frc consts  --      0.6129                 0.7529                 0.9085
 IR Inten    --      1.6332                11.0280                 2.0409

                     25                     26                     27
                      A                      A                      A
 Frequencies --    597.7612               617.2646               625.8404
 Red. masses --      5.7641                 5.7239                 3.7820
 Frc consts  --      1.2135                 1.2849                 0.8728
 IR Inten    --      7.5654                 8.6655                 6.2008

                     28                     29                     30
                      A                      A                      A
 Frequencies --    663.6697               697.7294               728.2472
 Red. masses --      4.8800                 3.9971                 1.5544
 Frc consts  --      1.2664                 1.1465                 0.4857
 IR Inten    --      3.9421                16.1517                23.3748

                     31                     32                     33
                      A                      A                      A
 Frequencies --    752.3903               763.1815               779.2736
 Red. masses --      3.5587                 3.0116                 5.2953
 Frc consts  --      1.1869                 1.0335                 1.8946
 IR Inten    --     16.1878                 5.5071                21.2899

                     34                     35                     36
                      A                      A                      A
 Frequencies --    824.2623               832.4321               890.0417
 Red. masses --      2.7937                 4.5341                 4.6658
 Frc consts  --      1.1183                 1.8511                 2.1777
 IR Inten    --     18.8261                10.9684                 1.3081

                     37                     38                     39
                      A                      A                      A
 Frequencies --    897.3083               910.8997               930.3353
 Red. masses --      1.3185                 1.4465                 2.6785
 Frc consts  --      0.6255                 0.7072                 1.3659
 IR Inten    --      1.2744                13.5859                 4.0723

                     40                     41                     42
                      A                      A                      A
 Frequencies --    944.9530               956.2179               963.3832
 Red. masses --      3.2035                 2.4092                 1.5482
 Frc consts  --      1.6854                 1.2979                 0.8466
 IR Inten    --     22.4845                 2.5455                 1.9788

                     43                     44                     45
                      A                      A                      A
 Frequencies --    995.2287              1021.6571              1027.8727
 Red. masses --      2.2877                 1.7497                 2.2841
 Frc consts  --      1.3351                 1.0761                 1.4218
 IR Inten    --      2.0365                 2.7387                 6.5137

                     46                     47                     48
                      A                      A                      A
 Frequencies --   1046.5588              1078.6522              1093.1958
 Red. masses --      2.8598                 2.3389                 1.4715
 Frc consts  --      1.8455                 1.6033                 1.0361
 IR Inten    --      6.2100                34.6748                10.9508

                     49                     50                     51
                      A                      A                      A
 Frequencies --   1110.2560              1141.5171              1154.7817
 Red. masses --      2.4113                 4.2064                 2.7783
 Frc consts  --      1.7512                 3.2295                 2.1828
 IR Inten    --     43.7274               115.8450                38.8549

                     52                     53                     54
                      A                      A                      A
 Frequencies --   1190.3571              1191.2687              1205.2793
 Red. masses --      3.0579                 1.3043                 2.8773
 Frc consts  --      2.5528                 1.0905                 2.4627
 IR Inten    --      4.6123                 4.4642                11.2296

                     55                     56                     57
                      A                      A                      A
 Frequencies --   1218.9861              1222.9020              1228.6338
 Red. masses --      2.2006                 1.9339                 2.0355
 Frc consts  --      1.9266                 1.7040                 1.8104
 IR Inten    --     24.2643                 7.6552                12.6610

                     58                     59                     60
                      A                      A                      A
 Frequencies --   1240.5177              1269.7106              1290.2864
 Red. masses --      1.1301                 1.3651                 1.9780
 Frc consts  --      1.0247                 1.2967                 1.9402
 IR Inten    --      1.1563                 2.9331                12.6438

                     61                     62                     63
                      A                      A                      A
 Frequencies --   1300.4367              1310.9869              1332.7054
 Red. masses --      2.3079                 2.2366                 1.3274
 Frc consts  --      2.2996                 2.2649                 1.3891
 IR Inten    --      4.6027                 4.3622                 9.9877

                     64                     65                     66
                      A                      A                      A
 Frequencies --   1343.9210              1356.1585              1371.2060
 Red. masses --      1.6630                 1.8475                 1.4840
 Frc consts  --      1.7696                 2.0020                 1.6440
 IR Inten    --      4.1126                 4.6606                13.3774

                     67                     68                     69
                      A                      A                      A
 Frequencies --   1385.9069              1391.5861              1407.5264
 Red. masses --      1.3384                 1.4543                 1.3992
 Frc consts  --      1.5146                 1.6593                 1.6333
 IR Inten    --     20.7825                 4.7619                 7.3004

                     70                     71                     72
                      A                      A                      A
 Frequencies --   1416.9543              1440.9159              1471.7521
 Red. masses --      1.2914                 1.5023                 2.2951
 Frc consts  --      1.5276                 1.8378                 2.9291
 IR Inten    --     19.8424                22.1985                 7.7200

                     73                     74                     75
                      A                      A                      A
 Frequencies --   1486.0919              1491.2953              1495.7567
 Red. masses --      1.7736                 1.9329                 1.1439
 Frc consts  --      2.3079                 2.5327                 1.5079
 IR Inten    --     11.3483                 7.0947                 3.1494

                     76                     77                     78
                      A                      A                      A
 Frequencies --   1499.8589              1514.8501              1518.2181
 Red. masses --      1.1635                 1.0609                 1.3523
 Frc consts  --      1.5421                 1.4344                 1.8365
 IR Inten    --      1.8635                 1.8337                13.1735

                     79                     80                     81
                      A                      A                      A
 Frequencies --   1525.3989              1526.3407              1537.0200
 Red. masses --      1.5998                 1.1492                 1.1095
 Frc consts  --      2.1932                 1.5774                 1.5443
 IR Inten    --      6.2208                 0.4481                16.8967

                     82                     83                     84
                      A                      A                      A
 Frequencies --   1540.6336              1565.8982              1629.8404
 Red. masses --      1.0628                 5.8578                 6.9839
 Frc consts  --      1.4862                 8.4627                10.9305
 IR Inten    --     10.0639                25.3319                 5.6057

                     85                     86                     87
                      A                      A                      A
 Frequencies --   1644.1500              2956.4049              2961.8573
 Red. masses --      5.6456                 1.0726                 1.0718
 Frc consts  --      8.9918                 5.5235                 5.5396
 IR Inten    --     28.5754                29.7006                39.1082

                     88                     89                     90
                      A                      A                      A
 Frequencies --   2991.5204              3030.1903              3046.4129
 Red. masses --      1.0439                 1.0661                 1.0646
 Frc consts  --      5.5040                 5.7676                 5.8213
 IR Inten    --     44.3392                47.4921                23.5349

                     91                     92                     93
                      A                      A                      A
 Frequencies --   3051.6465              3063.0502              3068.7741
 Red. masses --      1.0957                 1.0603                 1.0870
 Frc consts  --      6.0120                 5.8610                 6.0312
 IR Inten    --     41.4204                20.6738                23.4511

                     94                     95                     96
                      A                      A                      A
 Frequencies --   3085.3029              3091.8478              3100.7655
 Red. masses --      1.0883                 1.0981                 1.0982
 Frc consts  --      6.1035                 6.1849                 6.2213
 IR Inten    --     33.9281                35.3584                15.6283

                     97                     98                     99
                      A                      A                      A
 Frequencies --   3113.9942              3141.8301              3152.1902
 Red. masses --      1.1062                 1.0975                 1.0895
 Frc consts  --      6.3198                 6.3829                 6.3783
 IR Inten    --     11.4135                39.0952                30.0011

                    100                    101                    102
                      A                      A                      A
 Frequencies --   3170.3488              3235.5311              3282.7375
 Red. masses --      1.0907                 1.0914                 1.0979
 Frc consts  --      6.4593                 6.7319                 6.9709
 IR Inten    --     21.4150                 9.0649                 1.3964

 - Thermochemistry -
 -------------------
 Temperature   298.150 Kelvin.  Pressure   1.00000 Atm.
 Atom     1 has atomic number  6 and mass  12.00000

 Molecular mass:   275.10923 amu.
 Principal axes and moments of inertia in atomic units:
                           1         2         3
     Eigenvalues --  2211.22926********************
           X            0.99991   0.01300  -0.00255
           Y           -0.01302   0.99989  -0.00708
           Z            0.00246   0.00712   0.99997
 This molecule is an asymmetric top.
 Rotational symmetry number  1.
 Warning -- assumption of classical behavior for rotation
           may cause significant error
 Rotational temperatures (Kelvin)      0.03917     0.00775     0.00706
 Rotational constants (GHZ):           0.81617     0.16142     0.14721
 Zero-point vibrational energy     781188.4 (Joules/Mol)
                                  186.70851 (Kcal/Mol)
 Warning -- explicit consideration of  26 degrees of freedom as
           vibrations may cause significant error
 Vibrational temperatures:      9.09    27.20    52.14    77.15   114.19
          (Kelvin)            142.65   172.98   221.25   281.98   291.58
                              326.75   344.86   369.40   418.64   457.30
                              532.54   550.52   604.72   618.80   667.40
                              706.29   728.35   772.08   794.91   860.05
                              888.11   900.44   954.87  1003.88  1047.79
                             1082.52  1098.05  1121.20  1185.93  1197.68
                             1280.57  1291.03  1310.58  1338.54  1359.58
                             1375.78  1386.09  1431.91  1469.94  1478.88
                             1505.76  1551.94  1572.86  1597.41  1642.39
                             1661.47  1712.66  1713.97  1734.13  1753.85
                             1759.48  1767.73  1784.83  1826.83  1856.43
                             1871.04  1886.22  1917.47  1933.60  1951.21
                             1972.86  1994.01  2002.18  2025.12  2038.68
                             2073.16  2117.52  2138.15  2145.64  2152.06
                             2157.96  2179.53  2184.38  2194.71  2196.06
                             2211.43  2216.63  2252.98  2344.98  2365.57
                             4253.61  4261.45  4304.13  4359.77  4383.11
                             4390.64  4407.05  4415.28  4439.06  4448.48
                             4461.31  4480.34  4520.39  4535.30  4561.42
                             4655.21  4723.13

 Zero-point correction=                           0.297539 (Hartree/Particle)
 Thermal correction to Energy=                    0.314614
 Thermal correction to Enthalpy=                  0.315558
 Thermal correction to Gibbs Free Energy=         0.248686
 Sum of electronic and zero-point Energies=          -1181.137612
 Sum of electronic and thermal Energies=             -1181.120537
 Sum of electronic and thermal Enthalpies=           -1181.119593
 Sum of electronic and thermal Free Energies=        -1181.186465

                     E (Thermal)             CV                S
                      KCal/Mol        Cal/Mol-Kelvin    Cal/Mol-Kelvin
 Total                  197.423             64.802            140.744
 Electronic               0.000              0.000              0.000
 Translational            0.889              2.981             42.735
 Rotational               0.889              2.981             34.071
 Vibrational            195.646             58.840             63.939
 Vibration     1          0.593              1.987              8.924
 Vibration     2          0.593              1.986              6.746
 Vibration     3          0.594              1.982              5.455
 Vibration     4          0.596              1.976              4.679
 Vibration     5          0.600              1.963              3.906
 Vibration     6          0.604              1.950              3.471
 Vibration     7          0.609              1.932              3.097
 Vibration     8          0.619              1.898              2.625
 Vibration     9          0.636              1.845              2.170
 Vibration    10          0.639              1.836              2.109
 Vibration    11          0.651              1.800              1.902
 Vibration    12          0.657              1.780              1.805
 Vibration    13          0.666              1.751              1.684
 Vibration    14          0.687              1.691              1.468
 Vibration    15          0.704              1.640              1.321
 Vibration    16          0.742              1.534              1.079
 Vibration    17          0.752              1.507              1.029
 Vibration    18          0.783              1.426              0.891
 Vibration    19          0.791              1.405              0.858
 Vibration    20          0.821              1.330              0.755
 Vibration    21          0.847              1.270              0.681
 Vibration    22          0.861              1.236              0.643
 Vibration    23          0.892              1.169              0.573
 Vibration    24          0.908              1.134              0.539
 Vibration    25          0.956              1.037              0.454
 Vibration    26          0.977              0.995              0.421

                           ! Non-Optimized Parameters !
 Normal termination of Gaussian 16 at Sat Dec 12 10:24:35 2020.

 ----------------------------------------------------------------------
 # B3LYP/6-311++G(d,p) empiricaldispersion=gd3bj scf=xqc pop=npa geom=c
 heck
 ----------------------------------------------------------------------

 --------------------------------------
 CID_97381909_JID_9946_Energie_neutraal
 --------------------------------------
 Structure from the checkpoint file:  "JID_9946.chk"
 Charge =  0 Multiplicity = 1

 SCF Done:  E(RB3LYP) =  -1181.66774649     A.U. after   17 cycles
 Normal termination of Gaussian 16 at Sat Dec 12 10:32:09 2020.

 ----------------------------------------------------------------------
 # B3LYP/6-311++G(d,p) empiricaldispersion=gd3bj scf=xqc pop=npa geom=c
 heck
 ----------------------------------------------------------------------

 ------------------------------------
 CID_97381909_JID_9946_Energie_kation
 ------------------------------------
 Structure from the checkpoint file:  "JID_9946.chk"
 Charge =  1 Multiplicity = 2

 SCF Done:  E(UB3LYP) =  -1181.37306925     A.U. after   33 cycles
 SCF Done:  E(UB3LYP) =  -1181.37306925     a.u. after    1 cycles
 Normal termination of Gaussian 16 at Sat Dec 12 10:51:51 2020.
 Gaussian 16:  ES64L-G16RevA.03 25-Dec-2016

 ----------------------------------------------------------------------
 # B3LYP/6-311++G(d,p) empiricaldispersion=gd3bj scf=xqc pop=npa geom=c
 heck
 ----------------------------------------------------------------------

 -----------------------------------
 CID_97381909_JID_9946_Energie_anion
 -----------------------------------
 Structure from the checkpoint file:  "JID_9946.chk"
 Charge = -1 Multiplicity = 2

                         Standard orientation:
 ---------------------------------------------------------------------
 Center     Atomic      Atomic             Coordinates (Angstroms)
 Number     Number       Type             X           Y           Z
 ---------------------------------------------------------------------
      1          6           0       -4.643749   -1.582355    1.015286
      2          8           0       -5.019879   -1.092550   -0.256554
      3          6           0       -3.910979   -0.895788   -1.124938
      4          6           0       -2.996891    0.220815   -0.661109
      5          6           0       -1.674300    0.026356   -0.228156
      6          6           0       -1.004797   -1.331888   -0.229337
      7          6           0        0.512411   -1.223284   -0.076058
      8          7           0        0.822800   -0.337225    1.040406
      9          6           0        0.460879    1.041575    0.725798
     10          6           0       -0.967077    1.143310    0.240603
     11          6           0       -1.607027    2.384488    0.241023
     12          7           0       -2.860317    2.588210   -0.174081
     13          6           0       -3.525719    1.513995   -0.608353
     14          6           0        2.180954   -0.470942    1.563329
     15          6           0        3.284242   -0.094143    0.603073
     16          7           0        3.693426    1.128743    0.402486
     17          6           0        4.644921    1.184671   -0.590329
     18          6           0        4.975812   -0.006942   -1.169164
     19         16           0        4.054700   -1.284010   -0.445388
     20          1           0       -5.564884   -1.723603    1.585701
     21          1           0       -3.993633   -0.877801    1.553480
     22          1           0       -4.120503   -2.549517    0.934825
     23          1           0       -3.360111   -1.838594   -1.249244
     24          1           0       -4.354008   -0.639145   -2.092370
     25          1           0       -1.232319   -1.876626   -1.151987
     26          1           0       -1.405562   -1.930322    0.599278
     27          1           0        0.961036   -0.873416   -1.023966
     28          1           0        0.933883   -2.212929    0.131097
     29          1           0        0.588223    1.646451    1.631562
     30          1           0        1.136149    1.479648   -0.031684
     31          1           0       -1.073163    3.263823    0.602311
     32          1           0       -4.552383    1.681348   -0.930664
     33          1           0        2.272042    0.180630    2.438643
     34          1           0        2.313363   -1.506192    1.896173
     35          1           0        5.077015    2.143102   -0.853766
     36          1           0        5.695246   -0.199615   -1.952432
 ---------------------------------------------------------------------

 SCF Done:  E(UB3LYP) =  -1181.66466830     A.U. after   33 cycles
 SCF Done:  E(UB3LYP) =  -1181.66466830     a.u. after    1 cycles

 The electronic state is 2-A.
 Alpha  occ. eigenvalues --  -88.76094 -19.03358 -14.20462 -14.19870 -14.19367
 Alpha  occ. eigenvalues --  -10.12687 -10.11602 -10.10516 -10.09805 -10.09701
 Alpha  occ. eigenvalues --  -10.09295 -10.09278 -10.09168 -10.08933 -10.08614
 Alpha  occ. eigenvalues --  -10.08280 -10.07961 -10.07592 -10.07375  -7.84754
 Alpha  occ. eigenvalues --   -5.81019  -5.80678  -5.80388  -0.94496  -0.85023
 Alpha  occ. eigenvalues --   -0.83795  -0.82521  -0.72419  -0.68510  -0.68213
 Alpha  occ. eigenvalues --   -0.66314  -0.64442  -0.61831  -0.59070  -0.55906
 Alpha  occ. eigenvalues --   -0.55214  -0.52758  -0.49065  -0.47815  -0.46018
 Alpha  occ. eigenvalues --   -0.43111  -0.41251  -0.40129  -0.39285  -0.39082
 Alpha  occ. eigenvalues --   -0.38138  -0.37338  -0.36639  -0.35656  -0.34693
 Alpha  occ. eigenvalues --   -0.32857  -0.31870  -0.31180  -0.30451  -0.30068
 Alpha  occ. eigenvalues --   -0.29625  -0.28750  -0.28243  -0.28171  -0.27112
 Alpha  occ. eigenvalues --   -0.25948  -0.25345  -0.24260  -0.24067  -0.22582
 Alpha  occ. eigenvalues --   -0.17675  -0.17441  -0.16878  -0.16623  -0.15198
 Alpha  occ. eigenvalues --   -0.14871  -0.13858  -0.11501   0.04292
 Alpha virt. eigenvalues --    0.06129   0.06894   0.07451   0.07645   0.08042
 Alpha virt. eigenvalues --    0.08464   0.08766   0.09412   0.09736   0.10304
 Alpha virt. eigenvalues --    0.10583   0.11028   0.11737   0.12045   0.12444

  Beta  occ. eigenvalues --  -88.76059 -19.03345 -14.20428 -14.19780 -14.19315
  Beta  occ. eigenvalues --  -10.12684 -10.11576 -10.10228 -10.09812 -10.09720
  Beta  occ. eigenvalues --  -10.09272 -10.09219 -10.09156 -10.08935 -10.08515
  Beta  occ. eigenvalues --  -10.08092 -10.07988 -10.07532 -10.07367  -7.84722
  Beta  occ. eigenvalues --   -5.81006  -5.80666  -5.80267  -0.94472  -0.84812
  Beta  occ. eigenvalues --   -0.83652  -0.82425  -0.72258  -0.68421  -0.67973
  Beta  occ. eigenvalues --   -0.66236  -0.64194  -0.61760  -0.58971  -0.55792
  Beta  occ. eigenvalues --   -0.55163  -0.52660  -0.48967  -0.47528  -0.45920
  Beta  occ. eigenvalues --   -0.42941  -0.41132  -0.40061  -0.39206  -0.38970
  Beta  occ. eigenvalues --   -0.38029  -0.37290  -0.36583  -0.35581  -0.34572
  Beta  occ. eigenvalues --   -0.32769  -0.31756  -0.31060  -0.30370  -0.29876
  Beta  occ. eigenvalues --   -0.29491  -0.28638  -0.28095  -0.27812  -0.26962
  Beta  occ. eigenvalues --   -0.25846  -0.25154  -0.24169  -0.24012  -0.22549
  Beta  occ. eigenvalues --   -0.17609  -0.16806  -0.16592  -0.16250  -0.15048
  Beta  occ. eigenvalues --   -0.14666  -0.12891  -0.11364
  Beta virt. eigenvalues --    0.06674   0.07305   0.07628   0.07780   0.08171
  Beta virt. eigenvalues --    0.08384   0.08767   0.08947   0.09470   0.09890
  Beta virt. eigenvalues --    0.10385   0.10795   0.11067   0.11718   0.12117

 Mulliken charges and spin densities:
               1          2
     1  C    0.203167  -0.559935
     2  O   -0.123592   0.023443
     3  C   -0.263387  -0.332643
     4  C    0.411640   0.308184
     5  C    1.083634  -0.039277
     6  C   -1.438249   0.353566
     7  C    0.900202  -1.142788
     8  N    0.253131   0.155240
     9  C   -1.049527  -0.138091
    10  C    0.308387   0.137293
    11  C   -0.770790  -0.037029
    12  N   -0.026311   0.038429
    13  C   -0.618344   0.161486
    14  C    0.373020  -0.784299
    15  C   -0.361660   0.523626
    16  N   -0.032424   0.031211
    17  C   -0.202540   0.010795
    18  C   -0.315254   0.136474
    19  S    0.037181  -0.014843
    20  H    0.017537   0.132521
    21  H    0.056253   0.093986
    22  H   -0.231733   0.356322
    23  H    0.013220   0.144893
    24  H    0.043078   0.131785
    25  H    0.074007   0.073532
    26  H    0.005785   0.224638
    27  H    0.133904  -0.045421
    28  H   -0.228396   0.402842
    29  H    0.132392   0.062348
    30  H    0.195222   0.001756
    31  H    0.166919  -0.002566
    32  H    0.164329   0.007785
    33  H    0.063639   0.092103
    34  H   -0.283493   0.486731
    35  H    0.124056   0.006641
    36  H    0.184997  -0.000739
 Sum of Mulliken charges =  -1.00000   1.00000

 Dipole moment (field-independent basis, Debye):
    X=              1.3135    Y=              0.7060    Z=             -2.5959  Tot=              2.9937
 Quadrupole moment (field-independent basis, Debye-Ang):
   XX=           -200.8902   YY=           -160.3080   ZZ=           -138.5606
   XY=              2.0259   XZ=             -5.4969   YZ=              4.9544

 Summary of Natural Population Analysis:

                                       Natural Population
                Natural  -----------------------------------------------
    Atom  No    Charge         Core      Valence    Rydberg      Total
 -----------------------------------------------------------------------
      C    1   -0.10222      0.99961     2.09296    0.00965     3.10222
      O    2   -0.29684      0.99989     3.28710    0.00985     4.29684
      C    3   -0.01723      0.99955     2.00395    0.01373     3.01723
      C    4   -0.04761      0.99945     2.03942    0.00875     3.04761
      C    5    0.02363      0.99943     1.96760    0.00934     2.97637
      C    6   -0.20514      0.99959     2.19576    0.00979     3.20514
      C    7   -0.08334      0.99961     2.07215    0.01157     3.08334
      N    8   -0.26935      0.99971     2.75518    0.01446     3.76935
      C    9   -0.09169      0.99958     2.08045    0.01166     3.09169
      C   10   -0.03828      0.99945     2.02994    0.00888     3.03828
      C   11    0.04233      0.99954     1.94469    0.01344     2.95767
      N   12   -0.22687      0.99972     2.71493    0.01222     3.72687
      C   13    0.02600      0.99953     1.96066    0.01380     2.97400
      C   14   -0.10586      0.99955     2.09185    0.01446     3.10586
      C   15    0.07185      0.99961     1.91054    0.01800     2.92815
      N   16   -0.24896      0.99965     2.73760    0.01171     3.74896
      C   17   -0.02779      0.99954     2.01477    0.01348     3.02779
      C   18   -0.18699      0.99955     2.17865    0.00879     3.18699
      S   19    0.18271      4.99943     2.79640    0.02146     7.81729
      H   20    0.08746      0.00000     0.41161    0.00093     0.41254
      H   21    0.08477      0.00000     0.41384    0.00139     0.41523
      H   22    0.07921      0.00000     0.41920    0.00158     0.42079
      H   23    0.08408      0.00000     0.41452    0.00140     0.41592
      H   24    0.09335      0.00000     0.40552    0.00112     0.40665
      H   25    0.10023      0.00000     0.39877    0.00100     0.39977
      H   26    0.11082      0.00000     0.38594    0.00324     0.38918
      H   27    0.08286      0.00000     0.41530    0.00184     0.41714
      H   28    0.10048      0.00000     0.39807    0.00145     0.39952
      H   29    0.10184      0.00000     0.39704    0.00112     0.39816
      H   30    0.09776      0.00000     0.40079    0.00145     0.40224
      H   31    0.08521      0.00000     0.41335    0.00144     0.41479
      H   32    0.08726      0.00000     0.41089    0.00185     0.41274
      H   33    0.10626      0.00000     0.39235    0.00139     0.39374
      H   34    0.10324      0.00000     0.39536    0.00140     0.39676
      H   35    0.09294      0.00000     0.40604    0.00101     0.40706
      H   36    0.10381      0.00000     0.39539    0.00080     0.39619
 =======================================================================
   * Total *    0.00000     22.99199    49.74857    0.25944    73.00000

 Normal termination of Gaussian 16 at Sat Dec 12 11:12:23 2020.
