 Gaussian 16, Revision A.03,

 -----------------------------------------------------------
 # opt freq B3LYP/6-31G(d) empiricaldispersion=gd3bj scf=xqc
 -----------------------------------------------------------

 ------------------------------
 CID_20087759_JID_3423_neutraal
 ------------------------------
 Symbolic Z-matrix:
 Charge =  0 Multiplicity = 1

 SCF Done:  E(RB3LYP) =  -986.162385701     A.U. after   16 cycles
 SCF Done:  E(RB3LYP) =  -986.194250122     A.U. after   14 cycles
 SCF Done:  E(RB3LYP) =  -986.194945795     A.U. after   14 cycles
 SCF Done:  E(RB3LYP) =  -986.201225756     A.U. after   13 cycles
 SCF Done:  E(RB3LYP) =  -986.205355157     A.U. after   14 cycles
 SCF Done:  E(RB3LYP) =  -986.214794325     A.U. after   15 cycles
 SCF Done:  E(RB3LYP) =  -986.222032724     A.U. after   15 cycles
 SCF Done:  E(RB3LYP) =  -986.228029932     A.U. after   13 cycles
 SCF Done:  E(RB3LYP) =  -986.231181860     A.U. after   13 cycles
 SCF Done:  E(RB3LYP) =  -986.232608770     A.U. after   13 cycles
 SCF Done:  E(RB3LYP) =  -986.234715742     A.U. after    9 cycles
 SCF Done:  E(RB3LYP) =  -986.234716304     A.U. after    9 cycles
 SCF Done:  E(RB3LYP) =  -986.234716642     A.U. after    8 cycles
 SCF Done:  E(RB3LYP) =  -986.234716824     A.U. after    8 cycles
 SCF Done:  E(RB3LYP) =  -986.234716929     A.U. after    8 cycles
 SCF Done:  E(RB3LYP) =  -986.234716963     A.U. after    7 cycles
 Optimization completed.
    -- Stationary point found.
 Normal termination of Gaussian 16 at Wed Dec  9 23:21:40 2020.

 --------------------------------------------------------------------
 #N Geom=AllCheck Guess=TCheck SCRF=Check GenChk RB3LYP/6-31G(d) Freq
 --------------------------------------------------------------------

 Structure from the checkpoint file:  "JID_3423.chk"
 ------------------------------
 CID_20087759_JID_3423_neutraal
 ------------------------------
 Charge =  0 Multiplicity = 1

 SCF Done:  E(RB3LYP) =  -986.234716963     A.U. after    1 cycles

  Exact polarizability: 146.278  -9.973 122.927  -1.378   1.443  76.388
 Approx polarizability: 186.936 -22.672 210.987 -10.999   4.123 118.724

                      1                      2                      3
                      A                      A                      A
 Frequencies --     25.8451                63.3352                80.9366
 Red. masses --      5.6555                 3.8632                 3.9293
 Frc consts  --      0.0022                 0.0091                 0.0152
 IR Inten    --      5.4948                 1.9870                 0.0173

                      4                      5                      6
                      A                      A                      A
 Frequencies --    115.6329               123.1599               144.6999
 Red. masses --      3.5158                 7.9852                 5.0541
 Frc consts  --      0.0277                 0.0714                 0.0623
 IR Inten    --      0.5794                 8.8135                 8.2426

                      7                      8                      9
                      A                      A                      A
 Frequencies --    177.9210               220.5581               262.4952
 Red. masses --      3.7077                 1.1669                 4.3717
 Frc consts  --      0.0692                 0.0334                 0.1775
 IR Inten    --      3.5810                 0.7631                 5.1739

                     10                     11                     12
                      A                      A                      A
 Frequencies --    303.6690               315.9945               322.4066
 Red. masses --      4.3524                 2.3362                 4.5656
 Frc consts  --      0.2365                 0.1374                 0.2796
 IR Inten    --      0.6712                10.3713                 1.6361

                     13                     14                     15
                      A                      A                      A
 Frequencies --    355.3398               450.4852               458.4928
 Red. masses --      4.6338                 5.7555                 1.7000
 Frc consts  --      0.3447                 0.6882                 0.2106
 IR Inten    --      0.6757                 8.6441                35.1858

                     16                     17                     18
                      A                      A                      A
 Frequencies --    463.0235               482.3909               540.0127
 Red. masses --      3.6452                 3.7540                 5.0767
 Frc consts  --      0.4605                 0.5147                 0.8722
 IR Inten    --     18.7528                 7.2895                 1.8739

                     19                     20                     21
                      A                      A                      A
 Frequencies --    558.0844               566.6630               577.1323
 Red. masses --      7.7637                 4.0551                 4.0646
 Frc consts  --      1.4247                 0.7672                 0.7977
 IR Inten    --     69.5135                23.3312                 9.2173

                     22                     23                     24
                      A                      A                      A
 Frequencies --    685.0905               697.5582               741.5838
 Red. masses --      1.4127                 3.0710                 5.0585
 Frc consts  --      0.3907                 0.8804                 1.6391
 IR Inten    --    100.5827                 1.9387                97.8480

                     25                     26                     27
                      A                      A                      A
 Frequencies --    801.8195               872.7923               910.1033
 Red. masses --      2.7325                 3.3127                 1.3144
 Frc consts  --      1.0351                 1.4868                 0.6414
 IR Inten    --     51.5752                 7.0302                 0.3200

                     28                     29                     30
                      A                      A                      A
 Frequencies --    962.1000               984.5919               994.4241
 Red. masses --      2.7262                 2.3548                 1.4513
 Frc consts  --      1.4868                 1.3450                 0.8456
 IR Inten    --     10.4133                 2.2166                53.4273

                     31                     32                     33
                      A                      A                      A
 Frequencies --    996.6871              1035.2255              1087.6813
 Red. masses --      1.4295                 3.1614                 8.7368
 Frc consts  --      0.8367                 1.9962                 6.0899
 IR Inten    --     17.3526                15.2228               154.1511

                     34                     35                     36
                      A                      A                      A
 Frequencies --   1113.1317              1151.2780              1183.1403
 Red. masses --      2.7961                 1.8918                 3.9735
 Frc consts  --      2.0413                 1.4774                 3.2772
 IR Inten    --     16.3841                 6.9318                25.2619

                     37                     38                     39
                      A                      A                      A
 Frequencies --   1239.4827              1241.7490              1253.8866
 Red. masses --      1.7771                 1.5510                 1.3170
 Frc consts  --      1.6086                 1.4090                 1.2200
 IR Inten    --     29.3761                15.7717                 0.5735

                     40                     41                     42
                      A                      A                      A
 Frequencies --   1284.7547              1315.8601              1368.3559
 Red. masses --     13.9053                 1.1950                 1.4682
 Frc consts  --     13.5229                 1.2191                 1.6197
 IR Inten    --    183.1450                44.4138                38.7163

                     43                     44                     45
                      A                      A                      A
 Frequencies --   1375.0671              1399.4881              1407.5051
 Red. masses --      1.2150                 1.3702                 2.1066
 Frc consts  --      1.3536                 1.5811                 2.4588
 IR Inten    --      9.5277                13.0344                32.6013

                     46                     47                     48
                      A                      A                      A
 Frequencies --   1432.8351              1481.1440              1485.5964
 Red. masses --      1.7541                 1.0524                 1.0508
 Frc consts  --      2.1218                 1.3603                 1.3664
 IR Inten    --    233.6983                 5.8049                 5.1475

                     49                     50                     51
                      A                      A                      A
 Frequencies --   1511.1956              1515.2609              1530.5912
 Red. masses --      1.0990                 1.3234                 1.1910
 Frc consts  --      1.4787                 1.7903                 1.6440
 IR Inten    --     16.4777                 6.6653                 9.2661

                     52                     53                     54
                      A                      A                      A
 Frequencies --   1548.8437              1613.5402              1697.7485
 Red. masses --      1.0904                 3.3728                 2.2824
 Frc consts  --      1.5412                 5.1737                 3.8760
 IR Inten    --     11.1323               174.9116               701.3212

                     55                     56                     57
                      A                      A                      A
 Frequencies --   2292.8004              3017.3277              3023.5478
 Red. masses --     12.6303                 1.0719                 1.0719
 Frc consts  --     39.1197                 5.7498                 5.7733
 IR Inten    --    124.0031                21.8277               104.0960

                     58                     59                     60
                      A                      A                      A
 Frequencies --   3076.4053              3084.5628              3105.5443
 Red. masses --      1.0621                 1.0289                 1.0932
 Frc consts  --      5.9227                 5.7676                 6.2120
 IR Inten    --     10.7945                 0.5214                27.4910

                     61                     62                     63
                      A                      A                      A
 Frequencies --   3109.6715              3128.7325              3185.3880
 Red. masses --      1.0925                 1.1061                 1.1066
 Frc consts  --      6.2247                 6.3797                 6.6157
 IR Inten    --     27.4402                28.1526                 0.6283

                     64                     65                     66
                      A                      A                      A
 Frequencies --   3193.3235              3454.2198              3612.3777
 Red. masses --      1.1082                 1.0802                 1.0779
 Frc consts  --      6.6580                 7.5940                 8.2874
 IR Inten    --      1.3809               293.3059                47.4491

 - Thermochemistry -
 -------------------
 Temperature   298.150 Kelvin.  Pressure   1.00000 Atm.
 Atom     1 has atomic number  6 and mass  12.00000

 Molecular mass:   201.05720 amu.
 Principal axes and moments of inertia in atomic units:
                           1         2         3
     Eigenvalues --  1491.007333526.423244544.60029
           X            0.99987  -0.00523   0.01505
           Y            0.00519   0.99998   0.00234
           Z           -0.01506  -0.00226   0.99988
 This molecule is an asymmetric top.
 Rotational symmetry number  1.
 Warning -- assumption of classical behavior for rotation
           may cause significant error
 Rotational temperatures (Kelvin)      0.05809     0.02456     0.01906
 Rotational constants (GHZ):           1.21042     0.51178     0.39712
 Zero-point vibrational energy     501308.8 (Joules/Mol)
                                  119.81569 (Kcal/Mol)
 Warning -- explicit consideration of  21 degrees of freedom as
           vibrations may cause significant error
 Vibrational temperatures:     37.19    91.13   116.45   166.37   177.20
          (Kelvin)            208.19   255.99   317.33   377.67   436.91
                              454.65   463.87   511.25   648.15   659.67
                              666.19   694.05   776.96   802.96   815.30
                              830.36   985.69  1003.63  1066.97  1153.64
                             1255.75  1309.44  1384.25  1416.61  1430.75
                             1434.01  1489.46  1564.93  1601.55  1656.43
                             1702.27  1783.34  1786.60  1804.06  1848.48
                             1893.23  1968.76  1978.41  2013.55  2025.09
                             2061.53  2131.04  2137.44  2174.27  2180.12
                             2202.18  2228.44  2321.52  2442.68  3298.83
                             4341.26  4350.21  4426.26  4438.00  4468.19
                             4474.12  4501.55  4583.06  4594.48  4969.85
                             5197.41

 Zero-point correction=                           0.190938 (Hartree/Particle)
 Thermal correction to Energy=                    0.204120
 Thermal correction to Enthalpy=                  0.205064
 Thermal correction to Gibbs Free Energy=         0.150277
 Sum of electronic and zero-point Energies=           -986.043779
 Sum of electronic and thermal Energies=              -986.030597
 Sum of electronic and thermal Enthalpies=            -986.029653
 Sum of electronic and thermal Free Energies=         -986.084440

                     E (Thermal)             CV                S
                      KCal/Mol        Cal/Mol-Kelvin    Cal/Mol-Kelvin
 Total                  128.087             48.310            115.309
 Electronic               0.000              0.000              0.000
 Translational            0.889              2.981             41.800
 Rotational               0.889              2.981             31.547
 Vibrational            126.310             42.349             41.962
 Vibration     1          0.593              1.985              6.125
 Vibration     2          0.597              1.972              4.350
 Vibration     3          0.600              1.962              3.868
 Vibration     4          0.608              1.936              3.172
 Vibration     5          0.610              1.930              3.050
 Vibration     6          0.616              1.908              2.741
 Vibration     7          0.628              1.869              2.350
 Vibration     8          0.647              1.810              1.955
 Vibration     9          0.670              1.742              1.645
 Vibration    10          0.695              1.667              1.397
 Vibration    11          0.703              1.643              1.331
 Vibration    12          0.707              1.631              1.298
 Vibration    13          0.731              1.564              1.142
 Vibration    14          0.809              1.360              0.794
 Vibration    15          0.817              1.342              0.771
 Vibration    16          0.821              1.332              0.757
 Vibration    17          0.839              1.289              0.704
 Vibration    18          0.895              1.162              0.565
 Vibration    19          0.914              1.122              0.528
 Vibration    20          0.923              1.103              0.511
 Vibration    21          0.934              1.081              0.491

 Optimization completed.
    -- Stationary point found.
 Normal termination of Gaussian 16 at Wed Dec  9 23:27:44 2020.

 ----------------------------------------------------------------------
 # B3LYP/6-311++G(d,p) empiricaldispersion=gd3bj scf=xqc pop=npa geom=c
 heck
 ----------------------------------------------------------------------

 --------------------------------------
 CID_20087759_JID_3423_Energie_neutraal
 --------------------------------------
 Structure from the checkpoint file:  "JID_3423.chk"
 Charge =  0 Multiplicity = 1

 SCF Done:  E(RB3LYP) =  -986.433155911     A.U. after   15 cycles
 Normal termination of Gaussian 16 at Wed Dec  9 23:30:33 2020.

 ----------------------------------------------------------------------
 # B3LYP/6-311++G(d,p) empiricaldispersion=gd3bj scf=xqc pop=npa geom=c
 heck
 ----------------------------------------------------------------------

 ------------------------------------
 CID_20087759_JID_3423_Energie_kation
 ------------------------------------
 Structure from the checkpoint file:  "JID_3423.chk"
 Charge =  1 Multiplicity = 2

 SCF Done:  E(UB3LYP) =  -986.135684882     A.U. after   23 cycles
 Normal termination of Gaussian 16 at Wed Dec  9 23:36:35 2020.
 Gaussian 16:  ES64L-G16RevA.03 25-Dec-2016

 ----------------------------------------------------------------------
 # B3LYP/6-311++G(d,p) empiricaldispersion=gd3bj scf=xqc pop=npa geom=c
 heck
 ----------------------------------------------------------------------

 -----------------------------------
 CID_20087759_JID_3423_Energie_anion
 -----------------------------------
 Structure from the checkpoint file:  "JID_3423.chk"
 Charge = -1 Multiplicity = 2

                         Standard orientation:
 ---------------------------------------------------------------------
 Center     Atomic      Atomic             Coordinates (Angstroms)
 Number     Number       Type             X           Y           Z
 ---------------------------------------------------------------------
      1          6           0       -2.896828   -0.208584   -1.277807
      2         16           0       -1.873893   -0.582781    0.159880
      3          8           0       -2.687500   -0.305129    1.348943
      4          8           0       -1.325368   -1.951200   -0.038301
      5          6           0       -0.535821    0.550393    0.036596
      6          6           0        0.825790    0.176574   -0.054966
      7          7           0        1.233988   -1.104693   -0.069819
      8          6           0        2.625301   -1.512248   -0.198435
      9          6           0        3.535703   -0.444736    0.403412
     10          6           0        3.197935    0.907987   -0.219177
     11          7           0        1.765967    1.152411   -0.108367
     12          6           0       -0.867999    1.915507    0.081334
     13          7           0       -1.096021    3.063051    0.081127
     14          1           0       -3.778727   -0.850098   -1.214668
     15          1           0       -2.324516   -0.420299   -2.182142
     16          1           0       -3.186547    0.843061   -1.233159
     17          1           0        0.485443   -1.796643   -0.043323
     18          1           0        2.883620   -1.676617   -1.255050
     19          1           0        2.745053   -2.467015    0.321458
     20          1           0        4.584688   -0.692103    0.215710
     21          1           0        3.382485   -0.399855    1.487078
     22          1           0        3.512086    0.927580   -1.273003
     23          1           0        3.722358    1.717409    0.297212
     24          1           0        1.427268    2.104954   -0.109665
 ---------------------------------------------------------------------

 SCF Done:  E(UB3LYP) =  -986.431895681     A.U. after   28 cycles

 The electronic state is 2-A.
 Alpha  occ. eigenvalues --  -88.96542 -19.02827 -19.02241 -14.25608 -14.24866
 Alpha  occ. eigenvalues --  -14.20922 -10.19356 -10.12394 -10.11679 -10.11666
 Alpha  occ. eigenvalues --  -10.11577 -10.10937 -10.08124  -8.02837  -5.99127
 Alpha  occ. eigenvalues --   -5.99015  -5.98951  -1.01881  -0.91699  -0.90832
 Alpha  occ. eigenvalues --   -0.82216  -0.80665  -0.73472  -0.70125  -0.66167
 Alpha  occ. eigenvalues --   -0.60695  -0.57824  -0.53974  -0.49698  -0.46948
 Alpha  occ. eigenvalues --   -0.44151  -0.41758  -0.40681  -0.39397  -0.38915
 Alpha  occ. eigenvalues --   -0.38002  -0.36269  -0.35125  -0.34457  -0.34421
 Alpha  occ. eigenvalues --   -0.32814  -0.28940  -0.27335  -0.26856  -0.26179
 Alpha  occ. eigenvalues --   -0.25642  -0.24583  -0.24121  -0.23260  -0.21854
 Alpha  occ. eigenvalues --   -0.20583  -0.16641  -0.12880   0.03815
 Alpha virt. eigenvalues --    0.06522   0.07417   0.07879   0.08688   0.08933
 Alpha virt. eigenvalues --    0.09455   0.10286   0.10668   0.11120   0.11234
 Alpha virt. eigenvalues --    0.11442   0.12112   0.13865   0.13924   0.15233

  Beta  occ. eigenvalues --  -88.96540 -19.02819 -19.02236 -14.25596 -14.24856
  Beta  occ. eigenvalues --  -14.20908 -10.19300 -10.12389 -10.11620 -10.11616
  Beta  occ. eigenvalues --  -10.11574 -10.10938 -10.08077  -8.02835  -5.99125
  Beta  occ. eigenvalues --   -5.99011  -5.98949  -1.01863  -0.91671  -0.90778
  Beta  occ. eigenvalues --   -0.82170  -0.80640  -0.73415  -0.70083  -0.66132
  Beta  occ. eigenvalues --   -0.60594  -0.57731  -0.53943  -0.49632  -0.46836
  Beta  occ. eigenvalues --   -0.44113  -0.41718  -0.40621  -0.39351  -0.38886
  Beta  occ. eigenvalues --   -0.37959  -0.36190  -0.35102  -0.34439  -0.34331
  Beta  occ. eigenvalues --   -0.32685  -0.28855  -0.27299  -0.26810  -0.26103
  Beta  occ. eigenvalues --   -0.25611  -0.24546  -0.24034  -0.23249  -0.21839
  Beta  occ. eigenvalues --   -0.20570  -0.16589  -0.12829
  Beta virt. eigenvalues --    0.06327   0.07066   0.08315   0.08731   0.09106
  Beta virt. eigenvalues --    0.09559   0.09866   0.10419   0.10769   0.11506
  Beta virt. eigenvalues --    0.11874   0.12150   0.12488   0.13857   0.14131

 Mulliken charges and spin densities:
               1          2
     1  C   -0.538727  -0.065492
     2  S    0.648405  -0.092751
     3  O   -0.121804   0.002718
     4  O   -0.294273   0.005440
     5  C    0.677768   0.110185
     6  C    0.387659  -0.135460
     7  N   -0.520258   0.254109
     8  C    1.246672  -1.509920
     9  C   -0.304134  -0.003801
    10  C    1.584476  -1.775217
    11  N   -0.404617   0.276580
    12  C   -1.255234  -0.397707
    13  N   -0.250459   0.009216
    14  H    0.186490   0.020645
    15  H    0.072017   0.111974
    16  H    0.204691   0.032025
    17  H    0.335149   0.087449
    18  H   -0.387878   0.584426
    19  H   -0.495907   0.660812
    20  H   -0.890035   1.106102
    21  H    0.098151   0.050169
    22  H   -0.411526   0.607051
    23  H   -0.712208   0.886525
    24  H    0.145581   0.174921
 Sum of Mulliken charges =  -1.00000   1.00000

 Dipole moment (field-independent basis, Debye):
    X=             -8.4831    Y=             -1.0583    Z=             -1.0411  Tot=              8.6121
 Quadrupole moment (field-independent basis, Debye-Ang):
   XX=           -166.6157   YY=           -132.2095   ZZ=           -113.2685
   XY=              6.8186   XZ=             17.6697   YZ=             -1.5690

 Summary of Natural Population Analysis:

                                       Natural Population
                Natural  -----------------------------------------------
    Atom  No    Charge         Core      Valence    Rydberg      Total
 -----------------------------------------------------------------------
      C    1   -0.39034      0.99961     2.38364    0.00709     3.39034
      S    2    1.04170      4.99924     1.86287    0.09619     6.95830
      O    3   -0.46290      0.99991     3.45721    0.00579     4.46290
      O    4   -0.48526      0.99990     3.47950    0.00586     4.48526
      C    5   -0.31614      0.99932     2.30292    0.01390     3.31614
      C    6    0.25752      0.99953     1.72818    0.01478     2.74248
      N    7   -0.30202      0.99965     2.79350    0.00888     3.80202
      C    8   -0.08282      0.99962     2.07237    0.01084     3.08282
      C    9   -0.20082      0.99963     2.19267    0.00852     3.20082
      C   10   -0.08243      0.99962     2.07162    0.01119     3.08243
      N   11   -0.29964      0.99967     2.79122    0.00875     3.79964
      C   12    0.13319      0.99963     1.84935    0.01784     2.86681
      N   13   -0.20244      0.99979     2.69129    0.01137     3.70244
      H   14    0.11316      0.00000     0.38568    0.00116     0.38684
      H   15    0.11463      0.00000     0.38410    0.00127     0.38537
      H   16    0.11746      0.00000     0.38154    0.00100     0.38254
      H   17    0.21921      0.00000     0.27859    0.00220     0.28079
      H   18    0.09902      0.00000     0.39733    0.00366     0.40098
      H   19    0.10286      0.00000     0.39561    0.00153     0.39714
      H   20    0.11665      0.00000     0.37668    0.00667     0.38335
      H   21    0.10017      0.00000     0.39827    0.00156     0.39983
      H   22    0.09928      0.00000     0.39602    0.00470     0.40072
      H   23    0.10450      0.00000     0.39304    0.00245     0.39550
      H   24    0.20547      0.00000     0.29247    0.00205     0.29453
 =======================================================================
   * Total *    0.00000     16.99510    35.75565    0.24925    53.00000

 Normal termination of Gaussian 16 at Wed Dec  9 23:43:55 2020.
