 Gaussian 16, Revision A.03,

 -----------------------------------------------------------
 # opt freq B3LYP/6-31G(d) empiricaldispersion=gd3bj scf=xqc
 -----------------------------------------------------------

 -----------------------------
 CID_45088130_JID_864_neutraal
 -----------------------------
 Symbolic Z-matrix:
 Charge =  0 Multiplicity = 1

 SCF Done:  E(RB3LYP) =  -462.306594453     A.U. after   13 cycles
 SCF Done:  E(RB3LYP) =  -462.309040710     A.U. after   11 cycles
 SCF Done:  E(RB3LYP) =  -462.309010377     A.U. after   11 cycles
 SCF Done:  E(RB3LYP) =  -462.309633609     A.U. after   11 cycles
 SCF Done:  E(RB3LYP) =  -462.309874782     A.U. after   10 cycles
 SCF Done:  E(RB3LYP) =  -462.309926337     A.U. after   10 cycles
 SCF Done:  E(RB3LYP) =  -462.309954021     A.U. after   10 cycles
 SCF Done:  E(RB3LYP) =  -462.309970863     A.U. after    9 cycles
 SCF Done:  E(RB3LYP) =  -462.309979346     A.U. after   10 cycles
 SCF Done:  E(RB3LYP) =  -462.309980115     A.U. after    8 cycles
 SCF Done:  E(RB3LYP) =  -462.309980311     A.U. after    7 cycles
 SCF Done:  E(RB3LYP) =  -462.309980345     A.U. after    6 cycles
 SCF Done:  E(RB3LYP) =  -462.309980354     A.U. after    6 cycles
 SCF Done:  E(RB3LYP) =  -462.309980362     A.U. after    6 cycles
 Optimization completed.
    -- Stationary point found.
 Normal termination of Gaussian 16 at Tue Dec  8 13:27:21 2020.

 --------------------------------------------------------------------
 #N Geom=AllCheck Guess=TCheck SCRF=Check GenChk RB3LYP/6-31G(d) Freq
 --------------------------------------------------------------------

 Structure from the checkpoint file:  "JID_864.chk"
 -----------------------------
 CID_45088130_JID_864_neutraal
 -----------------------------
 Charge =  0 Multiplicity = 1

 SCF Done:  E(RB3LYP) =  -462.309980362     A.U. after    1 cycles

  Exact polarizability: 103.015   2.191  89.007   3.130  -1.810  88.383
 Approx polarizability: 128.348   2.835 121.084   1.929  -1.581 128.464

                      1                      2                      3
                      A                      A                      A
 Frequencies --     17.1942                29.9120                78.6253
 Red. masses --      3.9660                 3.7453                 3.2693
 Frc consts  --      0.0007                 0.0020                 0.0119
 IR Inten    --      0.7493                 0.1443                 1.8614

                      4                      5                      6
                      A                      A                      A
 Frequencies --    106.4473               173.1263               185.2677
 Red. masses --      2.8313                 2.2853                 1.9861
 Frc consts  --      0.0189                 0.0404                 0.0402
 IR Inten    --      0.8526                 8.8076                17.1393

                      7                      8                      9
                      A                      A                      A
 Frequencies --    226.1386               238.9494               264.8200
 Red. masses --      1.7287                 1.8500                 1.3053
 Frc consts  --      0.0521                 0.0622                 0.0539
 IR Inten    --     21.2303                40.5214                18.5743

                     10                     11                     12
                      A                      A                      A
 Frequencies --    271.2767               295.1550               299.6644
 Red. masses --      1.9025                 1.5203                 1.6142
 Frc consts  --      0.0825                 0.0780                 0.0854
 IR Inten    --      0.2825                38.3670                24.6848

                     13                     14                     15
                      A                      A                      A
 Frequencies --    338.1049               385.6552               445.7072
 Red. masses --      1.7571                 2.2769                 2.0797
 Frc consts  --      0.1183                 0.1995                 0.2434
 IR Inten    --      0.8881                 6.4723                 1.1626

                     16                     17                     18
                      A                      A                      A
 Frequencies --    489.1331               519.9527               588.8736
 Red. masses --      2.3385                 2.3870                 2.3228
 Frc consts  --      0.3296                 0.3802                 0.4746
 IR Inten    --      2.3733                 4.3668                 5.6184

                     19                     20                     21
                      A                      A                      A
 Frequencies --    746.0091               769.0244               821.4175
 Red. masses --      2.0380                 1.8449                 1.5208
 Frc consts  --      0.6682                 0.6429                 0.6046
 IR Inten    --     50.1449                28.2133                 2.2822

                     22                     23                     24
                      A                      A                      A
 Frequencies --    839.0031               886.3862               909.7477
 Red. masses --      1.2720                 2.1188                 1.7186
 Frc consts  --      0.5275                 0.9808                 0.8381
 IR Inten    --      1.7008                12.8474                12.4011

                     25                     26                     27
                      A                      A                      A
 Frequencies --    931.7997              1001.7906              1045.4013
 Red. masses --      1.9945                 2.2261                 1.7808
 Frc consts  --      1.0203                 1.3163                 1.1467
 IR Inten    --     21.4743                19.8280                27.4970

                     28                     29                     30
                      A                      A                      A
 Frequencies --   1072.8237              1090.0492              1094.7413
 Red. masses --      3.0988                 2.1159                 2.5837
 Frc consts  --      2.1014                 1.4813                 1.8244
 IR Inten    --     47.6344                 7.5157                24.7930

                     31                     32                     33
                      A                      A                      A
 Frequencies --   1105.4212              1140.9363              1145.0344
 Red. masses --      1.5574                 1.6132                 1.7938
 Frc consts  --      1.1213                 1.2372                 1.3857
 IR Inten    --     11.9545                16.4572                 9.4790

                     34                     35                     36
                      A                      A                      A
 Frequencies --   1161.8881              1185.7651              1201.7719
 Red. masses --      2.7929                 1.7751                 1.5966
 Frc consts  --      2.2214                 1.4705                 1.3586
 IR Inten    --     19.6602                12.2531                16.8758

                     37                     38                     39
                      A                      A                      A
 Frequencies --   1229.1272              1257.6496              1285.3041
 Red. masses --      1.3836                 1.2519                 1.8396
 Frc consts  --      1.2316                 1.1667                 1.7906
 IR Inten    --     14.5856                 9.9974                24.6758

                     40                     41                     42
                      A                      A                      A
 Frequencies --   1333.4952              1337.4603              1382.8196
 Red. masses --      1.3886                 1.2876                 1.4342
 Frc consts  --      1.4549                 1.3570                 1.6159
 IR Inten    --     19.8497                 7.5696                 6.3935

                     43                     44                     45
                      A                      A                      A
 Frequencies --   1396.1854              1401.8604              1410.6651
 Red. masses --      1.2842                 1.2409                 1.2241
 Frc consts  --      1.4749                 1.4368                 1.4353
 IR Inten    --     18.8855                 3.4935                 9.5181

                     46                     47                     48
                      A                      A                      A
 Frequencies --   1421.7995              1422.7645              1430.9105
 Red. masses --      1.3014                 1.3026                 1.2972
 Frc consts  --      1.5500                 1.5535                 1.5649
 IR Inten    --     31.8588                 7.1168                 5.9087

                     49                     50                     51
                      A                      A                      A
 Frequencies --   1447.0979              1483.7745              1498.2632
 Red. masses --      1.3603                 1.1606                 1.0919
 Frc consts  --      1.6784                 1.5055                 1.4442
 IR Inten    --     27.5852                 1.7007                 4.0046

                     52                     53                     54
                      A                      A                      A
 Frequencies --   1505.2363              1510.8925              1515.7636
 Red. masses --      1.0973                 1.0998                 1.1417
 Frc consts  --      1.4648                 1.4792                 1.5455
 IR Inten    --      6.6297                19.9925                 4.6686

                     55                     56                     57
                      A                      A                      A
 Frequencies --   1527.5209              1531.6188              1533.2527
 Red. masses --      1.0485                 1.0716                 1.0980
 Frc consts  --      1.4415                 1.4811                 1.5209
 IR Inten    --      5.4784                 6.1742                 8.6290

                     58                     59                     60
                      A                      A                      A
 Frequencies --   1544.8899              1550.0266              1566.1972
 Red. masses --      1.0676                 1.0607                 1.0916
 Frc consts  --      1.5012                 1.5015                 1.5776
 IR Inten    --      5.5942                 3.0259                 3.8355

                     61                     62                     63
                      A                      A                      A
 Frequencies --   2870.0975              2900.9283              2944.4803
 Red. masses --      1.0749                 1.0658                 1.0721
 Frc consts  --      5.2167                 5.2846                 5.4765
 IR Inten    --     92.7361               140.6331                83.0206

                     64                     65                     66
                      A                      A                      A
 Frequencies --   3018.1628              3039.0554              3040.6113
 Red. masses --      1.0693                 1.0749                 1.0637
 Frc consts  --      5.7388                 5.8492                 5.7943
 IR Inten    --     50.1608                18.3460                28.5487

                     67                     68                     69
                      A                      A                      A
 Frequencies --   3042.1572              3052.9508              3059.3731
 Red. masses --      1.0828                 1.0792                 1.0373
 Frc consts  --      5.9044                 5.9265                 5.7203
 IR Inten    --     52.0887                64.9392                21.7656

                     70                     71                     72
                      A                      A                      A
 Frequencies --   3066.4572              3089.8423              3103.9712
 Red. masses --      1.0656                 1.1001                 1.0990
 Frc consts  --      5.9036                 6.1878                 6.2386
 IR Inten    --     56.4900                28.7145                60.6805

                     73                     74                     75
                      A                      A                      A
 Frequencies --   3115.8262              3120.6920              3126.6909
 Red. masses --      1.1029                 1.0963                 1.1017
 Frc consts  --      6.3089                 6.2903                 6.3459
 IR Inten    --     24.3488                33.7535                26.1300

                     76                     77                     78
                      A                      A                      A
 Frequencies --   3141.4312              3525.2440              3743.2337
 Red. masses --      1.1022                 1.0731                 1.0663
 Frc consts  --      6.4089                 7.8570                 8.8028
 IR Inten    --     18.6738                 0.7270                13.8294

 - Thermochemistry -
 -------------------
 Temperature   298.150 Kelvin.  Pressure   1.00000 Atm.
 Atom     1 has atomic number  6 and mass  12.00000

 Molecular mass:   146.14191 amu.
 Principal axes and moments of inertia in atomic units:
                           1         2         3
     Eigenvalues --  1025.470292553.727352671.70248
           X            0.99977  -0.00051   0.02132
           Y            0.00229   0.99651  -0.08348
           Z           -0.02120   0.08351   0.99628
 This molecule is an asymmetric top.
 Rotational symmetry number  1.
 Warning -- assumption of classical behavior for rotation
           may cause significant error
 Rotational temperatures (Kelvin)      0.08446     0.03392     0.03242
 Rotational constants (GHZ):           1.75992     0.70671     0.67550
 Zero-point vibrational energy     679651.1 (Joules/Mol)
                                  162.44052 (Kcal/Mol)
 Warning -- explicit consideration of  18 degrees of freedom as
           vibrations may cause significant error
 Vibrational temperatures:     24.74    43.04   113.12   153.15   249.09
          (Kelvin)            266.56   325.36   343.79   381.02   390.31
                              424.66   431.15   486.46   554.87   641.27
                              703.75   748.10   847.26  1073.34  1106.45
                             1181.84  1207.14  1275.31  1308.92  1340.65
                             1441.35  1504.10  1543.55  1568.34  1575.09
                             1590.45  1641.55  1647.45  1671.70  1706.05
                             1729.08  1768.44  1809.48  1849.27  1918.60
                             1924.31  1989.57  2008.80  2016.96  2029.63
                             2045.65  2047.04  2058.76  2082.05  2134.82
                             2155.67  2165.70  2173.84  2180.85  2197.76
                             2203.66  2206.01  2222.75  2230.14  2253.41
                             4129.43  4173.79  4236.45  4342.46  4372.52
                             4374.76  4376.99  4392.52  4401.76  4411.95
                             4445.59  4465.92  4482.98  4489.98  4498.61
                             4519.82  5072.04  5385.68

 Zero-point correction=                           0.258865 (Hartree/Particle)
 Thermal correction to Energy=                    0.271448
 Thermal correction to Enthalpy=                  0.272392
 Thermal correction to Gibbs Free Energy=         0.218787
 Sum of electronic and zero-point Energies=           -462.051115
 Sum of electronic and thermal Energies=              -462.038533
 Sum of electronic and thermal Enthalpies=            -462.037589
 Sum of electronic and thermal Free Energies=         -462.091194

                     E (Thermal)             CV                S
                      KCal/Mol        Cal/Mol-Kelvin    Cal/Mol-Kelvin
 Total                  170.336             45.441            112.821
 Electronic               0.000              0.000              0.000
 Translational            0.889              2.981             40.849
 Rotational               0.889              2.981             30.327
 Vibrational            168.558             39.480             41.646
 Vibration     1          0.593              1.986              6.934
 Vibration     2          0.594              1.984              5.835
 Vibration     3          0.600              1.964              3.925
 Vibration     4          0.605              1.944              3.333
 Vibration     5          0.627              1.876              2.401
 Vibration     6          0.631              1.860              2.275
 Vibration     7          0.650              1.801              1.909
 Vibration     8          0.657              1.781              1.811
 Vibration     9          0.671              1.737              1.630
 Vibration    10          0.675              1.726              1.588
 Vibration    11          0.689              1.683              1.444
 Vibration    12          0.692              1.674              1.419
 Vibration    13          0.718              1.599              1.221
 Vibration    14          0.754              1.501              1.017
 Vibration    15          0.805              1.370              0.809
 Vibration    16          0.845              1.274              0.686
 Vibration    17          0.875              1.206              0.610
 Vibration    18          0.946              1.056              0.469

                           ! Non-Optimized Parameters !
 Normal termination of Gaussian 16 at Tue Dec  8 13:36:08 2020.

 ----------------------------------------------------------------------
 # B3LYP/6-311++G(d,p) empiricaldispersion=gd3bj scf=xqc pop=npa geom=c
 heck
 ----------------------------------------------------------------------

 -------------------------------------
 CID_45088130_JID_864_Energie_neutraal
 -------------------------------------
 Structure from the checkpoint file:  "JID_864.chk"
 Charge =  0 Multiplicity = 1

 SCF Done:  E(RB3LYP) =  -462.457969318     A.U. after   13 cycles
 Normal termination of Gaussian 16 at Tue Dec  8 13:40:08 2020.

 ----------------------------------------------------------------------
 # B3LYP/6-311++G(d,p) empiricaldispersion=gd3bj scf=xqc pop=npa geom=c
 heck
 ----------------------------------------------------------------------

 -----------------------------------
 CID_45088130_JID_864_Energie_kation
 -----------------------------------
 Structure from the checkpoint file:  "JID_864.chk"
 Charge =  1 Multiplicity = 2

 SCF Done:  E(UB3LYP) =  -462.170741248     A.U. after   21 cycles
 Normal termination of Gaussian 16 at Tue Dec  8 13:46:40 2020.
 Gaussian 16:  ES64L-G16RevA.03 25-Dec-2016

 ----------------------------------------------------------------------
 # B3LYP/6-311++G(d,p) empiricaldispersion=gd3bj scf=xqc pop=npa geom=c
 heck
 ----------------------------------------------------------------------

 ----------------------------------
 CID_45088130_JID_864_Energie_anion
 ----------------------------------
 Structure from the checkpoint file:  "JID_864.chk"
 Charge = -1 Multiplicity = 2

                         Standard orientation:
 ---------------------------------------------------------------------
 Center     Atomic      Atomic             Coordinates (Angstroms)
 Number     Number       Type             X           Y           Z
 ---------------------------------------------------------------------
      1          6           0       -2.236839    1.791643   -0.680799
      2          6           0       -1.965963    0.322670   -0.994636
      3          7           0       -1.978662   -0.552770    0.173386
      4          6           0       -1.762363   -1.935525   -0.201039
      5          6           0       -1.222676   -0.140669    1.356072
      6          6           0        0.312651   -0.189700    1.291688
      7          7           0        0.870062    0.881802    0.467608
      8          6           0        2.330014    0.934991    0.429072
      9          6           0        3.015348   -0.309500   -0.155378
     10          8           0        2.505294   -0.636472   -1.446400
     11          1           0       -3.146045    1.892229   -0.078458
     12          1           0       -2.380262    2.346388   -1.614096
     13          1           0       -1.404282    2.251333   -0.140844
     14          1           0       -2.747684   -0.049316   -1.670512
     15          1           0       -1.021256    0.237439   -1.575327
     16          1           0       -0.773831   -2.131007   -0.667301
     17          1           0       -1.846636   -2.579608    0.680902
     18          1           0       -2.525335   -2.244344   -0.925003
     19          1           0       -1.525498    0.873283    1.630678
     20          1           0       -1.540959   -0.801601    2.173095
     21          1           0        0.698743   -0.050139    2.310672
     22          1           0        0.629779   -1.204834    0.987559
     23          1           0        0.532801    0.799441   -0.487697
     24          1           0        2.608395    1.805140   -0.176730
     25          1           0        2.702129    1.110822    1.447815
     26          1           0        4.084180   -0.113889   -0.290394
     27          1           0        2.923963   -1.165757    0.529463
     28          1           0        1.628608   -1.030482   -1.319455
 ---------------------------------------------------------------------

 SCF Done:  E(UB3LYP) =  -462.443142975     A.U. after   26 cycles

 The electronic state is 2-A.
 Alpha  occ. eigenvalues --  -19.01948 -14.19651 -14.19356 -10.10887 -10.09131
 Alpha  occ. eigenvalues --  -10.08888 -10.08322 -10.08161 -10.07480 -10.05965
 Alpha  occ. eigenvalues --   -0.91995  -0.82128  -0.79543  -0.65804  -0.64244
 Alpha  occ. eigenvalues --   -0.60691  -0.55681  -0.53338  -0.49998  -0.45801
 Alpha  occ. eigenvalues --   -0.40957  -0.39818  -0.38381  -0.36600  -0.35741
 Alpha  occ. eigenvalues --   -0.34179  -0.33146  -0.31818  -0.30039  -0.29218
 Alpha  occ. eigenvalues --   -0.28915  -0.26661  -0.26173  -0.25628  -0.25422
 Alpha  occ. eigenvalues --   -0.24578  -0.23750  -0.22673  -0.18284  -0.12481
 Alpha  occ. eigenvalues --   -0.10405   0.04748
 Alpha virt. eigenvalues --    0.07070   0.07549   0.08079   0.09435   0.09585
 Alpha virt. eigenvalues --    0.09818   0.10540   0.10680   0.12148   0.12547
 Alpha virt. eigenvalues --    0.13196   0.13671   0.14030   0.14186   0.14969

  Beta  occ. eigenvalues --  -19.01913 -14.19651 -14.19348 -10.10860 -10.09106
  Beta  occ. eigenvalues --  -10.08875 -10.08305 -10.08123 -10.07424 -10.05953
  Beta  occ. eigenvalues --   -0.91921  -0.82106  -0.79518  -0.65767  -0.64197
  Beta  occ. eigenvalues --   -0.60625  -0.55593  -0.53272  -0.49928  -0.45726
  Beta  occ. eigenvalues --   -0.40883  -0.39773  -0.38335  -0.36569  -0.35673
  Beta  occ. eigenvalues --   -0.34150  -0.33084  -0.31776  -0.29990  -0.29182
  Beta  occ. eigenvalues --   -0.28878  -0.26624  -0.26113  -0.25582  -0.25390
  Beta  occ. eigenvalues --   -0.24537  -0.23716  -0.22638  -0.18238  -0.12461
  Beta  occ. eigenvalues --   -0.10377
  Beta virt. eigenvalues --    0.07043   0.07789   0.08224   0.08691   0.09850
  Beta virt. eigenvalues --    0.10131   0.10375   0.11031   0.11126   0.12433
  Beta virt. eigenvalues --    0.13071   0.13559   0.14063   0.14305   0.14614

 Mulliken charges and spin densities:
               1          2
     1  C    0.141573  -0.655298
     2  C   -0.157307  -0.082123
     3  N   -0.106740   0.227819
     4  C    1.103313  -1.401097
     5  C    1.031997  -1.558764
     6  C   -0.697983   0.278772
     7  N   -0.109101  -0.016222
     8  C   -0.928117   0.795587
     9  C    1.236911  -1.600962
    10  O   -0.301686   0.039924
    11  H    0.026748   0.115517
    12  H    0.020306   0.101704
    13  H   -0.077257   0.227141
    14  H   -0.379782   0.540135
    15  H   -0.119662   0.206938
    16  H   -0.255310   0.370905
    17  H   -0.610439   0.753472
    18  H   -0.328558   0.465396
    19  H    0.202564  -0.048812
    20  H   -0.369020   0.559979
    21  H   -0.573825   0.728152
    22  H    0.378933  -0.257734
    23  H    0.683960  -0.464159
    24  H   -0.073829   0.237152
    25  H   -0.128696   0.246903
    26  H   -0.137475   0.297033
    27  H   -0.554741   0.718390
    28  H    0.083222   0.174253
 Sum of Mulliken charges =  -1.00000   1.00000

 Dipole moment (field-independent basis, Debye):
    X=              0.1856    Y=              4.8818    Z=             -0.7012  Tot=              4.9354
 Quadrupole moment (field-independent basis, Debye-Ang):
   XX=           -119.8659   YY=           -106.4163   ZZ=           -107.0202
   XY=             -2.9685   XZ=             -1.5542   YZ=              0.7742

 Summary of Natural Population Analysis:

                                       Natural Population
                Natural  -----------------------------------------------
    Atom  No    Charge         Core      Valence    Rydberg      Total
 -----------------------------------------------------------------------
      C    1   -0.29491      0.99966     2.29084    0.00441     3.29491
      C    2   -0.08198      0.99962     2.07024    0.01212     3.08198
      N    3   -0.28248      0.99973     2.76821    0.01454     3.78248
      C    4   -0.17650      0.99964     2.16726    0.00960     3.17650
      C    5   -0.08649      0.99960     2.07325    0.01364     3.08649
      C    6   -0.10250      0.99961     2.09108    0.01181     3.10250
      N    7   -0.34717      0.99975     2.83530    0.01212     3.84717
      C    8   -0.09725      0.99963     2.08586    0.01176     3.09725
      C    9   -0.02095      0.99961     2.00900    0.01234     3.02095
      O   10   -0.37283      0.99990     3.36533    0.00760     4.37283
      H   11    0.09820      0.00000     0.40050    0.00130     0.40180
      H   12    0.09840      0.00000     0.40080    0.00080     0.40160
      H   13    0.10432      0.00000     0.39415    0.00153     0.39568
      H   14    0.09470      0.00000     0.40365    0.00165     0.40530
      H   15    0.07123      0.00000     0.42672    0.00204     0.42877
      H   16    0.07853      0.00000     0.41876    0.00271     0.42147
      H   17    0.09815      0.00000     0.40020    0.00165     0.40185
      H   18    0.09574      0.00000     0.40243    0.00182     0.40426
      H   19    0.09646      0.00000     0.40178    0.00176     0.40354
      H   20    0.09801      0.00000     0.40065    0.00134     0.40199
      H   21    0.09475      0.00000     0.40331    0.00193     0.40525
      H   22    0.08216      0.00000     0.41501    0.00282     0.41784
      H   23    0.17329      0.00000     0.32269    0.00402     0.32671
      H   24    0.09155      0.00000     0.40742    0.00103     0.40845
      H   25    0.09260      0.00000     0.40617    0.00123     0.40740
      H   26    0.08443      0.00000     0.41433    0.00124     0.41557
      H   27    0.08002      0.00000     0.41814    0.00184     0.41998
      H   28    0.23050      0.00000     0.26523    0.00427     0.26950
 =======================================================================
   * Total *   -0.00000      9.99675    30.85832    0.14493    41.00000

 Normal termination of Gaussian 16 at Tue Dec  8 13:55:13 2020.
