 Gaussian 16, Revision A.03,

 -----------------------------------------------------------
 # opt freq B3LYP/6-31G(d) empiricaldispersion=gd3bj scf=xqc
 -----------------------------------------------------------

 ------------------------------
 CID_82644712_JID_2425_neutraal
 ------------------------------
 Symbolic Z-matrix:
 Charge =  0 Multiplicity = 1

 SCF Done:  E(RB3LYP) =  -539.962970716     A.U. after   14 cycles
 SCF Done:  E(RB3LYP) =  -539.965549171     A.U. after   11 cycles
 SCF Done:  E(RB3LYP) =  -539.966172720     A.U. after   11 cycles
 SCF Done:  E(RB3LYP) =  -539.966870372     A.U. after   11 cycles
 SCF Done:  E(RB3LYP) =  -539.967376621     A.U. after   11 cycles
 SCF Done:  E(RB3LYP) =  -539.967514463     A.U. after   11 cycles
 SCF Done:  E(RB3LYP) =  -539.967555280     A.U. after   10 cycles
 SCF Done:  E(RB3LYP) =  -539.967568435     A.U. after   10 cycles
 SCF Done:  E(RB3LYP) =  -539.967572440     A.U. after    9 cycles
 SCF Done:  E(RB3LYP) =  -539.967573783     A.U. after    8 cycles
 SCF Done:  E(RB3LYP) =  -539.967574003     A.U. after    8 cycles
 SCF Done:  E(RB3LYP) =  -539.967574128     A.U. after    7 cycles
 Optimization completed.
    -- Stationary point found.
 Normal termination of Gaussian 16 at Wed Dec  9 17:20:48 2020.

 --------------------------------------------------------------------
 #N Geom=AllCheck Guess=TCheck SCRF=Check GenChk RB3LYP/6-31G(d) Freq
 --------------------------------------------------------------------

 Structure from the checkpoint file:  "JID_2425.chk"
 ------------------------------
 CID_82644712_JID_2425_neutraal
 ------------------------------
 Charge =  0 Multiplicity = 1

 SCF Done:  E(RB3LYP) =  -539.967574128     A.U. after    1 cycles

  Exact polarizability: 143.773  -1.117 122.583  -4.938   0.612  65.921
 Approx polarizability: 210.886   3.122 184.317  -8.289   0.447  99.544

                      1                      2                      3
                      A                      A                      A
 Frequencies --     55.2035                74.0513                97.5264
 Red. masses --      2.6145                 2.8134                 3.8720
 Frc consts  --      0.0047                 0.0091                 0.0217
 IR Inten    --      0.4230                 0.1900                 6.8308

                      4                      5                      6
                      A                      A                      A
 Frequencies --    132.9516               165.3940               182.2689
 Red. masses --      4.1673                 2.9221                 2.0871
 Frc consts  --      0.0434                 0.0471                 0.0409
 IR Inten    --      1.2839                 0.4993                 0.8850

                      7                      8                      9
                      A                      A                      A
 Frequencies --    217.3338               259.6072               282.7301
 Red. masses --      2.7564                 1.6356                 1.5582
 Frc consts  --      0.0767                 0.0649                 0.0734
 IR Inten    --      0.2500                 5.7860                10.4542

                     10                     11                     12
                      A                      A                      A
 Frequencies --    305.7420               311.5216               364.1999
 Red. masses --      1.3415                 2.2559                 1.3653
 Frc consts  --      0.0739                 0.1290                 0.1067
 IR Inten    --      0.3789                11.1858               122.2361

                     13                     14                     15
                      A                      A                      A
 Frequencies --    392.2828               441.2677               459.5805
 Red. masses --      5.0918                 3.7428                 3.0412
 Frc consts  --      0.4617                 0.4294                 0.3785
 IR Inten    --      2.3012                 1.6792                 3.4487

                     16                     17                     18
                      A                      A                      A
 Frequencies --    520.6467               541.1447               552.2342
 Red. masses --      3.8010                 3.9226                 4.0521
 Frc consts  --      0.6071                 0.6768                 0.7281
 IR Inten    --     12.5556                 3.8596                 8.2400

                     19                     20                     21
                      A                      A                      A
 Frequencies --    608.2606               711.1644               735.9266
 Red. masses --      2.9477                 4.2722                 3.9921
 Frc consts  --      0.6426                 1.2730                 1.2739
 IR Inten    --      5.2494                 4.2020                 0.5143

                     22                     23                     24
                      A                      A                      A
 Frequencies --    788.0803               807.4090               841.9796
 Red. masses --      2.1519                 1.5973                 1.5887
 Frc consts  --      0.7874                 0.6135                 0.6636
 IR Inten    --      7.8173                12.1622                15.8260

                     25                     26                     27
                      A                      A                      A
 Frequencies --    875.3718               933.4836               949.5832
 Red. masses --      1.4273                 2.9414                 1.3234
 Frc consts  --      0.6444                 1.5101                 0.7031
 IR Inten    --     22.8524                12.0654                 2.4474

                     28                     29                     30
                      A                      A                      A
 Frequencies --    985.1556              1024.7691              1036.4190
 Red. masses --      1.6080                 2.4443                 6.5172
 Frc consts  --      0.9195                 1.5123                 4.1246
 IR Inten    --     29.8453                 1.3434                80.3570

                     31                     32                     33
                      A                      A                      A
 Frequencies --   1075.6716              1098.5032              1118.5922
 Red. masses --      2.5773                 2.7215                 1.5585
 Frc consts  --      1.7570                 1.9349                 1.1489
 IR Inten    --     16.3642                27.1581                 3.8930

                     34                     35                     36
                      A                      A                      A
 Frequencies --   1133.6893              1186.1450              1193.6002
 Red. masses --      2.0437                 1.2713                 1.6283
 Frc consts  --      1.5476                 1.0538                 1.3668
 IR Inten    --     37.4357                 0.6197                14.6999

                     37                     38                     39
                      A                      A                      A
 Frequencies --   1208.9711              1223.5594              1249.2075
 Red. masses --      1.1435                 1.4294                 2.1788
 Frc consts  --      0.9847                 1.2608                 2.0032
 IR Inten    --     10.1340                 1.5362                 7.5848

                     40                     41                     42
                      A                      A                      A
 Frequencies --   1301.9360              1317.5565              1333.9396
 Red. masses --      2.2255                 1.1671                 2.5510
 Frc consts  --      2.2226                 1.1937                 2.6744
 IR Inten    --    171.8628                 7.8860                79.4179

                     43                     44                     45
                      A                      A                      A
 Frequencies --   1346.9518              1384.6334              1397.7581
 Red. masses --      2.1108                 1.3952                 1.9193
 Frc consts  --      2.2564                 1.5761                 2.2093
 IR Inten    --     19.8268                 9.4281                25.7117

                     46                     47                     48
                      A                      A                      A
 Frequencies --   1436.5407              1439.4125              1469.8174
 Red. masses --      1.3018                 1.2577                 2.4565
 Frc consts  --      1.5829                 1.5353                 3.1268
 IR Inten    --     82.4710                13.1931                 8.0710

                     49                     50                     51
                      A                      A                      A
 Frequencies --   1504.6292              1519.7860              1521.1544
 Red. masses --      1.2502                 1.1310                 1.0479
 Frc consts  --      1.6676                 1.5392                 1.4286
 IR Inten    --     11.5524                 5.4900                 4.8426

                     52                     53                     54
                      A                      A                      A
 Frequencies --   1531.7482              1535.2770              1540.3063
 Red. masses --      1.0417                 1.1006                 1.1022
 Frc consts  --      1.4400                 1.5285                 1.5407
 IR Inten    --      6.7898                52.8259                 1.9708

                     55                     56                     57
                      A                      A                      A
 Frequencies --   1540.9158              1556.9320              1636.6469
 Red. masses --      1.0655                 2.4129                 7.0530
 Frc consts  --      1.4907                 3.4460                11.1310
 IR Inten    --      6.1557                35.1718                24.2267

                     58                     59                     60
                      A                      A                      A
 Frequencies --   1670.6544              3011.3149              3019.7230
 Red. masses --      5.6035                 1.0707                 1.0726
 Frc consts  --      9.2147                 5.7207                 5.7625
 IR Inten    --    122.1092                73.9350                20.4641

                     61                     62                     63
                      A                      A                      A
 Frequencies --   3025.3382              3048.8629              3083.5606
 Red. masses --      1.0348                 1.0362                 1.1066
 Frc consts  --      5.5803                 5.6753                 6.1991
 IR Inten    --     49.0284                24.0636                42.3731

                     64                     65                     66
                      A                      A                      A
 Frequencies --   3088.9956              3093.1554              3115.3370
 Red. masses --      1.0907                 1.0925                 1.1017
 Frc consts  --      6.1320                 6.1587                 6.2996
 IR Inten    --      3.9430                27.8700                34.0734

                     67                     68                     69
                      A                      A                      A
 Frequencies --   3121.4434              3157.9782              3175.2115
 Red. masses --      1.1010                 1.0997                 1.0888
 Frc consts  --      6.3204                 6.4617                 6.4676
 IR Inten    --     36.6031                28.9795                19.6134

                     70                     71                     72
                      A                      A                      A
 Frequencies --   3218.6477              3246.7049              3734.0928
 Red. masses --      1.0930                 1.0879                 1.0661
 Frc consts  --      6.6711                 6.7567                 8.7584
 IR Inten    --      8.7063                 7.8012                10.3631

 - Thermochemistry -
 -------------------
 Temperature   298.150 Kelvin.  Pressure   1.00000 Atm.
 Atom     1 has atomic number  6 and mass  12.00000

 Molecular mass:   166.09938 amu.
 Principal axes and moments of inertia in atomic units:
                           1         2         3
     Eigenvalues --  1327.218072797.517413944.75719
           X            0.99984  -0.01689  -0.00627
           Y            0.01689   0.99986   0.00102
           Z            0.00625  -0.00112   0.99998
 This molecule is an asymmetric top.
 Rotational symmetry number  1.
 Warning -- assumption of classical behavior for rotation
           may cause significant error
 Rotational temperatures (Kelvin)      0.06526     0.03096     0.02196
 Rotational constants (GHZ):           1.35979     0.64512     0.45750
 Zero-point vibrational energy     587774.3 (Joules/Mol)
                                  140.48143 (Kcal/Mol)
 Warning -- explicit consideration of  19 degrees of freedom as
           vibrations may cause significant error
 Vibrational temperatures:     79.43   106.54   140.32   191.29   237.97
          (Kelvin)            262.24   312.69   373.52   406.79   439.89
                              448.21   524.00   564.41   634.89   661.23
                              749.09   778.59   794.54   875.15  1023.21
                             1058.83  1133.87  1161.68  1211.42  1259.46
                             1343.07  1366.24  1417.42  1474.41  1491.18
                             1547.65  1580.50  1609.40  1631.13  1706.60
                             1717.32  1739.44  1760.43  1797.33  1873.20
                             1895.67  1919.24  1937.96  1992.18  2011.06
                             2066.86  2070.99  2114.74  2164.83  2186.63
                             2188.60  2203.84  2208.92  2216.16  2217.03
                             2240.08  2354.77  2403.70  4332.61  4344.71
                             4352.79  4386.63  4436.56  4444.38  4450.36
                             4482.28  4491.06  4543.63  4568.42  4630.92
                             4671.28  5372.53

 Zero-point correction=                           0.223871 (Hartree/Particle)
 Thermal correction to Energy=                    0.236119
 Thermal correction to Enthalpy=                  0.237063
 Thermal correction to Gibbs Free Energy=         0.185553
 Sum of electronic and zero-point Energies=           -539.743703
 Sum of electronic and thermal Energies=              -539.731455
 Sum of electronic and thermal Enthalpies=            -539.730511
 Sum of electronic and thermal Free Energies=         -539.782021

                     E (Thermal)             CV                S
                      KCal/Mol        Cal/Mol-Kelvin    Cal/Mol-Kelvin
 Total                  148.167             46.088            108.413
 Electronic               0.000              0.000              0.000
 Translational            0.889              2.981             41.231
 Rotational               0.889              2.981             31.061
 Vibrational            146.390             40.127             36.122
 Vibration     1          0.596              1.975              4.622
 Vibration     2          0.599              1.966              4.043
 Vibration     3          0.603              1.951              3.503
 Vibration     4          0.613              1.920              2.903
 Vibration     5          0.624              1.885              2.487
 Vibration     6          0.630              1.864              2.305
 Vibration     7          0.646              1.815              1.981
 Vibration     8          0.668              1.746              1.664
 Vibration     9          0.682              1.706              1.517
 Vibration    10          0.696              1.663              1.385
 Vibration    11          0.700              1.652              1.354
 Vibration    12          0.738              1.546              1.104
 Vibration    13          0.760              1.487              0.991
 Vibration    14          0.801              1.380              0.823
 Vibration    15          0.818              1.340              0.767
 Vibration    16          0.876              1.204              0.608
 Vibration    17          0.896              1.159              0.563
 Vibration    18          0.908              1.135              0.540
 Vibration    19          0.967              1.014              0.436

 Optimization completed.
    -- Stationary point found.
 Normal termination of Gaussian 16 at Wed Dec  9 17:27:04 2020.

 ----------------------------------------------------------------------
 # B3LYP/6-311++G(d,p) empiricaldispersion=gd3bj scf=xqc pop=npa geom=c
 heck
 ----------------------------------------------------------------------

 --------------------------------------
 CID_82644712_JID_2425_Energie_neutraal
 --------------------------------------
 Structure from the checkpoint file:  "JID_2425.chk"
 Charge =  0 Multiplicity = 1

 SCF Done:  E(RB3LYP) =  -540.126550189     A.U. after   14 cycles
 Normal termination of Gaussian 16 at Wed Dec  9 17:30:01 2020.

 ----------------------------------------------------------------------
 # B3LYP/6-311++G(d,p) empiricaldispersion=gd3bj scf=xqc pop=npa geom=c
 heck
 ----------------------------------------------------------------------

 ------------------------------------
 CID_82644712_JID_2425_Energie_kation
 ------------------------------------
 Structure from the checkpoint file:  "JID_2425.chk"
 Charge =  1 Multiplicity = 2

 SCF Done:  E(UB3LYP) =  -539.834423823     A.U. after   21 cycles
 Normal termination of Gaussian 16 at Wed Dec  9 17:35:56 2020.
 Gaussian 16:  ES64L-G16RevA.03 25-Dec-2016

 ----------------------------------------------------------------------
 # B3LYP/6-311++G(d,p) empiricaldispersion=gd3bj scf=xqc pop=npa geom=c
 heck
 ----------------------------------------------------------------------

 -----------------------------------
 CID_82644712_JID_2425_Energie_anion
 -----------------------------------
 Structure from the checkpoint file:  "JID_2425.chk"
 Charge = -1 Multiplicity = 2

                         Standard orientation:
 ---------------------------------------------------------------------
 Center     Atomic      Atomic             Coordinates (Angstroms)
 Number     Number       Type             X           Y           Z
 ---------------------------------------------------------------------
      1          6           0        0.627796    3.040702   -0.018180
      2          6           0        1.364933    1.721525   -0.250298
      3          6           0        0.523647    0.458882   -0.182862
      4          6           0        1.150819   -0.802332   -0.260136
      5          6           0        0.361177   -1.956615   -0.205996
      6          6           0       -1.020987   -1.895196   -0.079777
      7          6           0       -1.640360   -0.645280   -0.000879
      8          6           0       -0.867337    0.521575   -0.052983
      9          8           0       -2.999626   -0.659772    0.126115
     10          6           0       -3.676254    0.582909    0.207533
     11          6           0        2.651337   -0.932977   -0.358011
     12          8           0        3.334015   -0.508257    0.828516
     13          1           0       -0.140351    3.220753   -0.778970
     14          1           0        1.333045    3.877128   -0.058011
     15          1           0        0.141250    3.061787    0.963767
     16          1           0        1.854760    1.758482   -1.234969
     17          1           0        2.183633    1.622132    0.470188
     18          1           0        0.844821   -2.929206   -0.267024
     19          1           0       -1.632490   -2.790351   -0.038906
     20          1           0       -1.348128    1.488480    0.007626
     21          1           0       -3.355434    1.160798    1.084338
     22          1           0       -3.521070    1.187175   -0.696015
     23          1           0       -4.736247    0.341228    0.302578
     24          1           0        2.911402   -1.974681   -0.600040
     25          1           0        3.059318   -0.303326   -1.155338
     26          1           0        2.881760   -0.935323    1.573261
 ---------------------------------------------------------------------

 SCF Done:  E(UB3LYP) =  -540.111942749     A.U. after   33 cycles
 SCF Done:  E(UB3LYP) =  -540.111942749     a.u. after    1 cycles

 The electronic state is 2-A.
 Alpha  occ. eigenvalues --  -19.05440 -19.02898 -10.13629 -10.12462 -10.11775
 Alpha  occ. eigenvalues --  -10.08771 -10.08013 -10.07503 -10.07103 -10.07102
 Alpha  occ. eigenvalues --  -10.07049 -10.05991  -0.97018  -0.92796  -0.76340
 Alpha  occ. eigenvalues --   -0.69224  -0.66887  -0.63135  -0.61315  -0.56804
 Alpha  occ. eigenvalues --   -0.54095  -0.49213  -0.47967  -0.43406  -0.41277
 Alpha  occ. eigenvalues --   -0.39655  -0.36923  -0.36285  -0.35191  -0.34496
 Alpha  occ. eigenvalues --   -0.33963  -0.33501  -0.31500  -0.30432  -0.28464
 Alpha  occ. eigenvalues --   -0.27923  -0.26005  -0.25608  -0.25192  -0.24024
 Alpha  occ. eigenvalues --   -0.22530  -0.21630  -0.18584  -0.15471  -0.12400
 Alpha  occ. eigenvalues --    0.04446
 Alpha virt. eigenvalues --    0.06227   0.07064   0.07508   0.08476   0.08997
 Alpha virt. eigenvalues --    0.09134   0.09322   0.09718   0.10118   0.11477
 Alpha virt. eigenvalues --    0.11906   0.12376   0.13039   0.13887   0.14798

  Beta  occ. eigenvalues --  -19.05430 -19.02877 -10.13622 -10.12449 -10.11719
  Beta  occ. eigenvalues --  -10.08763 -10.07997 -10.07505 -10.07100 -10.07091
  Beta  occ. eigenvalues --  -10.07037 -10.05954  -0.96994  -0.92749  -0.76322
  Beta  occ. eigenvalues --   -0.69195  -0.66858  -0.63100  -0.61254  -0.56749
  Beta  occ. eigenvalues --   -0.54042  -0.49163  -0.47927  -0.43367  -0.41238
  Beta  occ. eigenvalues --   -0.39621  -0.36881  -0.36241  -0.35162  -0.34457
  Beta  occ. eigenvalues --   -0.33933  -0.33474  -0.31466  -0.30401  -0.28423
  Beta  occ. eigenvalues --   -0.27884  -0.25964  -0.25573  -0.25152  -0.23994
  Beta  occ. eigenvalues --   -0.22502  -0.21598  -0.18557  -0.15445  -0.12373
  Beta virt. eigenvalues --    0.06528   0.07284   0.07749   0.07813   0.08797
  Beta virt. eigenvalues --    0.09196   0.09414   0.09719   0.10362   0.10836
  Beta virt. eigenvalues --    0.11817   0.12415   0.12668   0.13426   0.14096

 Mulliken charges and spin densities:
               1          2
     1  C    0.803276  -1.372834
     2  C   -1.503506   0.848667
     3  C    0.649502   0.772559
     4  C   -0.010267   0.305465
     5  C    0.125636  -0.675235
     6  C   -1.039283   0.674195
     7  C    0.251167  -1.096150
     8  C   -0.290425   0.651792
     9  O   -0.215412   0.066500
    10  C    1.173820  -1.505963
    11  C    1.356112  -1.990591
    12  O   -0.232332   0.014685
    13  H   -0.399124   0.556397
    14  H   -0.494420   0.647167
    15  H   -0.247831   0.397454
    16  H    0.006282   0.128348
    17  H    0.227415  -0.028372
    18  H   -0.369747   0.502844
    19  H   -0.136858   0.317863
    20  H    1.162133  -1.100625
    21  H   -0.494163   0.659610
    22  H   -0.468569   0.632209
    23  H   -0.798376   0.981668
    24  H   -0.140119   0.307072
    25  H    0.028082   0.132248
    26  H    0.057009   0.173026
 Sum of Mulliken charges =  -1.00000   1.00000

 Dipole moment (field-independent basis, Debye):
    X=              4.0879    Y=             -3.6641    Z=             -0.8390  Tot=              5.5534
 Quadrupole moment (field-independent basis, Debye-Ang):
   XX=           -150.7667   YY=           -125.2455   ZZ=           -100.6497
   XY=              8.0070   XZ=             -0.8021   YZ=             -0.5429

 Summary of Natural Population Analysis:

                                       Natural Population
                Natural  -----------------------------------------------
    Atom  No    Charge         Core      Valence    Rydberg      Total
 -----------------------------------------------------------------------
      C    1   -0.28767      0.99967     2.28286    0.00513     3.28767
      C    2   -0.20619      0.99960     2.19757    0.00901     3.20619
      C    3    0.01237      0.99949     1.97822    0.00992     2.98763
      C    4   -0.05917      0.99946     2.05031    0.00940     3.05917
      C    5   -0.08716      0.99952     2.07819    0.00944     3.08716
      C    6   -0.12720      0.99952     2.11734    0.01035     3.12720
      C    7    0.17143      0.99938     1.81631    0.01288     2.82857
      C    8   -0.14703      0.99947     2.14002    0.00753     3.14703
      O    9   -0.27314      0.99986     3.26285    0.01043     4.27314
      C   10   -0.10095      0.99960     2.09204    0.00931     3.10095
      C   11   -0.01635      0.99955     2.00465    0.01214     3.01635
      O   12   -0.36961      0.99990     3.36280    0.00691     4.36961
      H   13    0.09864      0.00000     0.39981    0.00155     0.40136
      H   14    0.10108      0.00000     0.39789    0.00103     0.39892
      H   15    0.09954      0.00000     0.39909    0.00137     0.40046
      H   16    0.10022      0.00000     0.39859    0.00119     0.39978
      H   17    0.11346      0.00000     0.38486    0.00168     0.38654
      H   18    0.09897      0.00000     0.39971    0.00132     0.40103
      H   19    0.10475      0.00000     0.39377    0.00148     0.39525
      H   20    0.11047      0.00000     0.38745    0.00209     0.38953
      H   21    0.08706      0.00000     0.41053    0.00241     0.41294
      H   22    0.08605      0.00000     0.41183    0.00212     0.41395
      H   23    0.09514      0.00000     0.40294    0.00192     0.40486
      H   24    0.07912      0.00000     0.41909    0.00178     0.42088
      H   25    0.08839      0.00000     0.40992    0.00169     0.41161
      H   26    0.22777      0.00000     0.26849    0.00374     0.27223
 =======================================================================
   * Total *   -0.00000     11.99503    32.86714    0.13783    45.00000

 Normal termination of Gaussian 16 at Wed Dec  9 17:46:03 2020.
