 Gaussian 16, Revision A.03,

 -----------------------------------------------------------
 # opt freq B3LYP/6-31G(d) empiricaldispersion=gd3bj scf=xqc
 -----------------------------------------------------------

 -------------------------------
 CID_154146758_JID_9729_neutraal
 -------------------------------
 Symbolic Z-matrix:
 Charge =  0 Multiplicity = 1

 SCF Done:  E(RB3LYP) =  -786.867033916     A.U. after   15 cycles
 SCF Done:  E(RB3LYP) =  -786.890442619     A.U. after   14 cycles
 SCF Done:  E(RB3LYP) =  -786.891038969     A.U. after   14 cycles
 SCF Done:  E(RB3LYP) =  -786.891566640     A.U. after   13 cycles
 SCF Done:  E(RB3LYP) =  -786.891991253     A.U. after   12 cycles
 SCF Done:  E(RB3LYP) =  -786.892052592     A.U. after   12 cycles
 SCF Done:  E(RB3LYP) =  -786.892199268     A.U. after   12 cycles
 SCF Done:  E(RB3LYP) =  -786.892268014     A.U. after   12 cycles
 SCF Done:  E(RB3LYP) =  -786.892359079     A.U. after   13 cycles
 SCF Done:  E(RB3LYP) =  -786.892429403     A.U. after   13 cycles
 SCF Done:  E(RB3LYP) =  -786.893834156     A.U. after   11 cycles
 SCF Done:  E(RB3LYP) =  -786.893836860     A.U. after    9 cycles
 SCF Done:  E(RB3LYP) =  -786.893837870     A.U. after    9 cycles
 SCF Done:  E(RB3LYP) =  -786.893838433     A.U. after    8 cycles
 SCF Done:  E(RB3LYP) =  -786.893838527     A.U. after    8 cycles
 Optimization completed.
    -- Stationary point found.
 Normal termination of Gaussian 16 at Sat Dec 12 10:10:33 2020.

 --------------------------------------------------------------------
 #N Geom=AllCheck Guess=TCheck SCRF=Check GenChk RB3LYP/6-31G(d) Freq
 --------------------------------------------------------------------

 Structure from the checkpoint file:  "JID_9729.chk"
 -------------------------------
 CID_154146758_JID_9729_neutraal
 -------------------------------
 Charge =  0 Multiplicity = 1

 SCF Done:  E(RB3LYP) =  -786.893838527     A.U. after    1 cycles

  Exact polarizability: 239.005   7.011 194.341 -16.523   7.608 110.510
 Approx polarizability: 337.195  -1.352 319.794 -38.524  24.876 191.122

                      1                      2                      3
                      A                      A                      A
 Frequencies --     32.8593                33.4475                52.4628
 Red. masses --      5.1518                 8.2677                 4.2288
 Frc consts  --      0.0033                 0.0054                 0.0069
 IR Inten    --      2.4403                 4.2455                 0.4635

                      4                      5                      6
                      A                      A                      A
 Frequencies --     68.8716                83.2108               115.7830
 Red. masses --      3.9256                 4.5175                 5.0234
 Frc consts  --      0.0110                 0.0184                 0.0397
 IR Inten    --      0.2137                 4.3106                 3.2094

                      7                      8                      9
                      A                      A                      A
 Frequencies --    148.8538               151.8542               160.8094
 Red. masses --      1.8770                 1.6339                 1.1922
 Frc consts  --      0.0245                 0.0222                 0.0182
 IR Inten    --      0.8410                 1.2969                 0.7896

                     10                     11                     12
                      A                      A                      A
 Frequencies --    186.9206               215.3546               251.3813
 Red. masses --      4.3773                 2.9885                 4.1863
 Frc consts  --      0.0901                 0.0817                 0.1559
 IR Inten    --      0.2445                 2.5929                 0.0572

                     13                     14                     15
                      A                      A                      A
 Frequencies --    264.7263               297.9333               325.1487
 Red. masses --      4.6142                 2.8787                 3.1341
 Frc consts  --      0.1905                 0.1506                 0.1952
 IR Inten    --      2.0693                 2.2436                 3.5642

                     16                     17                     18
                      A                      A                      A
 Frequencies --    338.6366               377.4313               382.0700
 Red. masses --      5.9410                 2.9498                 6.5253
 Frc consts  --      0.4014                 0.2476                 0.5612
 IR Inten    --      6.9162                 0.0826                 2.0159

                     19                     20                     21
                      A                      A                      A
 Frequencies --    418.5123               419.4928               432.4183
 Red. masses --      6.4115                 3.0884                 4.0095
 Frc consts  --      0.6616                 0.3202                 0.4417
 IR Inten    --      1.3021                 0.1585                 1.4951

                     22                     23                     24
                      A                      A                      A
 Frequencies --    461.6416               492.9379               527.7191
 Red. masses --      3.2971                 3.2769                 4.5794
 Frc consts  --      0.4140                 0.4691                 0.7514
 IR Inten    --      2.7767                 2.2302                 0.1851

                     25                     26                     27
                      A                      A                      A
 Frequencies --    578.0683               617.4709               625.7820
 Red. masses --      5.0754                 5.0255                 4.5173
 Frc consts  --      0.9993                 1.1289                 1.0422
 IR Inten    --      1.2381                11.7770                 9.8999

                     28                     29                     30
                      A                      A                      A
 Frequencies --    634.4291               704.8059               707.7255
 Red. masses --      6.2402                 3.8979                 3.6071
 Frc consts  --      1.4798                 1.1408                 1.0645
 IR Inten    --      2.9422                12.0343                11.0047

                     31                     32                     33
                      A                      A                      A
 Frequencies --    733.4523               747.8815               763.0881
 Red. masses --      2.0755                 4.2814                 3.5389
 Frc consts  --      0.6578                 1.4109                 1.2141
 IR Inten    --     31.8927                 9.2155                13.1437

                     34                     35                     36
                      A                      A                      A
 Frequencies --    813.0855               826.4863               870.0263
 Red. masses --      3.7430                 3.1956                 1.2482
 Frc consts  --      1.4580                 1.2861                 0.5567
 IR Inten    --      5.2939                 1.4569                 2.7900

                     37                     38                     39
                      A                      A                      A
 Frequencies --    897.3887               918.3817               922.4290
 Red. masses --      1.3183                 2.7668                 2.0646
 Frc consts  --      0.6255                 1.3749                 1.0350
 IR Inten    --      7.9568                62.7527                14.7848

                     40                     41                     42
                      A                      A                      A
 Frequencies --    950.9837               956.1215               960.3703
 Red. masses --      2.7963                 1.5530                 1.9105
 Frc consts  --      1.4900                 0.8365                 1.0382
 IR Inten    --      0.5487                 0.5518                 3.7983

                     43                     44                     45
                      A                      A                      A
 Frequencies --    985.1784              1007.2992              1022.3985
 Red. masses --      1.3493                 1.2686                 6.0421
 Frc consts  --      0.7716                 0.7584                 3.7212
 IR Inten    --      2.2505                 0.3574                 1.8354

                     46                     47                     48
                      A                      A                      A
 Frequencies --   1025.6667              1056.6587              1058.7464
 Red. masses --      1.4382                 2.1516                 1.8064
 Frc consts  --      0.8914                 1.4154                 1.1930
 IR Inten    --      2.5011                 7.1751                 1.7096

                     49                     50                     51
                      A                      A                      A
 Frequencies --   1073.4028              1075.5340              1097.2428
 Red. masses --      1.5384                 1.5286                 2.9124
 Frc consts  --      1.0443                 1.0418                 2.0659
 IR Inten    --      7.7729                 1.0531                12.7772

                     52                     53                     54
                      A                      A                      A
 Frequencies --   1117.3657              1189.1559              1196.0202
 Red. masses --      1.6006                 3.0423                 1.1386
 Frc consts  --      1.1774                 2.5347                 0.9596
 IR Inten    --      2.3213                22.8378                 0.3402

                     55                     56                     57
                      A                      A                      A
 Frequencies --   1213.3336              1227.1270              1233.9765
 Red. masses --      1.1741                 1.6386                 1.3421
 Frc consts  --      1.0184                 1.4538                 1.2041
 IR Inten    --     21.0715                 1.4758                 7.9236

                     58                     59                     60
                      A                      A                      A
 Frequencies --   1281.3412              1304.3949              1327.9075
 Red. masses --      3.3305                 3.8536                 1.3652
 Frc consts  --      3.2217                 3.8631                 1.4183
 IR Inten    --     29.0352               237.0449                 4.8829

                     61                     62                     63
                      A                      A                      A
 Frequencies --   1344.8837              1352.7931              1361.1362
 Red. masses --      1.8101                 1.8514                 4.2001
 Frc consts  --      1.9289                 1.9963                 4.5847
 IR Inten    --      7.1223                15.7061                41.4572

                     64                     65                     66
                      A                      A                      A
 Frequencies --   1370.2658              1432.9987              1445.9454
 Red. masses --      3.0754                 3.6243                 1.2220
 Frc consts  --      3.4023                 4.3850                 1.5053
 IR Inten    --      2.6205                 5.2950                 1.3911

                     67                     68                     69
                      A                      A                      A
 Frequencies --   1447.3801              1490.0476              1495.6130
 Red. masses --      1.2839                 1.0858                 2.2541
 Frc consts  --      1.5847                 1.4204                 2.9707
 IR Inten    --      1.2889                11.3555                16.1122

                     70                     71                     72
                      A                      A                      A
 Frequencies --   1508.4658              1517.4397              1518.5177
 Red. masses --      1.0759                 1.0800                 1.0603
 Frc consts  --      1.4425                 1.4653                 1.4405
 IR Inten    --     13.2108                13.5831                 7.3482

                     73                     74                     75
                      A                      A                      A
 Frequencies --   1525.5945              1539.3588              1550.7338
 Red. masses --      1.1441                 2.1861                 2.7318
 Frc consts  --      1.5689                 3.0521                 3.8706
 IR Inten    --     19.0066                 0.5603                 8.9405

                     76                     77                     78
                      A                      A                      A
 Frequencies --   1609.9493              1638.9904              1659.9757
 Red. masses --      6.5897                 5.4582                 5.5304
 Frc consts  --     10.0633                 8.6387                 8.9786
 IR Inten    --     19.7167                 6.6217                24.1894

                     79                     80                     81
                      A                      A                      A
 Frequencies --   1671.9631              1742.2926              2368.8441
 Red. masses --      6.0431                12.1592                12.5941
 Frc consts  --      9.9532                21.7469                41.6380
 IR Inten    --     28.8563               176.8936                 8.4107

                     82                     83                     84
                      A                      A                      A
 Frequencies --   3044.7195              3055.4343              3065.7881
 Red. masses --      1.0406                 1.0624                 1.0359
 Frc consts  --      5.6838                 5.8438                 5.7364
 IR Inten    --     22.5383                 8.3519                19.8905

                     85                     86                     87
                      A                      A                      A
 Frequencies --   3099.3050              3101.6656              3132.8112
 Red. masses --      1.0973                 1.0994                 1.1004
 Frc consts  --      6.2104                 6.2317                 6.3632
 IR Inten    --      9.6048                 2.9288                 9.2031

                     88                     89                     90
                      A                      A                      A
 Frequencies --   3137.3075              3138.8153              3180.2807
 Red. masses --      1.1034                 1.1006                 1.0899
 Frc consts  --      6.3989                 6.3889                 6.4945
 IR Inten    --     18.9775                13.4147                24.7045

                     91                     92                     93
                      A                      A                      A
 Frequencies --   3188.0398              3198.5112              3199.4568
 Red. masses --      1.0856                 1.0895                 1.0897
 Frc consts  --      6.5009                 6.5674                 6.5724
 IR Inten    --      0.3626                 6.6396                11.4968

                     94                     95                     96
                      A                      A                      A
 Frequencies --   3209.2114              3220.4558              3225.4754
 Red. masses --      1.0934                 1.0939                 1.0937
 Frc consts  --      6.6349                 6.6842                 6.7040
 IR Inten    --     27.1328                 9.0536                 7.5169

 - Thermochemistry -
 -------------------
 Temperature   298.150 Kelvin.  Pressure   1.00000 Atm.
 Atom     1 has atomic number  6 and mass  12.00000

 Molecular mass:   249.11536 amu.
 Principal axes and moments of inertia in atomic units:
                           1         2         3
     Eigenvalues --  3242.019617104.003329612.65554
           X            0.99967   0.02579   0.00161
           Y           -0.02576   0.99952  -0.01729
           Z           -0.00205   0.01724   0.99985
 This molecule is an asymmetric top.
 Rotational symmetry number  1.
 Warning -- assumption of classical behavior for rotation
           may cause significant error
 Rotational temperatures (Kelvin)      0.02672     0.01219     0.00901
 Rotational constants (GHZ):           0.55667     0.25405     0.18775
 Zero-point vibrational energy     722255.4 (Joules/Mol)
                                  172.62318 (Kcal/Mol)
 Warning -- explicit consideration of  26 degrees of freedom as
           vibrations may cause significant error
 Vibrational temperatures:     47.28    48.12    75.48    99.09   119.72
          (Kelvin)            166.59   214.17   218.48   231.37   268.94
                              309.85   361.68   380.88   428.66   467.82
                              487.22   543.04   549.71   602.15   603.56
                              622.15   664.20   709.23   759.27   831.71
                              888.40   900.36   912.80  1014.06  1018.26
                             1055.27  1076.03  1097.91  1169.85  1189.13
                             1251.77  1291.14  1321.35  1327.17  1368.25
                             1375.65  1381.76  1417.45  1449.28  1471.00
                             1475.71  1520.30  1523.30  1544.39  1547.45
                             1578.69  1607.64  1710.93  1720.81  1745.72
                             1765.56  1775.42  1843.56  1876.73  1910.56
                             1934.99  1946.37  1958.37  1971.51  2061.77
                             2080.39  2082.46  2143.85  2151.85  2170.35
                             2183.26  2184.81  2194.99  2214.79  2231.16
                             2316.36  2358.14  2388.33  2405.58  2506.77
                             3408.24  4380.67  4396.09  4410.99  4459.21
                             4462.61  4507.42  4513.89  4516.06  4575.71
                             4586.88  4601.94  4603.30  4617.34  4633.52
                             4640.74

 Zero-point correction=                           0.275093 (Hartree/Particle)
 Thermal correction to Energy=                    0.292268
 Thermal correction to Enthalpy=                  0.293212
 Thermal correction to Gibbs Free Energy=         0.228995
 Sum of electronic and zero-point Energies=           -786.618746
 Sum of electronic and thermal Energies=              -786.601571
 Sum of electronic and thermal Enthalpies=            -786.600627
 Sum of electronic and thermal Free Energies=         -786.664844

                     E (Thermal)             CV                S
                      KCal/Mol        Cal/Mol-Kelvin    Cal/Mol-Kelvin
 Total                  183.401             65.217            135.157
 Electronic               0.000              0.000              0.000
 Translational            0.889              2.981             42.439
 Rotational               0.889              2.981             33.759
 Vibrational            181.623             59.255             58.959
 Vibration     1          0.594              1.983              5.649
 Vibration     2          0.594              1.983              5.614
 Vibration     3          0.596              1.977              4.722
 Vibration     4          0.598              1.969              4.185
 Vibration     5          0.600              1.961              3.814
 Vibration     6          0.608              1.936              3.170
 Vibration     7          0.618              1.904              2.687
 Vibration     8          0.619              1.901              2.649
 Vibration     9          0.622              1.890              2.540
 Vibration    10          0.632              1.858              2.258
 Vibration    11          0.645              1.818              1.998
 Vibration    12          0.663              1.760              1.721
 Vibration    13          0.671              1.738              1.630
 Vibration    14          0.691              1.678              1.428
 Vibration    15          0.709              1.625              1.284
 Vibration    16          0.719              1.598              1.219
 Vibration    17          0.748              1.518              1.049
 Vibration    18          0.752              1.508              1.031
 Vibration    19          0.781              1.430              0.897
 Vibration    20          0.782              1.428              0.894
 Vibration    21          0.793              1.400              0.851
 Vibration    22          0.819              1.335              0.761
 Vibration    23          0.849              1.266              0.676
 Vibration    24          0.883              1.189              0.592
 Vibration    25          0.935              1.079              0.489
 Vibration    26          0.977              0.995              0.421

                           ! Non-Optimized Parameters !
 Normal termination of Gaussian 16 at Sat Dec 12 10:26:29 2020.

 ----------------------------------------------------------------------
 # B3LYP/6-311++G(d,p) empiricaldispersion=gd3bj scf=xqc pop=npa geom=c
 heck
 ----------------------------------------------------------------------

 ---------------------------------------
 CID_154146758_JID_9729_Energie_neutraal
 ---------------------------------------
 Structure from the checkpoint file:  "JID_9729.chk"
 Charge =  0 Multiplicity = 1

 SCF Done:  E(RB3LYP) =  -787.097050472     A.U. after   16 cycles
 Normal termination of Gaussian 16 at Sat Dec 12 10:33:53 2020.

 ----------------------------------------------------------------------
 # B3LYP/6-311++G(d,p) empiricaldispersion=gd3bj scf=xqc pop=npa geom=c
 heck
 ----------------------------------------------------------------------

 -------------------------------------
 CID_154146758_JID_9729_Energie_kation
 -------------------------------------
 Structure from the checkpoint file:  "JID_9729.chk"
 Charge =  1 Multiplicity = 2

 SCF Done:  E(UB3LYP) =  -786.782844976     A.U. after   33 cycles
 SCF Done:  E(UB3LYP) =  -786.782844976     a.u. after    1 cycles
 Normal termination of Gaussian 16 at Sat Dec 12 10:55:38 2020.
 Gaussian 16:  ES64L-G16RevA.03 25-Dec-2016

 ----------------------------------------------------------------------
 # B3LYP/6-311++G(d,p) empiricaldispersion=gd3bj scf=xqc pop=npa geom=c
 heck
 ----------------------------------------------------------------------

 ------------------------------------
 CID_154146758_JID_9729_Energie_anion
 ------------------------------------
 Structure from the checkpoint file:  "JID_9729.chk"
 Charge = -1 Multiplicity = 2

                         Standard orientation:
 ---------------------------------------------------------------------
 Center     Atomic      Atomic             Coordinates (Angstroms)
 Number     Number       Type             X           Y           Z
 ---------------------------------------------------------------------
      1          6           0       -4.329972   -0.339375    0.053259
      2          6           0       -2.842896   -0.565861   -0.044908
      3          6           0       -2.277404   -1.756919    0.418790
      4          6           0       -0.908205   -2.030761    0.358881
      5          6           0       -0.060030   -1.033462   -0.167452
      6          6           0       -0.617445    0.164021   -0.634781
      7          6           0       -1.987522    0.405208   -0.594511
      8          6           0       -2.529081    1.721377   -1.128790
      9          6           0       -2.994131    2.611939   -0.057179
     10          7           0       -3.362636    3.291563    0.808494
     11          6           0        1.413137   -1.261821   -0.307024
     12          8           0        1.850457   -2.364110   -0.619412
     13          6           0        2.355030   -0.122182   -0.068164
     14          6           0        3.629518   -0.190197   -0.650866
     15          6           0        4.558091    0.821416   -0.431674
     16          6           0        4.231839    1.903000    0.392167
     17          6           0        2.975151    1.967283    0.995191
     18          6           0        2.037178    0.962061    0.763054
     19          6           0       -0.396233   -3.357733    0.860978
     20          1           0       -4.774560   -0.145789   -0.931535
     21          1           0       -4.831483   -1.213115    0.477490
     22          1           0       -4.562897    0.525971    0.684679
     23          1           0       -2.936803   -2.509606    0.844288
     24          1           0        0.039054    0.919713   -1.055285
     25          1           0       -1.752211    2.244207   -1.696977
     26          1           0       -3.366707    1.555488   -1.818026
     27          1           0        3.867126   -1.047926   -1.271133
     28          1           0        5.538243    0.768457   -0.896853
     29          1           0        4.959035    2.690885    0.567476
     30          1           0        2.724885    2.798099    1.648413
     31          1           0        1.065657    1.008812    1.243357
     32          1           0       -1.172380   -3.872311    1.435459
     33          1           0       -0.092097   -3.997942    0.027913
     34          1           0        0.487773   -3.240955    1.494746
 ---------------------------------------------------------------------

 SCF Done:  E(UB3LYP) =  -787.122900563     A.U. after   25 cycles

 The electronic state is 2-A.
 Alpha  occ. eigenvalues --  -18.92309 -14.22017 -10.12571 -10.12176 -10.07224
 Alpha  occ. eigenvalues --  -10.07120 -10.07072 -10.06153 -10.05682 -10.05125
 Alpha  occ. eigenvalues --  -10.05109 -10.04882 -10.04791 -10.04331 -10.04206
 Alpha  occ. eigenvalues --  -10.04154 -10.04143 -10.03603 -10.03519  -0.86675
 Alpha  occ. eigenvalues --   -0.81848  -0.75350  -0.72554  -0.69781  -0.66496
 Alpha  occ. eigenvalues --   -0.63722  -0.62128  -0.61832  -0.58343  -0.55978
 Alpha  occ. eigenvalues --   -0.50159  -0.48873  -0.47769  -0.45773  -0.42911
 Alpha  occ. eigenvalues --   -0.41151  -0.39206  -0.38534  -0.35925  -0.34059
 Alpha  occ. eigenvalues --   -0.32988  -0.32547  -0.32318  -0.31905  -0.30419
 Alpha  occ. eigenvalues --   -0.30191  -0.29755  -0.29550  -0.28639  -0.27861
 Alpha  occ. eigenvalues --   -0.27521  -0.25637  -0.25044  -0.24773  -0.23895
 Alpha  occ. eigenvalues --   -0.23403  -0.23295  -0.22508  -0.22120  -0.21318
 Alpha  occ. eigenvalues --   -0.20914  -0.13632  -0.13079  -0.12659  -0.12347
 Alpha  occ. eigenvalues --   -0.08990   0.02907
 Alpha virt. eigenvalues --    0.06862   0.08162   0.08400   0.09081   0.09398
 Alpha virt. eigenvalues --    0.09695   0.09990   0.10380   0.10916   0.11337
 Alpha virt. eigenvalues --    0.11601   0.12038   0.12299   0.12629   0.13202

  Beta  occ. eigenvalues --  -18.91662 -14.22017 -10.12569 -10.12176 -10.07264
  Beta  occ. eigenvalues --  -10.07138 -10.06743 -10.05923 -10.05540 -10.05179
  Beta  occ. eigenvalues --  -10.05020 -10.04944 -10.04818 -10.04217 -10.04128
  Beta  occ. eigenvalues --  -10.04124 -10.04047 -10.03573 -10.03380  -0.85527
  Beta  occ. eigenvalues --   -0.81847  -0.75174  -0.72339  -0.69678  -0.66228
  Beta  occ. eigenvalues --   -0.63512  -0.61859  -0.61620  -0.58218  -0.55876
  Beta  occ. eigenvalues --   -0.49537  -0.48692  -0.47675  -0.45539  -0.42706
  Beta  occ. eigenvalues --   -0.41018  -0.39090  -0.38457  -0.35626  -0.33939
  Beta  occ. eigenvalues --   -0.32855  -0.32388  -0.32103  -0.31713  -0.30335
  Beta  occ. eigenvalues --   -0.30014  -0.29623  -0.29437  -0.28471  -0.27857
  Beta  occ. eigenvalues --   -0.27256  -0.25261  -0.24733  -0.24155  -0.23846
  Beta  occ. eigenvalues --   -0.23130  -0.22898  -0.22387  -0.21709  -0.21113
  Beta  occ. eigenvalues --   -0.19159  -0.13176  -0.12592  -0.11780  -0.11020
  Beta  occ. eigenvalues --   -0.08284
  Beta virt. eigenvalues --    0.06844   0.08139   0.08380   0.08676   0.09164
  Beta virt. eigenvalues --    0.09610   0.09959   0.10367   0.10695   0.10991
  Beta virt. eigenvalues --    0.11427   0.11677   0.12248   0.12356   0.12688

 Mulliken charges and spin densities:
               1          2
     1  C   -0.539542  -0.016534
     2  C    0.466356   0.154841
     3  C   -0.807221  -0.036580
     4  C    0.344386   0.118959
     5  C    1.072808   0.020731
     6  C   -1.103937   0.063742
     7  C    0.810453  -0.048594
     8  C    0.101726   0.009630
     9  C   -0.330765  -0.002206
    10  N   -0.347803  -0.000850
    11  C   -1.872857   0.149662
    12  O   -0.318008   0.234505
    13  C    1.359592   0.042290
    14  C    0.386462   0.156645
    15  C   -0.363417  -0.039996
    16  C   -0.270033   0.163129
    17  C   -0.465462  -0.031528
    18  C   -0.739401   0.041070
    19  C   -0.557628   0.009345
    20  H    0.120992   0.010044
    21  H    0.145761   0.000349
    22  H    0.156893   0.011428
    23  H    0.066488   0.002843
    24  H    0.157704  -0.002612
    25  H    0.191596   0.002621
    26  H    0.160976  -0.001093
    27  H    0.187237  -0.008861
    28  H    0.121142   0.003513
    29  H    0.107485  -0.012777
    30  H    0.133104   0.001534
    31  H    0.166721  -0.004363
    32  H    0.096488   0.000306
    33  H    0.188246   0.003901
    34  H    0.173458   0.004907
 Sum of Mulliken charges =  -1.00000   1.00000

 Dipole moment (field-independent basis, Debye):
    X=             -3.8227    Y=              0.9850    Z=             -1.5293  Tot=              4.2334
 Quadrupole moment (field-independent basis, Debye-Ang):
   XX=           -158.3468   YY=           -148.5238   ZZ=           -121.2544
   XY=             15.9916   XZ=              7.9998   YZ=            -11.2163

 Summary of Natural Population Analysis:

                                       Natural Population
                Natural  -----------------------------------------------
    Atom  No    Charge         Core      Valence    Rydberg      Total
 -----------------------------------------------------------------------
      C    1   -0.29375      0.99961     2.28958    0.00456     3.29375
      C    2    0.02316      0.99947     1.97009    0.00728     2.97684
      C    3   -0.11637      0.99949     2.10876    0.00812     3.11637
      C    4    0.03446      0.99949     1.95838    0.00767     2.96554
      C    5   -0.04725      0.99945     2.03642    0.01138     3.04725
      C    6   -0.06279      0.99943     2.05544    0.00791     3.06279
      C    7   -0.04499      0.99945     2.03595    0.00960     3.04499
      C    8   -0.24537      0.99949     2.23840    0.00748     3.24537
      C    9    0.15889      0.99967     1.82189    0.01955     2.84111
      N   10   -0.19002      0.99978     2.68132    0.00891     3.69002
      C   11    0.29595      0.99958     1.68409    0.02038     2.70405
      O   12   -0.23219      0.99988     3.22623    0.00608     4.23219
      C   13   -0.05223      0.99948     2.04275    0.01000     3.05223
      C   14   -0.05681      0.99953     2.04788    0.00940     3.05681
      C   15   -0.12645      0.99957     2.11754    0.00934     3.12645
      C   16   -0.07030      0.99958     2.06111    0.00961     3.07030
      C   17   -0.12138      0.99957     2.11234    0.00947     3.12138
      C   18   -0.07738      0.99953     2.07007    0.00777     3.07738
      C   19   -0.29468      0.99964     2.29009    0.00495     3.29468
      H   20    0.09641      0.00000     0.40240    0.00119     0.40359
      H   21    0.09899      0.00000     0.39995    0.00107     0.40101
      H   22    0.10650      0.00000     0.39227    0.00123     0.39350
      H   23    0.08926      0.00000     0.40918    0.00155     0.41074
      H   24    0.10048      0.00000     0.39812    0.00139     0.39952
      H   25    0.12168      0.00000     0.37711    0.00121     0.37832
      H   26    0.11655      0.00000     0.38218    0.00128     0.38345
      H   27    0.10539      0.00000     0.39333    0.00128     0.39461
      H   28    0.09148      0.00000     0.40748    0.00104     0.40852
      H   29    0.08835      0.00000     0.41063    0.00102     0.41165
      H   30    0.09261      0.00000     0.40632    0.00107     0.40739
      H   31    0.10108      0.00000     0.39759    0.00133     0.39892
      H   32    0.08718      0.00000     0.41181    0.00101     0.41282
      H   33    0.11373      0.00000     0.38523    0.00104     0.38627
      H   34    0.10987      0.00000     0.38915    0.00098     0.39013
 =======================================================================
   * Total *    0.00006     18.99170    46.81108    0.19717    65.99994

 Normal termination of Gaussian 16 at Sat Dec 12 11:12:17 2020.
