 Gaussian 16, Revision A.03,

 -----------------------------------------------------------
 # opt freq B3LYP/6-31G(d) empiricaldispersion=gd3bj scf=xqc
 -----------------------------------------------------------

 -------------------------------
 CID_121872006_JID_6048_neutraal
 -------------------------------
 Symbolic Z-matrix:
 Charge =  0 Multiplicity = 1

 SCF Done:  E(RB3LYP) =  -785.036967738     A.U. after   15 cycles
 SCF Done:  E(RB3LYP) =  -785.044518203     A.U. after   12 cycles
 SCF Done:  E(RB3LYP) =  -785.045719258     A.U. after   12 cycles
 SCF Done:  E(RB3LYP) =  -785.046767089     A.U. after   12 cycles
 SCF Done:  E(RB3LYP) =  -785.047227124     A.U. after   12 cycles
 SCF Done:  E(RB3LYP) =  -785.048119762     A.U. after   12 cycles
 SCF Done:  E(RB3LYP) =  -785.048990092     A.U. after   12 cycles
 SCF Done:  E(RB3LYP) =  -785.049930540     A.U. after   13 cycles
 SCF Done:  E(RB3LYP) =  -785.050747114     A.U. after   12 cycles
 SCF Done:  E(RB3LYP) =  -785.051212341     A.U. after   12 cycles
 SCF Done:  E(RB3LYP) =  -785.052074626     A.U. after    8 cycles
 SCF Done:  E(RB3LYP) =  -785.052074783     A.U. after    8 cycles
 SCF Done:  E(RB3LYP) =  -785.052074862     A.U. after    7 cycles
 SCF Done:  E(RB3LYP) =  -785.052074905     A.U. after    7 cycles
 SCF Done:  E(RB3LYP) =  -785.052074917     A.U. after    6 cycles
 Optimization completed.
    -- Stationary point found.
 Normal termination of Gaussian 16 at Thu Dec 10 21:22:18 2020.

 --------------------------------------------------------------------
 #N Geom=AllCheck Guess=TCheck SCRF=Check GenChk RB3LYP/6-31G(d) Freq
 --------------------------------------------------------------------

 Structure from the checkpoint file:  "JID_6048.chk"
 -------------------------------
 CID_121872006_JID_6048_neutraal
 -------------------------------
 Charge =  0 Multiplicity = 1

 SCF Done:  E(RB3LYP) =  -785.052074917     A.U. after    1 cycles

  Exact polarizability: 142.206  -1.408 128.434  -3.394   1.514 113.053
 Approx polarizability: 190.904  -3.901 181.324  -2.555   8.675 172.414

                      1                      2                      3
                      A                      A                      A
 Frequencies --     21.9000                37.2654                46.5199
 Red. masses --      4.4224                 3.4597                 5.8791
 Frc consts  --      0.0012                 0.0028                 0.0075
 IR Inten    --      0.3312                 0.0546                 1.5018

                      4                      5                      6
                      A                      A                      A
 Frequencies --     53.1324                60.8709                92.4467
 Red. masses --      5.6276                 6.5038                 3.3378
 Frc consts  --      0.0094                 0.0142                 0.0168
 IR Inten    --      1.3816                 0.9160                 0.7771

                      7                      8                      9
                      A                      A                      A
 Frequencies --    104.2829               133.1597               153.1738
 Red. masses --      3.5190                 4.2696                 6.0575
 Frc consts  --      0.0225                 0.0446                 0.0837
 IR Inten    --      0.2186                 4.0861                 1.0856

                     10                     11                     12
                      A                      A                      A
 Frequencies --    176.6155               232.3273               253.6142
 Red. masses --      4.1898                 1.5536                 2.4575
 Frc consts  --      0.0770                 0.0494                 0.0931
 IR Inten    --      0.4416                 0.6876                 0.6915

                     13                     14                     15
                      A                      A                      A
 Frequencies --    274.4298               282.1701               323.9729
 Red. masses --      3.5494                 2.3027                 2.0096
 Frc consts  --      0.1575                 0.1080                 0.1243
 IR Inten    --      0.2354                 0.0647                 1.8491

                     16                     17                     18
                      A                      A                      A
 Frequencies --    347.3367               371.5923               393.7246
 Red. masses --      2.7107                 3.5251                 3.3647
 Frc consts  --      0.1927                 0.2868                 0.3073
 IR Inten    --      4.3393                 8.2088                 4.3761

                     19                     20                     21
                      A                      A                      A
 Frequencies --    436.5727               468.9865               479.4175
 Red. masses --      3.0664                 4.5238                 4.2734
 Frc consts  --      0.3443                 0.5862                 0.5787
 IR Inten    --      2.8739                23.4479                 5.8873

                     22                     23                     24
                      A                      A                      A
 Frequencies --    523.8520               566.6175               594.8910
 Red. masses --      2.8880                 2.0641                 1.8234
 Frc consts  --      0.4669                 0.3905                 0.3802
 IR Inten    --     14.5831                48.9201                27.6162

                     25                     26                     27
                      A                      A                      A
 Frequencies --    631.4826               634.6764               726.6731
 Red. masses --      1.3366                 3.7915                 3.4803
 Frc consts  --      0.3140                 0.8998                 1.0828
 IR Inten    --     56.4197                25.1759                17.9782

                     28                     29                     30
                      A                      A                      A
 Frequencies --    748.5580               775.3374               784.0087
 Red. masses --      3.3298                 4.4978                 3.5745
 Frc consts  --      1.0993                 1.5931                 1.2945
 IR Inten    --      5.0523                36.9577                13.5108

                     31                     32                     33
                      A                      A                      A
 Frequencies --    794.7833               811.0352               836.3762
 Red. masses --      1.4526                 1.0553                 1.7034
 Frc consts  --      0.5406                 0.4090                 0.7020
 IR Inten    --      5.8485                 1.4423                 3.7964

                     34                     35                     36
                      A                      A                      A
 Frequencies --    852.3281               896.7282               906.0307
 Red. masses --      1.6773                 3.1302                 2.4648
 Frc consts  --      0.7179                 1.4830                 1.1921
 IR Inten    --      9.2405                10.9265                 5.1904

                     37                     38                     39
                      A                      A                      A
 Frequencies --    935.8917               970.8905               983.5363
 Red. masses --      4.1229                 1.5030                 1.8239
 Frc consts  --      2.1277                 0.8348                 1.0395
 IR Inten    --     22.6728                13.0657                 9.4512

                     40                     41                     42
                      A                      A                      A
 Frequencies --    992.6410              1015.2587              1053.5416
 Red. masses --      1.7575                 2.1769                 1.7985
 Frc consts  --      1.0203                 1.3220                 1.1761
 IR Inten    --     11.3605                14.0324                 4.4903

                     43                     44                     45
                      A                      A                      A
 Frequencies --   1063.9762              1079.0120              1089.2773
 Red. masses --      1.5481                 1.3920                 2.3940
 Frc consts  --      1.0325                 0.9548                 1.6736
 IR Inten    --     13.1534                11.2424                28.2764

                     46                     47                     48
                      A                      A                      A
 Frequencies --   1102.3285              1109.1724              1130.4777
 Red. masses --      1.5374                 1.5766                 1.5429
 Frc consts  --      1.1007                 1.1428                 1.1618
 IR Inten    --     14.4430                 4.4665                23.5359

                     49                     50                     51
                      A                      A                      A
 Frequencies --   1151.9164              1171.7593              1176.4126
 Red. masses --      1.6610                 3.4426                 2.9106
 Frc consts  --      1.2985                 2.7849                 2.3733
 IR Inten    --     54.5228                80.7752               177.3858

                     52                     53                     54
                      A                      A                      A
 Frequencies --   1183.0230              1217.3715              1222.8961
 Red. masses --      1.6230                 1.3153                 1.8211
 Frc consts  --      1.3383                 1.1485                 1.6046
 IR Inten    --     20.5171                 0.0690                 8.8247

                     55                     56                     57
                      A                      A                      A
 Frequencies --   1246.9267              1259.7318              1311.5332
 Red. masses --      1.4100                 1.8985                 1.7162
 Frc consts  --      1.2916                 1.7751                 1.7393
 IR Inten    --      9.8653                83.9641                20.5008

                     58                     59                     60
                      A                      A                      A
 Frequencies --   1340.9875              1347.7328              1367.9952
 Red. masses --      1.7135                 1.1948                 1.4388
 Frc consts  --      1.8154                 1.2786                 1.5864
 IR Inten    --      4.8248                24.9730                39.9333

                     61                     62                     63
                      A                      A                      A
 Frequencies --   1393.0234              1412.4169              1426.6332
 Red. masses --      1.4611                 1.4049                 3.3519
 Frc consts  --      1.6705                 1.6513                 4.0194
 IR Inten    --     43.4437                12.8185               233.6447

                     64                     65                     66
                      A                      A                      A
 Frequencies --   1433.2831              1440.0574              1448.3749
 Red. masses --      1.3775                 2.7924                 1.3748
 Frc consts  --      1.6673                 3.4119                 1.6993
 IR Inten    --     41.5619                79.5199                17.9428

                     67                     68                     69
                      A                      A                      A
 Frequencies --   1482.1771              1494.5089              1511.9960
 Red. masses --      1.1018                 1.5402                 1.3353
 Frc consts  --      1.4261                 2.0268                 1.7986
 IR Inten    --      6.2873                52.1950                24.6860

                     70                     71                     72
                      A                      A                      A
 Frequencies --   1517.6890              1519.1269              1519.2731
 Red. masses --      1.2798                 1.1068                 1.0563
 Frc consts  --      1.7368                 1.5050                 1.4365
 IR Inten    --      4.7773                 2.8820                 0.9474

                     73                     74                     75
                      A                      A                      A
 Frequencies --   1538.7781              1549.7692              1758.5187
 Red. masses --      1.0905                 1.1008                 7.2218
 Frc consts  --      1.5213                 1.5577                13.1579
 IR Inten    --      2.7515                 5.1127               406.4192

                     76                     77                     78
                      A                      A                      A
 Frequencies --   1825.9299              3004.9944              3008.0629
 Red. masses --      9.5260                 1.0741                 1.0713
 Frc consts  --     18.7123                 5.7146                 5.7114
 IR Inten    --    263.0782                52.3083                57.7040

                     79                     80                     81
                      A                      A                      A
 Frequencies --   3056.6628              3107.3673              3109.6402
 Red. masses --      1.0360                 1.0882                 1.0936
 Frc consts  --      5.7028                 6.1908                 6.2307
 IR Inten    --     12.8326                38.0493                12.2185

                     82                     83                     84
                      A                      A                      A
 Frequencies --   3122.4528              3141.2461              3159.8641
 Red. masses --      1.1017                 1.1022                 1.0515
 Frc consts  --      6.3287                 6.4079                 6.1861
 IR Inten    --     42.5869                39.7029                 8.5447

                     85                     86                     87
                      A                      A                      A
 Frequencies --   3161.8474              3163.5516              3175.1796
 Red. masses --      1.0588                 1.0624                 1.0880
 Frc consts  --      6.2364                 6.2646                 6.4628
 IR Inten    --      7.1484                13.9128                 2.5943

                     88                     89                     90
                      A                      A                      A
 Frequencies --   3202.2972              3246.5299              3258.5297
 Red. masses --      1.0889                 1.1191                 1.1167
 Frc consts  --      6.5788                 6.9496                 6.9863
 IR Inten    --      3.5785                 0.4697                 4.0045

                     91                     92                     93
                      A                      A                      A
 Frequencies --   3269.8009              3590.1404              3691.9967
 Red. masses --      1.1086                 1.0753                 1.0641
 Frc consts  --      6.9832                 8.1662                 8.5456
 IR Inten    --      7.2857                20.8749                57.5965

 - Thermochemistry -
 -------------------
 Temperature   298.150 Kelvin.  Pressure   1.00000 Atm.
 Atom     1 has atomic number  6 and mass  12.00000

 Molecular mass:   227.11576 amu.
 Principal axes and moments of inertia in atomic units:
                           1         2         3
     Eigenvalues --  2669.488024667.639205847.12526
           X            0.99904   0.04372  -0.00388
           Y           -0.04373   0.99904  -0.00316
           Z            0.00374   0.00332   0.99999
 This molecule is an asymmetric top.
 Rotational symmetry number  1.
 Warning -- assumption of classical behavior for rotation
           may cause significant error
 Rotational temperatures (Kelvin)      0.03245     0.01856     0.01481
 Rotational constants (GHZ):           0.67606     0.38665     0.30865
 Zero-point vibrational energy     730277.7 (Joules/Mol)
                                  174.54056 (Kcal/Mol)
 Warning -- explicit consideration of  24 degrees of freedom as
           vibrations may cause significant error
 Vibrational temperatures:     31.51    53.62    66.93    76.45    87.58
          (Kelvin)            133.01   150.04   191.59   220.38   254.11
                              334.27   364.89   394.84   405.98   466.12
                              499.74   534.64   566.48   628.13   674.77
                              689.77   753.71   815.24   855.92   908.56
                              913.16  1045.52  1077.01  1115.54  1128.01
                             1143.52  1166.90  1203.36  1226.31  1290.19
                             1303.58  1346.54  1396.89  1415.09  1428.19
                             1460.73  1515.81  1530.82  1552.46  1567.23
                             1586.00  1595.85  1626.51  1657.35  1685.90
                             1692.60  1702.11  1751.53  1759.47  1794.05
                             1812.47  1887.00  1929.38  1939.09  1968.24
                             2004.25  2032.15  2052.61  2062.17  2071.92
                             2083.89  2132.52  2150.26  2175.43  2183.62
                             2185.68  2185.90  2213.96  2229.77  2530.12
                             2627.11  4323.52  4327.93  4397.86  4470.81
                             4474.08  4492.51  4519.55  4546.34  4549.19
                             4551.65  4568.38  4607.39  4671.03  4688.30
                             4704.51  5165.41  5311.96

 Zero-point correction=                           0.278148 (Hartree/Particle)
 Thermal correction to Energy=                    0.294897
 Thermal correction to Enthalpy=                  0.295841
 Thermal correction to Gibbs Free Energy=         0.231668
 Sum of electronic and zero-point Energies=           -784.773927
 Sum of electronic and thermal Energies=              -784.757178
 Sum of electronic and thermal Enthalpies=            -784.756234
 Sum of electronic and thermal Free Energies=         -784.820407

                     E (Thermal)             CV                S
                      KCal/Mol        Cal/Mol-Kelvin    Cal/Mol-Kelvin
 Total                  185.051             61.637            135.064
 Electronic               0.000              0.000              0.000
 Translational            0.889              2.981             42.163
 Rotational               0.889              2.981             32.655
 Vibrational            183.273             55.675             60.246
 Vibration     1          0.593              1.985              6.454
 Vibration     2          0.594              1.982              5.399
 Vibration     3          0.595              1.979              4.960
 Vibration     4          0.596              1.976              4.697
 Vibration     5          0.597              1.973              4.429
 Vibration     6          0.602              1.955              3.608
 Vibration     7          0.605              1.946              3.373
 Vibration     8          0.613              1.920              2.900
 Vibration     9          0.619              1.899              2.632
 Vibration    10          0.628              1.871              2.364
 Vibration    11          0.653              1.792              1.861
 Vibration    12          0.665              1.757              1.705
 Vibration    13          0.677              1.721              1.568
 Vibration    14          0.681              1.707              1.520
 Vibration    15          0.709              1.627              1.290
 Vibration    16          0.725              1.581              1.178
 Vibration    17          0.743              1.531              1.073
 Vibration    18          0.761              1.484              0.986
 Vibration    19          0.797              1.390              0.837
 Vibration    20          0.826              1.319              0.740
 Vibration    21          0.836              1.296              0.712
 Vibration    22          0.879              1.197              0.601
 Vibration    23          0.923              1.103              0.511
 Vibration    24          0.953              1.043              0.459

 Optimization completed.
    -- Stationary point found.
 Normal termination of Gaussian 16 at Thu Dec 10 21:33:23 2020.

 ----------------------------------------------------------------------
 # B3LYP/6-311++G(d,p) empiricaldispersion=gd3bj scf=xqc pop=npa geom=c
 heck
 ----------------------------------------------------------------------

 ---------------------------------------
 CID_121872006_JID_6048_Energie_neutraal
 ---------------------------------------
 Structure from the checkpoint file:  "JID_6048.chk"
 Charge =  0 Multiplicity = 1

 SCF Done:  E(RB3LYP) =  -785.290242473     A.U. after   15 cycles
 Normal termination of Gaussian 16 at Thu Dec 10 21:38:29 2020.

 ----------------------------------------------------------------------
 # B3LYP/6-311++G(d,p) empiricaldispersion=gd3bj scf=xqc pop=npa geom=c
 heck
 ----------------------------------------------------------------------

 -------------------------------------
 CID_121872006_JID_6048_Energie_kation
 -------------------------------------
 Structure from the checkpoint file:  "JID_6048.chk"
 Charge =  1 Multiplicity = 2

 SCF Done:  E(UB3LYP) =  -784.974036715     A.U. after   30 cycles
 Normal termination of Gaussian 16 at Thu Dec 10 21:53:04 2020.
 Gaussian 16:  ES64L-G16RevA.03 25-Dec-2016

 ----------------------------------------------------------------------
 # B3LYP/6-311++G(d,p) empiricaldispersion=gd3bj scf=xqc pop=npa geom=c
 heck
 ----------------------------------------------------------------------

 ------------------------------------
 CID_121872006_JID_6048_Energie_anion
 ------------------------------------
 Structure from the checkpoint file:  "JID_6048.chk"
 Charge = -1 Multiplicity = 2

                         Standard orientation:
 ---------------------------------------------------------------------
 Center     Atomic      Atomic             Coordinates (Angstroms)
 Number     Number       Type             X           Y           Z
 ---------------------------------------------------------------------
      1          6           0        1.989320    2.771232    0.874433
      2          6           0        2.151432    2.214604   -0.536311
      3          8           0        1.822884    0.832158   -0.656297
      4          6           0        2.750840   -0.036301   -0.084761
      5          6           0        2.542675   -0.567015    1.306898
      6          6           0        2.310634   -1.467684    0.099622
      7          6           0        1.015918   -2.038727   -0.422279
      8          8           0        1.081736   -3.020934   -1.158131
      9          7           0       -0.211047   -1.518817   -0.107050
     10          6           0       -0.626705   -0.438523    0.776005
     11          6           0       -2.059599   -0.050169    0.472127
     12          6           0       -3.169268   -1.007675    0.887112
     13          6           0       -2.995977    0.272443    1.632795
     14          6           0       -2.343024    0.737176   -0.765978
     15          8           0       -3.454614    0.962134   -1.201635
     16          8           0       -1.223612    1.215848   -1.355230
     17          1           0        0.962719    2.629657    1.229094
     18          1           0        2.206402    3.845583    0.879264
     19          1           0        2.670069    2.284829    1.579272
     20          1           0        1.467921    2.719190   -1.224811
     21          1           0        3.178863    2.379562   -0.897103
     22          1           0        3.774265    0.122909   -0.431148
     23          1           0        3.411112   -0.787870    1.921768
     24          1           0        1.686906   -0.203291    1.859607
     25          1           0        3.090850   -2.196990   -0.089219
     26          1           0       -0.954640   -2.067663   -0.521283
     27          1           0       -0.569043   -0.746011    1.830805
     28          1           0        0.025353    0.419535    0.626248
     29          1           0       -4.014272   -1.088697    0.212452
     30          1           0       -2.855257   -1.931689    1.364363
     31          1           0       -2.562968    0.246628    2.628368
     32          1           0       -3.723195    1.058723    1.461494
     33          1           0       -1.526383    1.697502   -2.147446
 ---------------------------------------------------------------------

 SCF Done:  E(UB3LYP) =  -785.280184025     A.U. after   33 cycles
 SCF Done:  E(UB3LYP) =  -785.280184025     a.u. after    1 cycles

 The electronic state is 2-A.
 Alpha  occ. eigenvalues --  -19.08419 -19.03925 -19.02873 -18.98988 -14.24258
 Alpha  occ. eigenvalues --  -10.22421 -10.18397 -10.14456 -10.12570 -10.12336
 Alpha  occ. eigenvalues --  -10.12292 -10.10560 -10.10514 -10.09828 -10.08812
 Alpha  occ. eigenvalues --  -10.06218  -1.02632  -0.95755  -0.94281  -0.93607
 Alpha  occ. eigenvalues --   -0.83563  -0.79436  -0.77128  -0.65676  -0.64517
 Alpha  occ. eigenvalues --   -0.59039  -0.56854  -0.54677  -0.53550  -0.50811
 Alpha  occ. eigenvalues --   -0.48741  -0.47117  -0.44815  -0.42799  -0.41735
 Alpha  occ. eigenvalues --   -0.40959  -0.39629  -0.37791  -0.37201  -0.36415
 Alpha  occ. eigenvalues --   -0.35848  -0.35319  -0.34501  -0.33174  -0.32732
 Alpha  occ. eigenvalues --   -0.30640  -0.30093  -0.29704  -0.28621  -0.28136
 Alpha  occ. eigenvalues --   -0.27937  -0.25687  -0.24412  -0.23976  -0.22709
 Alpha  occ. eigenvalues --   -0.22239  -0.20204  -0.20075  -0.17521  -0.16043
 Alpha  occ. eigenvalues --   -0.15389   0.04044
 Alpha virt. eigenvalues --    0.05991   0.06311   0.07189   0.07473   0.07827
 Alpha virt. eigenvalues --    0.08522   0.08871   0.09652   0.10315   0.10419
 Alpha virt. eigenvalues --    0.11265   0.11556   0.11853   0.12020   0.12909

  Beta  occ. eigenvalues --  -19.08390 -19.03916 -19.02864 -18.98984 -14.24258
  Beta  occ. eigenvalues --  -10.22420 -10.18395 -10.14448 -10.12568 -10.12318
  Beta  occ. eigenvalues --  -10.12268 -10.10552 -10.10488 -10.09825 -10.08788
  Beta  occ. eigenvalues --  -10.06175  -1.02595  -0.95739  -0.94274  -0.93576
  Beta  occ. eigenvalues --   -0.83554  -0.79424  -0.77109  -0.65626  -0.64492
  Beta  occ. eigenvalues --   -0.58996  -0.56833  -0.54605  -0.53502  -0.50765
  Beta  occ. eigenvalues --   -0.48683  -0.47085  -0.44796  -0.42760  -0.41705
  Beta  occ. eigenvalues --   -0.40931  -0.39590  -0.37758  -0.37161  -0.36394
  Beta  occ. eigenvalues --   -0.35822  -0.35296  -0.34474  -0.33130  -0.32712
  Beta  occ. eigenvalues --   -0.30617  -0.30067  -0.29680  -0.28579  -0.28102
  Beta  occ. eigenvalues --   -0.27908  -0.25644  -0.24387  -0.23954  -0.22683
  Beta  occ. eigenvalues --   -0.22225  -0.20173  -0.20053  -0.17497  -0.16031
  Beta  occ. eigenvalues --   -0.15367
  Beta virt. eigenvalues --    0.06485   0.06923   0.07090   0.07429   0.07731
  Beta virt. eigenvalues --    0.08390   0.08774   0.09316   0.09948   0.10534
  Beta virt. eigenvalues --    0.10832   0.11503   0.11821   0.12192   0.12370

 Mulliken charges and spin densities:
               1          2
     1  C    0.900328  -1.350562
     2  C   -0.115232  -0.085120
     3  O   -0.063569   0.001178
     4  C   -0.561241   0.316611
     5  C    0.643543  -0.719146
     6  C    0.718395  -0.844549
     7  C   -0.109200   0.030560
     8  O   -0.336363  -0.001769
     9  N   -0.236493   0.021440
    10  C    0.978509  -1.589056
    11  C   -0.915064   1.198988
    12  C   -1.008328   0.650622
    13  C    0.425170  -0.793783
    14  C   -0.486254   0.599825
    15  O   -0.281958   0.013038
    16  O   -0.158937  -0.015872
    17  H   -0.695518   0.861361
    18  H   -0.610974   0.760240
    19  H   -0.219420   0.378776
    20  H   -0.112798   0.266524
    21  H   -0.201083   0.318781
    22  H   -0.106842   0.278527
    23  H   -0.420260   0.621085
    24  H   -0.456871   0.672564
    25  H    0.209969   0.044253
    26  H    0.311005   0.011660
    27  H   -0.080473   0.297595
    28  H    2.246653  -2.260360
    29  H    0.188063   0.017000
    30  H    0.014985   0.151865
    31  H   -0.536338   0.716596
    32  H    0.091369   0.107305
    33  H   -0.014773   0.323825
 Sum of Mulliken charges =  -1.00000   1.00000

 Dipole moment (field-independent basis, Debye):
    X=             -2.8192    Y=             -3.6029    Z=             -2.5912  Tot=              5.2577
 Quadrupole moment (field-independent basis, Debye-Ang):
   XX=           -152.4447   YY=           -156.4356   ZZ=           -145.0542
   XY=             -0.1752   XZ=             -5.7756   YZ=             -8.7318

 Summary of Natural Population Analysis:

                                       Natural Population
                Natural  -----------------------------------------------
    Atom  No    Charge         Core      Valence    Rydberg      Total
 -----------------------------------------------------------------------
      C    1   -0.30037      0.99966     2.29570    0.00501     3.30037
      C    2   -0.00607      0.99959     1.99410    0.01238     3.00607
      O    3   -0.29587      0.99987     3.28572    0.01028     4.29587
      C    4    0.07155      0.99950     1.91479    0.01417     2.92845
      C    5   -0.20743      0.99961     2.19780    0.01002     3.20743
      C    6   -0.16004      0.99954     2.14909    0.01141     3.16004
      C    7    0.34644      0.99964     1.63172    0.02220     2.65356
      O    8   -0.32825      0.99988     3.32335    0.00502     4.32825
      N    9   -0.31342      0.99966     2.80486    0.00890     3.81342
      C   10   -0.09400      0.99956     2.08205    0.01240     3.09400
      C   11   -0.09560      0.99950     2.08234    0.01376     3.09560
      C   12   -0.18867      0.99960     2.18030    0.00877     3.18867
      C   13   -0.17404      0.99960     2.16468    0.00976     3.17404
      C   14    0.40936      0.99962     1.56516    0.02586     2.59064
      O   15   -0.31758      0.99987     3.31216    0.00555     4.31758
      O   16   -0.33192      0.99988     3.32563    0.00642     4.33192
      H   17    0.10020      0.00000     0.39787    0.00193     0.39980
      H   18    0.10368      0.00000     0.39460    0.00172     0.39632
      H   19    0.10049      0.00000     0.39762    0.00189     0.39951
      H   20    0.09165      0.00000     0.40686    0.00149     0.40835
      H   21    0.07674      0.00000     0.42177    0.00149     0.42326
      H   22    0.08923      0.00000     0.40935    0.00141     0.41077
      H   23    0.10768      0.00000     0.39094    0.00137     0.39232
      H   24    0.11136      0.00000     0.38696    0.00169     0.38864
      H   25    0.11597      0.00000     0.38311    0.00092     0.38403
      H   26    0.19186      0.00000     0.30558    0.00256     0.30814
      H   27    0.09397      0.00000     0.40403    0.00201     0.40603
      H   28    0.11938      0.00000     0.37632    0.00430     0.38062
      H   29    0.11359      0.00000     0.38555    0.00086     0.38641
      H   30    0.10590      0.00000     0.39327    0.00083     0.39410
      H   31    0.11051      0.00000     0.38763    0.00185     0.38949
      H   32    0.11184      0.00000     0.38716    0.00099     0.38816
      H   33    0.24187      0.00000     0.25385    0.00428     0.25813
 =======================================================================
   * Total *   -0.00000     15.99457    44.79192    0.21351    61.00000

 Normal termination of Gaussian 16 at Thu Dec 10 22:11:35 2020.
