 Gaussian 16, Revision A.03,

 -----------------------------------------------------------
 # opt freq B3LYP/6-31G(d) empiricaldispersion=gd3bj scf=xqc
 -----------------------------------------------------------

 ------------------------------
 CID_88503862_JID_4697_neutraal
 ------------------------------
 Symbolic Z-matrix:
 Charge =  0 Multiplicity = 1

 SCF Done:  E(RB3LYP) =  -634.575204229     A.U. after   14 cycles
 SCF Done:  E(RB3LYP) =  -634.577220779     A.U. after   14 cycles
 SCF Done:  E(RB3LYP) =  -634.577493454     A.U. after   14 cycles
 SCF Done:  E(RB3LYP) =  -634.578535947     A.U. after   12 cycles
 SCF Done:  E(RB3LYP) =  -634.579258484     A.U. after   12 cycles
 SCF Done:  E(RB3LYP) =  -634.580356053     A.U. after   15 cycles
 SCF Done:  E(RB3LYP) =  -634.580783624     A.U. after   12 cycles
 SCF Done:  E(RB3LYP) =  -634.581785764     A.U. after   12 cycles
 SCF Done:  E(RB3LYP) =  -634.582267461     A.U. after   14 cycles
 SCF Done:  E(RB3LYP) =  -634.584278688     A.U. after   12 cycles
 SCF Done:  E(RB3LYP) =  -634.592552672     A.U. after   10 cycles
 SCF Done:  E(RB3LYP) =  -634.592553227     A.U. after    9 cycles
 SCF Done:  E(RB3LYP) =  -634.592553275     A.U. after    7 cycles
 SCF Done:  E(RB3LYP) =  -634.592553305     A.U. after    7 cycles
 SCF Done:  E(RB3LYP) =  -634.592553318     A.U. after    7 cycles
 Optimization completed.
    -- Stationary point found.
 Normal termination of Gaussian 16 at Thu Dec 10 10:48:25 2020.

 --------------------------------------------------------------------
 #N Geom=AllCheck Guess=TCheck SCRF=Check GenChk RB3LYP/6-31G(d) Freq
 --------------------------------------------------------------------

 Structure from the checkpoint file:  "JID_4697.chk"
 ------------------------------
 CID_88503862_JID_4697_neutraal
 ------------------------------
 Charge =  0 Multiplicity = 1

 SCF Done:  E(RB3LYP) =  -634.592553318     A.U. after    1 cycles

  Exact polarizability: 196.708   1.677 128.511  -7.982  16.307  79.994
 Approx polarizability: 274.351   4.454 204.390 -10.827  34.802 117.127

                      1                      2                      3
                      A                      A                      A
 Frequencies --      9.5416                20.7813                34.3976
 Red. masses --      3.6623                 3.7225                 3.4635
 Frc consts  --      0.0002                 0.0009                 0.0024
 IR Inten    --      0.2977                 0.7306                 0.9420

                      4                      5                      6
                      A                      A                      A
 Frequencies --     45.6397                63.9957                91.6738
 Red. masses --      3.0323                 3.6187                 4.2752
 Frc consts  --      0.0037                 0.0087                 0.0212
 IR Inten    --      0.5759                 0.5836                 0.0997

                      7                      8                      9
                      A                      A                      A
 Frequencies --    103.7155               112.1775               144.6411
 Red. masses --      4.7239                 2.8970                 2.1213
 Frc consts  --      0.0299                 0.0215                 0.0261
 IR Inten    --      2.2986                 0.4551                 6.1773

                     10                     11                     12
                      A                      A                      A
 Frequencies --    176.9265               219.6358               254.0780
 Red. masses --      4.8812                 1.1354                 4.0471
 Frc consts  --      0.0900                 0.0323                 0.1539
 IR Inten    --      0.1593                 0.9157                 1.6030

                     13                     14                     15
                      A                      A                      A
 Frequencies --    262.5352               326.7495               347.8392
 Red. masses --      1.2715                 2.3358                 5.7203
 Frc consts  --      0.0516                 0.1469                 0.4078
 IR Inten    --      0.2953                 0.0567                 4.9201

                     16                     17                     18
                      A                      A                      A
 Frequencies --    416.6482               420.2398               458.7204
 Red. masses --      3.0067                 4.4270                 2.4091
 Frc consts  --      0.3075                 0.4606                 0.2987
 IR Inten    --      0.0431                 0.5121                 5.8038

                     19                     20                     21
                      A                      A                      A
 Frequencies --    475.4286               500.4889               589.1285
 Red. masses --      3.0390                 5.9118                 3.4984
 Frc consts  --      0.4047                 0.8725                 0.7154
 IR Inten    --     25.7037                 4.3399                 3.3264

                     22                     23                     24
                      A                      A                      A
 Frequencies --    635.3258               706.4312               748.1830
 Red. masses --      6.4024                 1.8198                 5.7880
 Frc consts  --      1.5226                 0.5351                 1.9089
 IR Inten    --      0.1400                18.9181                12.6923

                     25                     26                     27
                      A                      A                      A
 Frequencies --    777.9977               796.7080               799.6360
 Red. masses --      1.6403                 1.2540                 1.3090
 Frc consts  --      0.5850                 0.4690                 0.4931
 IR Inten    --     67.8644               140.9424                 5.0542

                     28                     29                     30
                      A                      A                      A
 Frequencies --    810.2047               846.9682               859.0062
 Red. masses --      1.1229                 1.6986                 1.2485
 Frc consts  --      0.4343                 0.7179                 0.5428
 IR Inten    --      8.1529                 6.7831                 0.8902

                     31                     32                     33
                      A                      A                      A
 Frequencies --    871.8122               908.1688               925.0543
 Red. masses --      5.4588                 1.2306                 2.1195
 Frc consts  --      2.4445                 0.5980                 1.0686
 IR Inten    --     13.1551                 5.8728                 5.3330

                     34                     35                     36
                      A                      A                      A
 Frequencies --    941.8010               972.3409               983.5283
 Red. masses --      1.4593                 1.3414                 6.5638
 Frc consts  --      0.7626                 0.7472                 3.7409
 IR Inten    --     10.7173                 0.0128               212.3227

                     37                     38                     39
                      A                      A                      A
 Frequencies --   1002.3708              1019.9839              1020.2759
 Red. masses --      1.2665                 6.0723                 2.7555
 Frc consts  --      0.7497                 3.7221                 1.6900
 IR Inten    --      0.6718                 0.1120                15.9739

                     40                     41                     42
                      A                      A                      A
 Frequencies --   1063.2410              1091.6628              1120.5193
 Red. masses --      2.2345                 2.9867                 1.6095
 Frc consts  --      1.4883                 2.0971                 1.1906
 IR Inten    --      1.4740                90.4968                 2.1004

                     43                     44                     45
                      A                      A                      A
 Frequencies --   1122.4962              1132.5161              1195.0783
 Red. masses --      1.8749                 2.1034                 1.0943
 Frc consts  --      1.3919                 1.5895                 0.9209
 IR Inten    --      7.2669                55.2383                 0.5433

                     46                     47                     48
                      A                      A                      A
 Frequencies --   1196.9643              1220.0857              1230.3461
 Red. masses --      1.9368                 1.2264                 2.5485
 Frc consts  --      1.6349                 1.0757                 2.2730
 IR Inten    --     54.2630                 7.4014                 6.3676

                     49                     50                     51
                      A                      A                      A
 Frequencies --   1235.9972              1332.0501              1347.8069
 Red. masses --      1.8039                 1.1232                 2.9767
 Frc consts  --      1.6236                 1.1742                 3.1859
 IR Inten    --      5.6086                11.3811                23.3318

                     52                     53                     54
                      A                      A                      A
 Frequencies --   1365.8414              1372.2761              1403.1255
 Red. masses --      1.1231                 1.8252                 1.2059
 Frc consts  --      1.2344                 2.0251                 1.3988
 IR Inten    --      0.4447                 2.4906                13.4322

                     55                     56                     57
                      A                      A                      A
 Frequencies --   1412.2195              1429.1198              1444.2713
 Red. masses --      1.3184                 1.2202                 1.3067
 Frc consts  --      1.5491                 1.4683                 1.6059
 IR Inten    --     27.9936                 0.4322                28.2111

                     58                     59                     60
                      A                      A                      A
 Frequencies --   1446.3697              1493.1379              1513.9706
 Red. masses --      1.2720                 2.1114                 1.0738
 Frc consts  --      1.5678                 2.7734                 1.4501
 IR Inten    --     24.2923                28.0093                 1.2924

                     61                     62                     63
                      A                      A                      A
 Frequencies --   1519.4528              1519.8154              1527.0131
 Red. masses --      1.0499                 1.0506                 1.0530
 Frc consts  --      1.4281                 1.4298                 1.4467
 IR Inten    --      4.6220                 3.3970                 5.2397

                     64                     65                     66
                      A                      A                      A
 Frequencies --   1537.3867              1541.7436              1543.6114
 Red. masses --      1.0668                 1.3302                 1.4430
 Frc consts  --      1.4855                 1.8629                 2.0257
 IR Inten    --      5.6636                 7.2852                 5.4840

                     67                     68                     69
                      A                      A                      A
 Frequencies --   1550.0971              1636.3043              1663.2779
 Red. masses --      1.4624                 4.9698                 5.4232
 Frc consts  --      2.0703                 7.8400                 8.8396
 IR Inten    --     22.1230                 1.0016                 0.1984

                     70                     71                     72
                      A                      A                      A
 Frequencies --   1731.0012              3038.1955              3044.2967
 Red. masses --      3.7150                 1.0648                 1.0648
 Frc consts  --      6.5584                 5.7909                 5.8144
 IR Inten    --      1.0599                47.6899                27.8521

                     73                     74                     75
                      A                      A                      A
 Frequencies --   3057.4093              3059.3548              3099.4029
 Red. masses --      1.0368                 1.0398                 1.1001
 Frc consts  --      5.7105                 5.7342                 6.2264
 IR Inten    --     30.5972                32.4175                10.7489

                     76                     77                     78
                      A                      A                      A
 Frequencies --   3116.2596              3124.3947              3138.5408
 Red. masses --      1.1011                 1.1009                 1.1022
 Frc consts  --      6.3000                 6.3317                 6.3968
 IR Inten    --     14.6969                43.5791                31.7326

                     79                     80                     81
                      A                      A                      A
 Frequencies --   3139.8284              3151.4682              3156.7082
 Red. masses --      1.0982                 1.1031                 1.0875
 Frc consts  --      6.3789                 6.4546                 6.3847
 IR Inten    --     12.4387                33.9730                13.8045

                     82                     83                     84
                      A                      A                      A
 Frequencies --   3177.3902              3185.6536              3196.5412
 Red. masses --      1.0859                 1.0878                 1.0926
 Frc consts  --      6.4592                 6.5042                 6.5775
 IR Inten    --      8.8799                 1.9600                37.0257

                     85                     86                     87
                      A                      A                      A
 Frequencies --   3208.9965              3282.3820              3454.1368
 Red. masses --      1.0974                 1.0914                 1.0693
 Frc consts  --      6.6582                 6.9284                 7.5168
 IR Inten    --     31.9689                 2.3028              1656.8041

 - Thermochemistry -
 -------------------
 Temperature   298.150 Kelvin.  Pressure   1.00000 Atm.
 Atom     1 has atomic number  6 and mass  12.00000

 Molecular mass:   195.12593 amu.
 Principal axes and moments of inertia in atomic units:
                           1         2         3
     Eigenvalues --  1028.587648171.348018613.97764
           X            1.00000   0.00232   0.00150
           Y           -0.00230   0.99994  -0.01029
           Z           -0.00153   0.01028   0.99995
 This molecule is an asymmetric top.
 Rotational symmetry number  1.
 Warning -- assumption of classical behavior for rotation
           may cause significant error
 Rotational temperatures (Kelvin)      0.08421     0.01060     0.01006
 Rotational constants (GHZ):           1.75458     0.22086     0.20951
 Zero-point vibrational energy     701433.6 (Joules/Mol)
                                  167.64665 (Kcal/Mol)
 Warning -- explicit consideration of  21 degrees of freedom as
           vibrations may cause significant error
 Vibrational temperatures:     13.73    29.90    49.49    65.67    92.08
          (Kelvin)            131.90   149.22   161.40   208.11   254.56
                              316.01   365.56   377.73   470.12   500.46
                              599.46   604.63   660.00   684.04   720.09
                              847.62   914.09  1016.40  1076.47  1119.37
                             1146.29  1150.50  1165.70  1218.60  1235.92
                             1254.34  1306.65  1330.95  1355.04  1398.98
                             1415.08  1442.19  1467.53  1467.95  1529.77
                             1570.66  1612.18  1615.02  1629.44  1719.45
                             1722.16  1755.43  1770.19  1778.32  1916.52
                             1939.19  1965.14  1974.40  2018.78  2031.87
                             2056.18  2077.98  2081.00  2148.29  2178.27
                             2186.15  2186.68  2197.03  2211.96  2218.23
                             2220.91  2230.24  2354.28  2393.09  2490.52
                             4371.29  4380.06  4398.93  4401.73  4459.35
                             4483.60  4495.31  4515.66  4517.51  4534.26
                             4541.80  4571.56  4583.45  4599.11  4617.03
                             4722.62  4969.73

 Zero-point correction=                           0.267162 (Hartree/Particle)
 Thermal correction to Energy=                    0.282981
 Thermal correction to Enthalpy=                  0.283925
 Thermal correction to Gibbs Free Energy=         0.219625
 Sum of electronic and zero-point Energies=           -634.325391
 Sum of electronic and thermal Energies=              -634.309572
 Sum of electronic and thermal Enthalpies=            -634.308628
 Sum of electronic and thermal Free Energies=         -634.372928

                     E (Thermal)             CV                S
                      KCal/Mol        Cal/Mol-Kelvin    Cal/Mol-Kelvin
 Total                  177.573             55.984            135.330
 Electronic               0.000              0.000              0.000
 Translational            0.889              2.981             41.711
 Rotational               0.889              2.981             32.648
 Vibrational            175.796             50.023             60.971
 Vibration     1          0.593              1.987              8.104
 Vibration     2          0.593              1.986              6.558
 Vibration     3          0.594              1.983              5.558
 Vibration     4          0.595              1.979              4.998
 Vibration     5          0.597              1.971              4.330
 Vibration     6          0.602              1.955              3.624
 Vibration     7          0.605              1.946              3.383
 Vibration     8          0.607              1.939              3.231
 Vibration     9          0.616              1.908              2.742
 Vibration    10          0.628              1.871              2.361
 Vibration    11          0.647              1.811              1.962
 Vibration    12          0.665              1.756              1.702
 Vibration    13          0.670              1.741              1.645
 Vibration    14          0.710              1.622              1.276
 Vibration    15          0.725              1.580              1.176
 Vibration    16          0.780              1.434              0.903
 Vibration    17          0.783              1.426              0.891
 Vibration    18          0.817              1.342              0.770
 Vibration    19          0.832              1.305              0.722
 Vibration    20          0.856              1.249              0.657
 Vibration    21          0.946              1.055              0.469

 Optimization completed on the basis of negligible forces.
    -- Stationary point found.
 Normal termination of Gaussian 16 at Thu Dec 10 10:55:27 2020.

 ----------------------------------------------------------------------
 # B3LYP/6-311++G(d,p) empiricaldispersion=gd3bj scf=xqc pop=npa geom=c
 heck
 ----------------------------------------------------------------------

 --------------------------------------
 CID_88503862_JID_4697_Energie_neutraal
 --------------------------------------
 Structure from the checkpoint file:  "JID_4697.chk"
 Charge =  0 Multiplicity = 1

 SCF Done:  E(RB3LYP) =  -634.779031247     A.U. after   14 cycles
 Normal termination of Gaussian 16 at Thu Dec 10 10:59:00 2020.

 ----------------------------------------------------------------------
 # B3LYP/6-311++G(d,p) empiricaldispersion=gd3bj scf=xqc pop=npa geom=c
 heck
 ----------------------------------------------------------------------

 ------------------------------------
 CID_88503862_JID_4697_Energie_kation
 ------------------------------------
 Structure from the checkpoint file:  "JID_4697.chk"
 Charge =  1 Multiplicity = 2

 SCF Done:  E(UB3LYP) =  -634.480791528     A.U. after   23 cycles
 Normal termination of Gaussian 16 at Thu Dec 10 11:07:18 2020.
 Gaussian 16:  ES64L-G16RevA.03 25-Dec-2016

 ----------------------------------------------------------------------
 # B3LYP/6-311++G(d,p) empiricaldispersion=gd3bj scf=xqc pop=npa geom=c
 heck
 ----------------------------------------------------------------------

 -----------------------------------
 CID_88503862_JID_4697_Energie_anion
 -----------------------------------
 Structure from the checkpoint file:  "JID_4697.chk"
 Charge = -1 Multiplicity = 2

                         Standard orientation:
 ---------------------------------------------------------------------
 Center     Atomic      Atomic             Coordinates (Angstroms)
 Number     Number       Type             X           Y           Z
 ---------------------------------------------------------------------
      1          6           0       -2.731463    1.348966   -1.609055
      2          6           0       -3.234623    1.175597   -0.181004
      3          8           0       -3.056497   -0.164284    0.304101
      4          6           0       -4.024470   -1.117567   -0.140177
      5          6           0       -5.283614   -1.089765    0.718054
      6          6           0        4.839798   -0.895194   -0.399881
      7          6           0        3.626601   -1.568452   -0.551895
      8          6           0        2.422161   -0.954857   -0.214069
      9          6           0        2.414906    0.361271    0.288600
     10          6           0        3.647051    1.026816    0.436300
     11          6           0        4.846209    0.409407    0.097294
     12          6           0        1.214592    1.110011    0.675872
     13          7           0       -0.039067    0.821598    0.672173
     14          8           0       -0.341097   -0.451945    0.207228
     15          1           0       -2.830401    2.396656   -1.915156
     16          1           0       -3.297907    0.738979   -2.321260
     17          1           0       -1.676576    1.067556   -1.670210
     18          1           0       -2.649182    1.794883    0.501720
     19          1           0       -4.291061    1.461862   -0.091490
     20          1           0       -4.266188   -0.953095   -1.198857
     21          1           0       -3.532627   -2.092410   -0.063986
     22          1           0       -5.796029   -0.124269    0.650108
     23          1           0       -5.984478   -1.865539    0.388805
     24          1           0       -5.030732   -1.269904    1.767431
     25          1           0        5.773412   -1.382858   -0.666310
     26          1           0        3.615958   -2.584175   -0.937923
     27          1           0        1.486725   -1.481034   -0.333202
     28          1           0        3.655127    2.042869    0.823583
     29          1           0        5.784094    0.943769    0.220522
     30          1           0        1.395181    2.119070    1.046065
     31          1           0       -1.323989   -0.471103    0.284081
 ---------------------------------------------------------------------

 SCF Done:  E(UB3LYP) =  -634.772752548     A.U. after   33 cycles
 SCF Done:  E(UB3LYP) =  -634.772752548     a.u. after    1 cycles

 The electronic state is 2-A.
 Alpha  occ. eigenvalues --  -19.03489 -19.01708 -14.21359 -10.12362 -10.11696
 Alpha  occ. eigenvalues --  -10.06538 -10.06415 -10.06129 -10.05702 -10.05443
 Alpha  occ. eigenvalues --  -10.05414 -10.05371 -10.04825 -10.04327  -0.94836
 Alpha  occ. eigenvalues --   -0.93719  -0.74196  -0.71497  -0.67649  -0.63680
 Alpha  occ. eigenvalues --   -0.63175  -0.62616  -0.55144  -0.51198  -0.48914
 Alpha  occ. eigenvalues --   -0.48645  -0.44944  -0.41621  -0.40131  -0.39769
 Alpha  occ. eigenvalues --   -0.35954  -0.35007  -0.34249  -0.33647  -0.32944
 Alpha  occ. eigenvalues --   -0.31769  -0.31025  -0.29634  -0.28875  -0.28687
 Alpha  occ. eigenvalues --   -0.28102  -0.27811  -0.26964  -0.25650  -0.24902
 Alpha  occ. eigenvalues --   -0.24243  -0.22377  -0.21652  -0.17368  -0.16760
 Alpha  occ. eigenvalues --   -0.13981  -0.13627  -0.10988   0.04439
 Alpha virt. eigenvalues --    0.05725   0.07591   0.07752   0.08299   0.08998
 Alpha virt. eigenvalues --    0.09448   0.10269   0.10396   0.10608   0.10876
 Alpha virt. eigenvalues --    0.11372   0.12724   0.13011   0.13670   0.14355

  Beta  occ. eigenvalues --  -19.03488 -19.01635 -14.20980 -10.12344 -10.11683
  Beta  occ. eigenvalues --  -10.06496 -10.06387 -10.06115 -10.05720 -10.05446
  Beta  occ. eigenvalues --  -10.05335 -10.05286 -10.04601 -10.04229  -0.94661
  Beta  occ. eigenvalues --   -0.93583  -0.73931  -0.71166  -0.67616  -0.63637
  Beta  occ. eigenvalues --   -0.62854  -0.62384  -0.55086  -0.50754  -0.48841
  Beta  occ. eigenvalues --   -0.48541  -0.44777  -0.41541  -0.40094  -0.39718
  Beta  occ. eigenvalues --   -0.35730  -0.34827  -0.34196  -0.33567  -0.32897
  Beta  occ. eigenvalues --   -0.31708  -0.30951  -0.29544  -0.28816  -0.28149
  Beta  occ. eigenvalues --   -0.28045  -0.27411  -0.26821  -0.25614  -0.24225
  Beta  occ. eigenvalues --   -0.24110  -0.22311  -0.21613  -0.17293  -0.15932
  Beta  occ. eigenvalues --   -0.13475  -0.13251  -0.09802
  Beta virt. eigenvalues --    0.06789   0.07568   0.08145   0.08613   0.08662
  Beta virt. eigenvalues --    0.09061   0.09578   0.10425   0.10538   0.10894
  Beta virt. eigenvalues --    0.10961   0.11540   0.12743   0.13078   0.13774

 Mulliken charges and spin densities:
               1          2
     1  C   -0.042505  -0.391362
     2  C   -0.157399  -0.077600
     3  O   -0.196925   0.013904
     4  C   -0.419556   0.240325
     5  C    0.974586  -1.388761
     6  C   -0.233114   0.181560
     7  C   -0.426164  -0.016012
     8  C   -0.395002   0.125105
     9  C    1.404340   0.037751
    10  C   -0.430436   0.043706
    11  C   -0.427240  -0.009345
    12  C   -0.790564  -0.017371
    13  N   -0.164242   0.173438
    14  O   -0.283333   0.016304
    15  H   -0.019164   0.137608
    16  H    0.012737   0.107544
    17  H    0.122881   0.037758
    18  H    0.244574  -0.026722
    19  H   -0.201248   0.299282
    20  H   -0.061612   0.167467
    21  H   -0.014391   0.166026
    22  H   -0.280743   0.419308
    23  H   -0.531186   0.667645
    24  H    0.025411   0.121624
    25  H    0.101836  -0.014689
    26  H    0.142448   0.002049
    27  H    0.124482   0.010061
    28  H    0.099850  -0.002542
    29  H    0.118639   0.001062
    30  H    0.148657   0.007413
    31  H    0.554383  -0.032536
 Sum of Mulliken charges =  -1.00000   1.00000

 Dipole moment (field-independent basis, Debye):
    X=              4.7983    Y=              1.4823    Z=             -0.2889  Tot=              5.0304
 Quadrupole moment (field-independent basis, Debye-Ang):
   XX=           -190.3544   YY=           -104.7207   ZZ=           -106.1603
   XY=             -6.4680   XZ=             -1.3783   YZ=              2.4174

 Summary of Natural Population Analysis:

                                       Natural Population
                Natural  -----------------------------------------------
    Atom  No    Charge         Core      Valence    Rydberg      Total
 -----------------------------------------------------------------------
      C    1   -0.30525      0.99966     2.29972    0.00587     3.30525
      C    2   -0.01595      0.99959     2.00341    0.01295     3.01595
      O    3   -0.31496      0.99988     3.30372    0.01136     4.31496
      C    4   -0.00935      0.99959     1.99718    0.01258     3.00935
      C    5   -0.29917      0.99966     2.29419    0.00532     3.29917
      C    6   -0.06962      0.99957     2.06027    0.00977     3.06962
      C    7   -0.11586      0.99958     2.10714    0.00914     3.11586
      C    8   -0.07304      0.99954     2.06479    0.00872     3.07304
      C    9   -0.03783      0.99949     2.02972    0.00861     3.03783
      C   10   -0.07876      0.99955     2.07086    0.00835     3.07876
      C   11   -0.11847      0.99957     2.10949    0.00941     3.11847
      C   12    0.00852      0.99963     1.97484    0.01701     2.99148
      N   13   -0.03268      0.99965     2.51858    0.01444     3.53268
      O   14   -0.29943      0.99988     3.29025    0.00930     4.29943
      H   15    0.09851      0.00000     0.40062    0.00087     0.40149
      H   16    0.09478      0.00000     0.40404    0.00118     0.40522
      H   17    0.11058      0.00000     0.38806    0.00136     0.38942
      H   18    0.10009      0.00000     0.39797    0.00194     0.39991
      H   19    0.07982      0.00000     0.41881    0.00137     0.42018
      H   20    0.08170      0.00000     0.41678    0.00152     0.41830
      H   21    0.08809      0.00000     0.41063    0.00128     0.41191
      H   22    0.09894      0.00000     0.39946    0.00160     0.40106
      H   23    0.10251      0.00000     0.39541    0.00208     0.39749
      H   24    0.09912      0.00000     0.39985    0.00103     0.40088
      H   25    0.08901      0.00000     0.40998    0.00100     0.41099
      H   26    0.09269      0.00000     0.40636    0.00095     0.40731
      H   27    0.11327      0.00000     0.38531    0.00142     0.38673
      H   28    0.09091      0.00000     0.40759    0.00150     0.40909
      H   29    0.09186      0.00000     0.40708    0.00106     0.40814
      H   30    0.08349      0.00000     0.41527    0.00124     0.41651
      H   31    0.24647      0.00000     0.24957    0.00396     0.25353
 =======================================================================
   * Total *    0.00000     13.99485    38.83695    0.16820    53.00000

 Normal termination of Gaussian 16 at Thu Dec 10 11:18:42 2020.
