 Gaussian 16, Revision A.03,

 -----------------------------------------------------------
 # opt freq B3LYP/6-31G(d) empiricaldispersion=gd3bj scf=xqc
 -----------------------------------------------------------

 ------------------------------
 CID_22647017_JID_9931_neutraal
 ------------------------------
 Symbolic Z-matrix:
 Charge =  0 Multiplicity = 1

 SCF Done:  E(RB3LYP) =  -826.416406755     A.U. after   15 cycles
 SCF Done:  E(RB3LYP) =  -826.421544210     A.U. after   12 cycles
 SCF Done:  E(RB3LYP) =  -826.421427404     A.U. after   12 cycles
 SCF Done:  E(RB3LYP) =  -826.422609421     A.U. after   12 cycles
 SCF Done:  E(RB3LYP) =  -826.423174814     A.U. after   13 cycles
 SCF Done:  E(RB3LYP) =  -826.423510493     A.U. after   13 cycles
 SCF Done:  E(RB3LYP) =  -826.423734907     A.U. after   12 cycles
 SCF Done:  E(RB3LYP) =  -826.423817510     A.U. after   12 cycles
 SCF Done:  E(RB3LYP) =  -826.423837308     A.U. after   10 cycles
 SCF Done:  E(RB3LYP) =  -826.423843942     A.U. after    9 cycles
 SCF Done:  E(RB3LYP) =  -826.423844829     A.U. after    8 cycles
 SCF Done:  E(RB3LYP) =  -826.423845003     A.U. after    7 cycles
 Optimization completed.
    -- Stationary point found.
 Normal termination of Gaussian 16 at Mon Dec 14 13:26:12 2020.

 --------------------------------------------------------------------
 #N Geom=AllCheck Guess=TCheck SCRF=Check GenChk RB3LYP/6-31G(d) Freq
 --------------------------------------------------------------------

 Structure from the checkpoint file:  "JID_9931.chk"
 ------------------------------
 CID_22647017_JID_9931_neutraal
 ------------------------------
 Charge =  0 Multiplicity = 1

 SCF Done:  E(RB3LYP) =  -826.423845003     A.U. after    1 cycles

  Exact polarizability: 187.036   7.412 178.393  11.835  -7.423 137.980
 Approx polarizability: 234.262   6.866 278.734  24.314 -15.709 229.896

                      1                      2                      3
                      A                      A                      A
 Frequencies --     16.8092                20.1516                39.7773
 Red. masses --      5.2185                 3.9352                 3.7488
 Frc consts  --      0.0009                 0.0009                 0.0035
 IR Inten    --      0.4633                 0.0409                 0.4800

                      4                      5                      6
                      A                      A                      A
 Frequencies --     64.7792                98.4526               120.9482
 Red. masses --      3.9237                 5.0482                 5.6972
 Frc consts  --      0.0097                 0.0288                 0.0491
 IR Inten    --      0.0367                 1.6692                 1.5661

                      7                      8                      9
                      A                      A                      A
 Frequencies --    144.4000               157.6292               189.7968
 Red. masses --      2.6035                 4.1285                 3.7913
 Frc consts  --      0.0320                 0.0604                 0.0805
 IR Inten    --      1.0427                 1.0940                 0.7228

                     10                     11                     12
                      A                      A                      A
 Frequencies --    231.4624               250.7192               301.5117
 Red. masses --      1.8859                 5.7983                 4.8488
 Frc consts  --      0.0595                 0.2147                 0.2597
 IR Inten    --      0.3931                 5.1979                 1.7153

                     13                     14                     15
                      A                      A                      A
 Frequencies --    321.4202               341.9284               375.4643
 Red. masses --      3.7941                 2.8864                 5.0963
 Frc consts  --      0.2309                 0.1988                 0.4233
 IR Inten    --      6.5654                 1.5319                 7.6531

                     16                     17                     18
                      A                      A                      A
 Frequencies --    406.0957               417.3242               419.3676
 Red. masses --      2.7452                 2.9662                 2.1411
 Frc consts  --      0.2667                 0.3044                 0.2219
 IR Inten    --      9.3387                 0.4522                 0.4779

                     19                     20                     21
                      A                      A                      A
 Frequencies --    439.1010               501.3143               539.9705
 Red. masses --      3.6569                 4.0738                 3.3184
 Frc consts  --      0.4154                 0.6032                 0.5701
 IR Inten    --      0.6607                 5.0967                 0.0640

                     22                     23                     24
                      A                      A                      A
 Frequencies --    543.4356               598.2627               620.8615
 Red. masses --      4.0243                 3.4625                 3.2090
 Frc consts  --      0.7002                 0.7302                 0.7288
 IR Inten    --      9.6697                 1.9734                16.4460

                     25                     26                     27
                      A                      A                      A
 Frequencies --    637.8902               659.0825               715.1839
 Red. masses --      6.1115                 1.9933                 1.7889
 Frc consts  --      1.4652                 0.5102                 0.5391
 IR Inten    --      0.5871                 4.5358                33.2396

                     28                     29                     30
                      A                      A                      A
 Frequencies --    730.7858               760.6989               766.4149
 Red. masses --      3.0640                 3.5458                 3.3029
 Frc consts  --      0.9641                 1.2089                 1.1431
 IR Inten    --      6.2598                29.2218                15.0281

                     31                     32                     33
                      A                      A                      A
 Frequencies --    776.3578               822.0296               838.3100
 Red. masses --      2.4294                 2.0857                 3.7130
 Frc consts  --      0.8627                 0.8304                 1.5374
 IR Inten    --     16.3527                 3.4641                 7.5962

                     34                     35                     36
                      A                      A                      A
 Frequencies --    863.3039               865.0629               884.2743
 Red. masses --      2.6010                 1.2503                 1.8535
 Frc consts  --      1.1422                 0.5513                 0.8539
 IR Inten    --      3.5074                 0.5170                 5.9289

                     37                     38                     39
                      A                      A                      A
 Frequencies --    901.0268               931.1565               937.8243
 Red. masses --      1.8971                 2.2492                 1.7997
 Frc consts  --      0.9074                 1.1490                 0.9326
 IR Inten    --      4.8582                 3.4727                17.7958

                     40                     41                     42
                      A                      A                      A
 Frequencies --    958.0592               974.3722               992.7565
 Red. masses --      2.7986                 1.3453                 1.5157
 Frc consts  --      1.5135                 0.7525                 0.8802
 IR Inten    --      7.8473                 0.8714                11.8344

                     43                     44                     45
                      A                      A                      A
 Frequencies --    999.3902              1002.8504              1006.6702
 Red. masses --      1.5225                 1.9695                 1.4404
 Frc consts  --      0.8960                 1.1670                 0.8600
 IR Inten    --     24.6840                30.5551                 1.8048

                     46                     47                     48
                      A                      A                      A
 Frequencies --   1013.7523              1018.4055              1023.3872
 Red. masses --      1.9529                 2.3636                 5.8773
 Frc consts  --      1.1825                 1.4443                 3.6267
 IR Inten    --      6.7814                 3.7549                 0.0684

                     49                     50                     51
                      A                      A                      A
 Frequencies --   1061.2905              1073.6774              1114.4672
 Red. masses --      2.2170                 2.1377                 2.3955
 Frc consts  --      1.4712                 1.4519                 1.7530
 IR Inten    --      2.3937                 4.5360                 3.8798

                     52                     53                     54
                      A                      A                      A
 Frequencies --   1116.7378              1123.5457              1129.7572
 Red. masses --      2.4144                 1.5894                 2.1116
 Frc consts  --      1.7741                 1.1821                 1.5879
 IR Inten    --     58.0998                 7.6191                58.1195

                     55                     56                     57
                      A                      A                      A
 Frequencies --   1148.6661              1175.2942              1194.3804
 Red. masses --      2.5394                 1.5659                 1.0992
 Frc consts  --      1.9741                 1.2744                 0.9239
 IR Inten    --     92.3228                42.4735                 0.0538

                     58                     59                     60
                      A                      A                      A
 Frequencies --   1204.0846              1216.2393              1223.4836
 Red. masses --      1.2640                 1.1401                 1.3502
 Frc consts  --      1.0798                 0.9937                 1.1908
 IR Inten    --      8.2767                 2.5671                36.9133

                     61                     62                     63
                      A                      A                      A
 Frequencies --   1239.8059              1244.2197              1258.0997
 Red. masses --      1.5966                 2.9232                 1.6397
 Frc consts  --      1.4460                 2.6662                 1.5292
 IR Inten    --     33.8270                31.3160                18.7739

                     64                     65                     66
                      A                      A                      A
 Frequencies --   1273.3555              1295.9781              1311.5906
 Red. masses --      1.3774                 1.3278                 1.4262
 Frc consts  --      1.3158                 1.3139                 1.4455
 IR Inten    --      5.9498                19.2897                 4.3736

                     67                     68                     69
                      A                      A                      A
 Frequencies --   1322.4890              1361.0511              1365.2240
 Red. masses --      1.3372                 1.3516                 1.3214
 Frc consts  --      1.3779                 1.4752                 1.4511
 IR Inten    --      7.6863                37.8443               120.9776

                     70                     71                     72
                      A                      A                      A
 Frequencies --   1367.0375              1375.0618              1381.3930
 Red. masses --      4.1535                 1.2735                 1.3346
 Frc consts  --      4.5732                 1.4187                 1.5005
 IR Inten    --      1.5920                 1.9569                28.3768

                     73                     74                     75
                      A                      A                      A
 Frequencies --   1385.8192              1392.7426              1403.0465
 Red. masses --      1.5515                 1.6048                 1.4948
 Frc consts  --      1.7555                 1.8340                 1.7337
 IR Inten    --     18.8257                47.6899                38.3448

                     76                     77                     78
                      A                      A                      A
 Frequencies --   1425.6270              1436.0787              1464.7022
 Red. masses --      1.5993                 1.5737                 2.9886
 Frc consts  --      1.9151                 1.9122                 3.7776
 IR Inten    --      7.8902                47.0448               273.6391

                     79                     80                     81
                      A                      A                      A
 Frequencies --   1505.9593              1506.3523              1519.1491
 Red. masses --      2.1859                 1.0845                 1.1378
 Frc consts  --      2.9208                 1.4499                 1.5471
 IR Inten    --      6.4248                 3.4414                41.8776

                     82                     83                     84
                      A                      A                      A
 Frequencies --   1524.2435              1530.0706              1549.1432
 Red. masses --      1.1045                 1.0976                 2.1894
 Frc consts  --      1.5119                 1.5139                 3.0957
 IR Inten    --      2.0586                 4.1881                 9.8553

                     85                     86                     87
                      A                      A                      A
 Frequencies --   1553.7127              1648.1730              1669.0911
 Red. masses --      1.0978                 5.5675                 5.5590
 Frc consts  --      1.5615                 8.9108                 9.1244
 IR Inten    --      1.6518                 1.6161                 0.4344

                     88                     89                     90
                      A                      A                      A
 Frequencies --   1722.3984              1791.0651              2962.5115
 Red. masses --      6.6945                11.0838                 1.0811
 Frc consts  --     11.7014                20.9489                 5.5905
 IR Inten    --      9.4274               437.1879                26.3820

                     91                     92                     93
                      A                      A                      A
 Frequencies --   3014.5168              3015.6486              3039.3125
 Red. masses --      1.0683                 1.0819                 1.0714
 Frc consts  --      5.7198                 5.7972                 5.8314
 IR Inten    --     33.2106                 9.3095                13.4361

                     94                     95                     96
                      A                      A                      A
 Frequencies --   3052.7308              3054.8183              3058.8967
 Red. masses --      1.0777                 1.0775                 1.0640
 Frc consts  --      5.9175                 5.9245                 5.8656
 IR Inten    --     35.7224                33.3069                64.1305

                     97                     98                     99
                      A                      A                      A
 Frequencies --   3087.5708              3101.7383              3115.4447
 Red. masses --      1.1029                 1.0582                 1.0968
 Frc consts  --      6.1948                 5.9983                 6.2723
 IR Inten    --     39.6612                34.7241                33.3508

                    100                    101                    102
                      A                      A                      A
 Frequencies --   3125.1029              3157.9920              3160.3689
 Red. masses --      1.1013                 1.1089                 1.0884
 Frc consts  --      6.3368                 6.5160                 6.4050
 IR Inten    --     26.7283                 5.3272                22.2642

                    103                    104                    105
                      A                      A                      A
 Frequencies --   3175.7517              3185.3133              3196.3149
 Red. masses --      1.0865                 1.0874                 1.0918
 Frc consts  --      6.4562                 6.5006                 6.5722
 IR Inten    --      7.2881                 3.1993                30.6842

                    106                    107                    108
                      A                      A                      A
 Frequencies --   3207.7109              3220.5278              3229.2875
 Red. masses --      1.0962                 1.0943                 1.0932
 Frc consts  --      6.6453                 6.6870                 6.7171
 IR Inten    --     25.6550                 4.7032                 8.3197

 - Thermochemistry -
 -------------------
 Temperature   298.150 Kelvin.  Pressure   1.00000 Atm.
 Atom     1 has atomic number  6 and mass  12.00000

 Molecular mass:   257.14158 amu.
 Principal axes and moments of inertia in atomic units:
                           1         2         3
     Eigenvalues --  2667.521958197.729969659.60716
           X            1.00000  -0.00051  -0.00081
           Y            0.00050   0.99996  -0.00897
           Z            0.00081   0.00897   0.99996
 This molecule is an asymmetric top.
 Rotational symmetry number  1.
 Warning -- assumption of classical behavior for rotation
           may cause significant error
 Rotational temperatures (Kelvin)      0.03247     0.01057     0.00897
 Rotational constants (GHZ):           0.67656     0.22015     0.18683
 Zero-point vibrational energy     855365.2 (Joules/Mol)
                                  204.43719 (Kcal/Mol)
 Warning -- explicit consideration of  23 degrees of freedom as
           vibrations may cause significant error
 Vibrational temperatures:     24.18    28.99    57.23    93.20   141.65
          (Kelvin)            174.02   207.76   226.79   273.08   333.02
                              360.73   433.81   462.45   491.96   540.21
                              584.28   600.44   603.38   631.77   721.28
                              776.90   781.88   860.77   893.28   917.78
                              948.27  1028.99  1051.44  1094.48  1102.70
                             1117.01  1182.72  1206.14  1242.10  1244.63
                             1272.27  1296.38  1339.73  1349.32  1378.43
                             1401.90  1428.36  1437.90  1442.88  1448.37
                             1458.56  1465.26  1472.43  1526.96  1544.78
                             1603.47  1606.74  1616.53  1625.47  1652.67
                             1690.99  1718.45  1732.41  1749.90  1760.32
                             1783.80  1790.15  1810.12  1832.07  1864.62
                             1887.09  1902.77  1958.25  1964.25  1966.86
                             1978.41  1987.52  1993.88  2003.85  2018.67
                             2051.16  2066.20  2107.38  2166.74  2167.30
                             2185.72  2193.05  2201.43  2228.87  2235.45
                             2371.35  2401.45  2478.15  2576.94  4262.39
                             4337.22  4338.85  4372.89  4392.20  4395.20
                             4401.07  4442.33  4462.71  4482.43  4496.33
                             4543.65  4547.07  4569.20  4582.96  4598.78
                             4615.18  4633.62  4646.22

 Zero-point correction=                           0.325791 (Hartree/Particle)
 Thermal correction to Energy=                    0.341990
 Thermal correction to Enthalpy=                  0.342934
 Thermal correction to Gibbs Free Energy=         0.279486
 Sum of electronic and zero-point Energies=           -826.098054
 Sum of electronic and thermal Energies=              -826.081855
 Sum of electronic and thermal Enthalpies=            -826.080911
 Sum of electronic and thermal Free Energies=         -826.144359

                     E (Thermal)             CV                S
                      KCal/Mol        Cal/Mol-Kelvin    Cal/Mol-Kelvin
 Total                  214.602             63.738            133.537
 Electronic               0.000              0.000              0.000
 Translational            0.889              2.981             42.533
 Rotational               0.889              2.981             33.712
 Vibrational            212.824             57.776             57.291
 Vibration     1          0.593              1.986              6.979
 Vibration     2          0.593              1.986              6.619
 Vibration     3          0.594              1.981              5.270
 Vibration     4          0.597              1.971              4.306
 Vibration     5          0.604              1.950              3.485
 Vibration     6          0.609              1.932              3.085
 Vibration     7          0.616              1.909              2.745
 Vibration     8          0.621              1.894              2.578
 Vibration     9          0.633              1.854              2.230
 Vibration    10          0.653              1.793              1.868
 Vibration    11          0.663              1.762              1.726
 Vibration    12          0.693              1.671              1.408
 Vibration    13          0.707              1.633              1.303
 Vibration    14          0.721              1.592              1.203
 Vibration    15          0.746              1.522              1.057
 Vibration    16          0.771              1.457              0.941
 Vibration    17          0.780              1.433              0.901
 Vibration    18          0.782              1.428              0.894
 Vibration    19          0.799              1.385              0.829
 Vibration    20          0.857              1.247              0.655
 Vibration    21          0.895              1.162              0.565
 Vibration    22          0.899              1.154              0.558
 Vibration    23          0.956              1.035              0.453

 Optimization completed.
    -- Stationary point found.
 Normal termination of Gaussian 16 at Mon Dec 14 13:46:33 2020.

 ----------------------------------------------------------------------
 # B3LYP/6-311++G(d,p) empiricaldispersion=gd3bj scf=xqc pop=npa geom=c
 heck
 ----------------------------------------------------------------------

 --------------------------------------
 CID_22647017_JID_9931_Energie_neutraal
 --------------------------------------
 Structure from the checkpoint file:  "JID_9931.chk"
 Charge =  0 Multiplicity = 1

 SCF Done:  E(RB3LYP) =  -826.645885405     A.U. after   16 cycles
 Normal termination of Gaussian 16 at Mon Dec 14 13:56:23 2020.

 ----------------------------------------------------------------------
 # B3LYP/6-311++G(d,p) empiricaldispersion=gd3bj scf=xqc pop=npa geom=c
 heck
 ----------------------------------------------------------------------

 ------------------------------------
 CID_22647017_JID_9931_Energie_kation
 ------------------------------------
 Structure from the checkpoint file:  "JID_9931.chk"
 Charge =  1 Multiplicity = 2

 SCF Done:  E(UB3LYP) =  -826.347380119     A.U. after   33 cycles
 SCF Done:  E(UB3LYP) =  -826.347380119     a.u. after    1 cycles
 Normal termination of Gaussian 16 at Mon Dec 14 14:25:54 2020.
 Gaussian 16:  ES64L-G16RevA.03 25-Dec-2016

 ----------------------------------------------------------------------
 # B3LYP/6-311++G(d,p) empiricaldispersion=gd3bj scf=xqc pop=npa geom=c
 heck
 ----------------------------------------------------------------------

 -----------------------------------
 CID_22647017_JID_9931_Energie_anion
 -----------------------------------
 Structure from the checkpoint file:  "JID_9931.chk"
 Charge = -1 Multiplicity = 2

                         Standard orientation:
 ---------------------------------------------------------------------
 Center     Atomic      Atomic             Coordinates (Angstroms)
 Number     Number       Type             X           Y           Z
 ---------------------------------------------------------------------
      1          6           0       -3.647588    2.409747    0.189911
      2          6           0       -4.234246    0.988110    0.008769
      3          6           0       -3.213153   -0.025702    0.502878
      4          6           0       -3.487716   -1.529186    0.515398
      5          6           0       -2.072514   -2.097899    0.741204
      6          7           0       -1.186390   -1.101241    0.105228
      7          6           0       -1.947951    0.069575   -0.356399
      8          6           0       -1.342994    1.441584   -0.212138
      9          6           0       -2.146272    2.488321    0.006817
     10          6           0        0.021706   -1.498264   -0.369151
     11          8           0        0.570964   -2.550265   -0.074491
     12          8           0        0.540818   -0.571363   -1.225074
     13          6           0        1.921899   -0.776071   -1.606232
     14          6           0        2.853974   -0.117082   -0.623269
     15          6           0        3.303519    1.189547   -0.841662
     16          6           0        4.136456    1.818179    0.083913
     17          6           0        4.525836    1.141962    1.240803
     18          6           0        4.079449   -0.161728    1.467210
     19          6           0        3.247942   -0.789565    0.540981
     20          1           0       -3.886827    2.778066    1.199275
     21          1           0       -4.139849    3.111649   -0.496879
     22          1           0       -5.182881    0.901426    0.551037
     23          1           0       -4.453037    0.799752   -1.050753
     24          1           0       -2.917247    0.260513    1.523286
     25          1           0       -3.886434   -1.858122   -0.452663
     26          1           0       -4.188310   -1.841038    1.295649
     27          1           0       -1.912079   -3.081524    0.293197
     28          1           0       -1.841212   -2.178506    1.810173
     29          1           0       -2.218398   -0.085425   -1.415187
     30          1           0       -0.273076    1.560712   -0.340472
     31          1           0       -1.711626    3.484366    0.080787
     32          1           0        2.105937   -1.849046   -1.680304
     33          1           0        2.001290   -0.317534   -2.594112
     34          1           0        3.000046    1.715148   -1.744213
     35          1           0        4.482242    2.831956   -0.098331
     36          1           0        5.176120    1.628401    1.962672
     37          1           0        4.381395   -0.691161    2.366682
     38          1           0        2.884337   -1.797083    0.715877
 ---------------------------------------------------------------------

 SCF Done:  E(UB3LYP) =  -826.632968043     A.U. after   33 cycles
 SCF Done:  E(UB3LYP) =  -826.632968043     a.u. after    1 cycles

 The electronic state is 2-A.
 Alpha  occ. eigenvalues --  -19.07049 -19.00364 -14.25021 -10.22420 -10.14167
 Alpha  occ. eigenvalues --  -10.12076 -10.11817 -10.09531 -10.09069 -10.09007
 Alpha  occ. eigenvalues --  -10.08980 -10.08922 -10.08714 -10.08705 -10.08629
 Alpha  occ. eigenvalues --  -10.08206 -10.07894 -10.07841 -10.07342  -1.01498
 Alpha  occ. eigenvalues --   -0.92385  -0.86354  -0.77449  -0.74839  -0.70528
 Alpha  occ. eigenvalues --   -0.68500  -0.66252  -0.65382  -0.63934  -0.61170
 Alpha  occ. eigenvalues --   -0.55049  -0.53821  -0.52443  -0.50853  -0.49901
 Alpha  occ. eigenvalues --   -0.46778  -0.45382  -0.44439  -0.43046  -0.40134
 Alpha  occ. eigenvalues --   -0.39258  -0.38220  -0.37905  -0.37410  -0.36412
 Alpha  occ. eigenvalues --   -0.35869  -0.34125  -0.33742  -0.33338  -0.33037
 Alpha  occ. eigenvalues --   -0.31881  -0.30993  -0.29926  -0.29434  -0.28841
 Alpha  occ. eigenvalues --   -0.28349  -0.27489  -0.27138  -0.26674  -0.25502
 Alpha  occ. eigenvalues --   -0.24358  -0.23880  -0.21961  -0.21099  -0.19143
 Alpha  occ. eigenvalues --   -0.17172  -0.17024  -0.16461  -0.15033   0.03993
 Alpha virt. eigenvalues --    0.05367   0.06113   0.06559   0.06829   0.06987
 Alpha virt. eigenvalues --    0.07330   0.07634   0.08198   0.08892   0.09126
 Alpha virt. eigenvalues --    0.09374   0.09646   0.10366   0.10670   0.11326

  Beta  occ. eigenvalues --  -19.07044 -19.00359 -14.25021 -10.22419 -10.14160
  Beta  occ. eigenvalues --  -10.12066 -10.11810 -10.09509 -10.09062 -10.08990
  Beta  occ. eigenvalues --  -10.08954 -10.08904 -10.08707 -10.08696 -10.08608
  Beta  occ. eigenvalues --  -10.08184 -10.07867 -10.07832 -10.07333  -1.01488
  Beta  occ. eigenvalues --   -0.92375  -0.86344  -0.77408  -0.74814  -0.70498
  Beta  occ. eigenvalues --   -0.68453  -0.66214  -0.65343  -0.63903  -0.61135
  Beta  occ. eigenvalues --   -0.55014  -0.53770  -0.52412  -0.50806  -0.49845
  Beta  occ. eigenvalues --   -0.46746  -0.45349  -0.44413  -0.43006  -0.40108
  Beta  occ. eigenvalues --   -0.39228  -0.38179  -0.37873  -0.37375  -0.36387
  Beta  occ. eigenvalues --   -0.35841  -0.34100  -0.33717  -0.33313  -0.33006
  Beta  occ. eigenvalues --   -0.31856  -0.30948  -0.29901  -0.29400  -0.28794
  Beta  occ. eigenvalues --   -0.28299  -0.27450  -0.27114  -0.26643  -0.25477
  Beta  occ. eigenvalues --   -0.24323  -0.23844  -0.21926  -0.21083  -0.19128
  Beta  occ. eigenvalues --   -0.17112  -0.16922  -0.16417  -0.15010
  Beta virt. eigenvalues --    0.05930   0.06333   0.06383   0.06912   0.07067
  Beta virt. eigenvalues --    0.07340   0.07825   0.07970   0.08718   0.09068
  Beta virt. eigenvalues --    0.09345   0.09679   0.09905   0.10616   0.10830

 Mulliken charges and spin densities:
               1          2
     1  C    1.329984  -2.155273
     2  C   -0.396976  -0.094195
     3  C   -0.880936   1.367151
     4  C    0.481518  -0.926008
     5  C   -0.152367  -0.034877
     6  N    0.139921   0.007428
     7  C   -0.449967  -0.342145
     8  C    0.703408  -0.483797
     9  C   -0.520941   0.347176
    10  C    0.170811  -0.171925
    11  O   -0.317104   0.000656
    12  O    0.039283  -0.014215
    13  C    0.536361  -1.269224
    14  C    0.223123   0.597017
    15  C   -0.306406   0.076909
    16  C    0.210286  -0.437366
    17  C    0.845096  -1.210821
    18  C   -0.275923   0.002626
    19  C   -0.752629   0.732157
    20  H   -0.017875   0.177810
    21  H   -0.168412   0.331280
    22  H   -0.562161   0.754010
    23  H   -0.021610   0.161591
    24  H   -0.011749   0.225866
    25  H   -0.045108   0.191579
    26  H   -0.257772   0.431247
    27  H    0.151611   0.037563
    28  H    0.075997   0.093310
    29  H   -0.064455   0.300484
    30  H    0.613853  -0.445585
    31  H   -0.508890   0.705485
    32  H    0.164433   0.028966
    33  H   -0.078608   0.253128
    34  H   -0.255334   0.414401
    35  H   -0.603862   0.790257
    36  H   -0.175005   0.320934
    37  H   -0.033237   0.205625
    38  H    0.171642   0.030775
 Sum of Mulliken charges =  -1.00000   1.00000

 Dipole moment (field-independent basis, Debye):
    X=              1.8114    Y=             -4.4507    Z=             -0.8881  Tot=              4.8866
 Quadrupole moment (field-independent basis, Debye-Ang):
   XX=           -218.0357   YY=           -168.8850   ZZ=           -145.7350
   XY=             -2.8488   XZ=              4.8412   YZ=              1.1735

 Summary of Natural Population Analysis:

                                       Natural Population
                Natural  -----------------------------------------------
    Atom  No    Charge         Core      Valence    Rydberg      Total
 -----------------------------------------------------------------------
      C    1   -0.20627      0.99962     2.19786    0.00879     3.20627
      C    2   -0.18577      0.99961     2.17703    0.00913     3.18577
      C    3   -0.10965      0.99957     2.09829    0.01179     3.10965
      C    4   -0.19147      0.99961     2.18342    0.00845     3.19147
      C    5   -0.07550      0.99963     2.06754    0.00833     3.07550
      N    6   -0.25955      0.99962     2.75097    0.00896     3.75955
      C    7   -0.01313      0.99953     2.00066    0.01294     3.01313
      C    8   -0.09929      0.99949     2.08904    0.01076     3.09929
      C    9   -0.08451      0.99954     2.07512    0.00986     3.08451
      C   10    0.46923      0.99964     1.50695    0.02418     2.53077
      O   11   -0.34000      0.99987     3.33556    0.00457     4.34000
      O   12   -0.28731      0.99987     3.27934    0.00811     4.28731
      C   13   -0.02191      0.99951     2.01024    0.01216     3.02191
      C   14   -0.03632      0.99950     2.02699    0.00983     3.03632
      C   15   -0.09307      0.99952     2.08328    0.01027     3.09307
      C   16   -0.10034      0.99956     2.09041    0.01036     3.10034
      C   17   -0.09695      0.99956     2.08700    0.01039     3.09695
      C   18   -0.10133      0.99957     2.09245    0.00932     3.10133
      C   19   -0.09473      0.99951     2.08677    0.00845     3.09473
      H   20    0.10306      0.00000     0.39549    0.00145     0.39694
      H   21    0.10440      0.00000     0.39441    0.00119     0.39560
      H   22    0.10448      0.00000     0.39381    0.00171     0.39552
      H   23    0.09585      0.00000     0.40268    0.00147     0.40415
      H   24    0.09833      0.00000     0.39980    0.00188     0.40167
      H   25    0.09709      0.00000     0.40160    0.00131     0.40291
      H   26    0.10554      0.00000     0.39336    0.00110     0.39446
      H   27    0.10300      0.00000     0.39589    0.00112     0.39700
      H   28    0.09449      0.00000     0.40427    0.00124     0.40551
      H   29    0.09739      0.00000     0.40099    0.00162     0.40261
      H   30    0.11015      0.00000     0.38844    0.00141     0.38985
      H   31    0.09869      0.00000     0.40029    0.00102     0.40131
      H   32    0.10255      0.00000     0.39628    0.00117     0.39745
      H   33    0.09466      0.00000     0.40419    0.00114     0.40534
      H   34    0.10210      0.00000     0.39657    0.00132     0.39790
      H   35    0.10325      0.00000     0.39521    0.00154     0.39675
      H   36    0.10101      0.00000     0.39802    0.00097     0.39899
      H   37    0.09975      0.00000     0.39948    0.00077     0.40025
      H   38    0.11209      0.00000     0.38684    0.00107     0.38791
 =======================================================================
   * Total *    0.00000     18.99233    49.78651    0.22116    69.00000

 Normal termination of Gaussian 16 at Mon Dec 14 14:56:09 2020.
