 Gaussian 16, Revision A.03,

 -----------------------------------------------------------
 # opt freq B3LYP/6-31G(d) empiricaldispersion=gd3bj scf=xqc
 -----------------------------------------------------------

 ------------------------------
 CID_88908135_JID_5112_neutraal
 ------------------------------
 Symbolic Z-matrix:
 Charge =  0 Multiplicity = 1

 SCF Done:  E(RB3LYP) =  -1370.66125976     A.U. after   17 cycles
 SCF Done:  E(RB3LYP) =  -1370.61809391     A.U. after   16 cycles
 SCF Done:  E(RB3LYP) =  -1370.66615661     A.U. after   13 cycles
 SCF Done:  E(RB3LYP) =  -1370.66981477     A.U. after   14 cycles
 SCF Done:  E(RB3LYP) =  -1370.67138114     A.U. after   16 cycles
 SCF Done:  E(RB3LYP) =  -1370.67154740     A.U. after   15 cycles
 SCF Done:  E(RB3LYP) =  -1370.67261396     A.U. after   13 cycles
 SCF Done:  E(RB3LYP) =  -1370.67310189     A.U. after   12 cycles
 SCF Done:  E(RB3LYP) =  -1370.67400721     A.U. after   13 cycles
 SCF Done:  E(RB3LYP) =  -1370.65743612     A.U. after   16 cycles
 SCF Done:  E(RB3LYP) =  -1370.67820654     A.U. after    8 cycles
 SCF Done:  E(RB3LYP) =  -1370.67820666     A.U. after    7 cycles
 SCF Done:  E(RB3LYP) =  -1370.67820668     A.U. after    7 cycles
 SCF Done:  E(RB3LYP) =  -1370.67820667     A.U. after    7 cycles
 Optimization completed.
    -- Stationary point found.
 Normal termination of Gaussian 16 at Thu Dec 10 15:09:50 2020.

 --------------------------------------------------------------------
 #N Geom=AllCheck Guess=TCheck SCRF=Check GenChk RB3LYP/6-31G(d) Freq
 --------------------------------------------------------------------

 Structure from the checkpoint file:  "JID_5112.chk"
 ------------------------------
 CID_88908135_JID_5112_neutraal
 ------------------------------
 Charge =  0 Multiplicity = 1

 SCF Done:  E(RB3LYP) =  -1370.67820667     A.U. after    1 cycles

  Exact polarizability: 182.173  21.579 124.533  -1.638  11.015 132.565
 Approx polarizability: 286.311  49.165 189.399   3.385  23.529 233.751

                      1                      2                      3
                      A                      A                      A
 Frequencies --     19.6724                38.3030                51.6513
 Red. masses --      3.6508                 3.1512                 5.7539
 Frc consts  --      0.0008                 0.0027                 0.0090
 IR Inten    --      0.6092                 1.0522                 0.8305

                      4                      5                      6
                      A                      A                      A
 Frequencies --     67.5346                78.2536                94.5907
 Red. masses --      4.7324                 4.5819                 7.4412
 Frc consts  --      0.0127                 0.0165                 0.0392
 IR Inten    --      0.8404                 1.3992                 4.1254

                      7                      8                      9
                      A                      A                      A
 Frequencies --    121.9287               145.0572               187.3977
 Red. masses --      4.5197                 5.1490                 5.3013
 Frc consts  --      0.0396                 0.0638                 0.1097
 IR Inten    --      0.4837                 2.7045                 1.3787

                     10                     11                     12
                      A                      A                      A
 Frequencies --    213.3008               232.8374               251.8983
 Red. masses --      3.8357                 1.3479                 3.4997
 Frc consts  --      0.1028                 0.0431                 0.1308
 IR Inten    --      0.6878                 0.6227                 1.1865

                     13                     14                     15
                      A                      A                      A
 Frequencies --    266.5369               308.6902               326.5212
 Red. masses --      2.9460                 7.0091                 2.1505
 Frc consts  --      0.1233                 0.3935                 0.1351
 IR Inten    --      2.9256                 2.7677                 1.3200

                     16                     17                     18
                      A                      A                      A
 Frequencies --    407.9928               422.3162               437.5961
 Red. masses --      4.0923                 6.6776                 2.6762
 Frc consts  --      0.4013                 0.7017                 0.3019
 IR Inten    --      4.9942                 3.6835                 5.2682

                     19                     20                     21
                      A                      A                      A
 Frequencies --    487.6676               499.1824               513.8191
 Red. masses --      3.5423                 3.0531                12.1061
 Frc consts  --      0.4963                 0.4482                 1.8831
 IR Inten    --      3.9064                 6.5340                 1.4473

                     22                     23                     24
                      A                      A                      A
 Frequencies --    533.3995               578.9000               630.0721
 Red. masses --      1.3942                 2.6727                 7.3622
 Frc consts  --      0.2337                 0.5277                 1.7220
 IR Inten    --    110.5273                10.1537                 3.0517

                     25                     26                     27
                      A                      A                      A
 Frequencies --    657.2809               702.3632               734.5947
 Red. masses --      4.1360                 3.2607                 6.6588
 Frc consts  --      1.0528                 0.9477                 2.1171
 IR Inten    --      1.4663                37.2438                12.5582

                     28                     29                     30
                      A                      A                      A
 Frequencies --    750.3057               771.1119               777.0008
 Red. masses --      3.8426                 1.3922                 2.9468
 Frc consts  --      1.2745                 0.4877                 1.0482
 IR Inten    --      0.9567                34.1234                 6.9333

                     31                     32                     33
                      A                      A                      A
 Frequencies --    812.3935               859.1851               896.1411
 Red. masses --      1.2512                 1.9672                 1.2812
 Frc consts  --      0.4865                 0.8556                 0.6062
 IR Inten    --      2.1700                16.8233                 0.9502

                     34                     35                     36
                      A                      A                      A
 Frequencies --    959.6459               971.5659               993.3327
 Red. masses --      2.3587                 1.3941                 2.1291
 Frc consts  --      1.2798                 0.7754                 1.2377
 IR Inten    --      0.5023                 0.0343                 6.6593

                     37                     38                     39
                      A                      A                      A
 Frequencies --    999.2688              1007.8163              1022.7688
 Red. masses --      1.2944                 6.8153                 1.8210
 Frc consts  --      0.7615                 4.0785                 1.1223
 IR Inten    --      0.4326                 6.0209                 4.0501

                     40                     41                     42
                      A                      A                      A
 Frequencies --   1076.5223              1101.7085              1108.0972
 Red. masses --      2.6053                 1.8145                 1.5734
 Frc consts  --      1.7789                 1.2976                 1.1383
 IR Inten    --      3.8544                 7.7269                17.5636

                     43                     44                     45
                      A                      A                      A
 Frequencies --   1117.1626              1152.9736              1161.3291
 Red. masses --      1.8560                 2.5579                 2.4226
 Frc consts  --      1.3648                 2.0035                 1.9251
 IR Inten    --      6.3771                30.2030                22.8031

                     46                     47                     48
                      A                      A                      A
 Frequencies --   1187.0409              1217.4748              1277.2132
 Red. masses --      1.1399                 1.2978                 1.4024
 Frc consts  --      0.9463                 1.1334                 1.3478
 IR Inten    --      0.9937                 7.4137                24.7535

                     49                     50                     51
                      A                      A                      A
 Frequencies --   1286.5918              1318.7026              1322.3763
 Red. masses --      1.2513                 6.1464                 1.5314
 Frc consts  --      1.2204                 6.2975                 1.5778
 IR Inten    --     14.1771                 2.9836                 3.1691

                     52                     53                     54
                      A                      A                      A
 Frequencies --   1328.0686              1347.8999              1400.3315
 Red. masses --      1.5069                 1.1812                 1.5491
 Frc consts  --      1.5660                 1.2644                 1.7898
 IR Inten    --     42.0636                18.9259                59.5114

                     55                     56                     57
                      A                      A                      A
 Frequencies --   1433.8104              1440.4166              1467.2531
 Red. masses --      1.2812                 1.4336                 2.0588
 Frc consts  --      1.5518                 1.7525                 2.6115
 IR Inten    --      2.4270                23.6089                53.7457

                     58                     59                     60
                      A                      A                      A
 Frequencies --   1479.1304              1495.4706              1501.7296
 Red. masses --      1.0933                 1.6356                 2.0192
 Frc consts  --      1.4093                 2.1552                 2.6829
 IR Inten    --      6.7570                30.4860                45.0583

                     61                     62                     63
                      A                      A                      A
 Frequencies --   1515.0258              1518.5873              1527.7299
 Red. masses --      1.1064                 1.1514                 1.0408
 Frc consts  --      1.4962                 1.5644                 1.4312
 IR Inten    --      5.5168                24.1461                 6.0192

                     64                     65                     66
                      A                      A                      A
 Frequencies --   1537.8778              1629.1868              1635.6842
 Red. masses --      1.0939                 5.9635                 5.0449
 Frc consts  --      1.5243                 9.3259                 7.9524
 IR Inten    --     27.4739                36.6041                50.9950

                     67                     68                     69
                      A                      A                      A
 Frequencies --   1782.7008              3054.0884              3064.7643
 Red. masses --      7.8888                 1.0643                 1.0362
 Frc consts  --     14.7713                 5.8488                 5.7341
 IR Inten    --    215.4537                18.4618                24.0215

                     70                     71                     72
                      A                      A                      A
 Frequencies --   3067.2724              3072.9107              3104.1489
 Red. masses --      1.0628                 1.0632                 1.1009
 Frc consts  --      5.8911                 5.9149                 6.2503
 IR Inten    --     14.1699                31.3213                15.5568

                     73                     74                     75
                      A                      A                      A
 Frequencies --   3112.6009              3133.3867              3142.1737
 Red. masses --      1.0996                 1.1032                 1.1024
 Frc consts  --      6.2766                 6.3817                 6.4128
 IR Inten    --     20.5992                30.4102                 5.8441

                     76                     77                     78
                      A                      A                      A
 Frequencies --   3157.1708              3186.6312              3194.9539
 Red. masses --      1.1018                 1.0887                 1.0893
 Frc consts  --      6.4707                 6.5139                 6.5513
 IR Inten    --     14.9860                18.5676                14.0546

                     79                     80                     81
                      A                      A                      A
 Frequencies --   3220.4715              3225.4160              3610.0313
 Red. masses --      1.0921                 1.0972                 1.0760
 Frc consts  --      6.6733                 6.7255                 8.2618
 IR Inten    --      6.1970                15.7036                16.9235

 - Thermochemistry -
 -------------------
 Temperature   298.150 Kelvin.  Pressure   1.00000 Atm.
 Atom     1 has atomic number  6 and mass  12.00000

 Molecular mass:   242.05476 amu.
 Principal axes and moments of inertia in atomic units:
                           1         2         3
     Eigenvalues --  3070.380263823.799385002.70405
           X            0.99801  -0.06290  -0.00535
           Y            0.06312   0.99600   0.06329
           Z            0.00135  -0.06350   0.99798
 This molecule is an asymmetric top.
 Rotational symmetry number  1.
 Warning -- assumption of classical behavior for rotation
           may cause significant error
 Rotational temperatures (Kelvin)      0.02821     0.02265     0.01731
 Rotational constants (GHZ):           0.58779     0.47198     0.36075
 Zero-point vibrational energy     613349.4 (Joules/Mol)
                                  146.59403 (Kcal/Mol)
 Warning -- explicit consideration of  23 degrees of freedom as
           vibrations may cause significant error
 Vibrational temperatures:     28.30    55.11    74.31    97.17   112.59
          (Kelvin)            136.09   175.43   208.70   269.62   306.89
                              335.00   362.43   383.49   444.14   469.79
                              587.01   607.62   629.60   701.64   718.21
                              739.27   767.44   832.91   906.53   945.68
                             1010.54  1056.92  1079.52  1109.46  1117.93
                             1168.85  1236.18  1289.35  1380.72  1397.87
                             1429.18  1437.72  1450.02  1471.54  1548.88
                             1585.11  1594.30  1607.35  1658.87  1670.89
                             1707.89  1751.67  1837.62  1851.12  1897.32
                             1902.60  1910.79  1939.33  2014.76  2062.93
                             2072.44  2111.05  2128.14  2151.65  2160.65
                             2179.78  2184.91  2198.06  2212.66  2344.04
                             2353.38  2564.91  4394.15  4409.51  4413.12
                             4421.23  4466.18  4478.34  4508.24  4520.89
                             4542.46  4584.85  4596.83  4633.54  4640.65
                             5194.03

 Zero-point correction=                           0.233612 (Hartree/Particle)
 Thermal correction to Energy=                    0.249465
 Thermal correction to Enthalpy=                  0.250409
 Thermal correction to Gibbs Free Energy=         0.188282
 Sum of electronic and zero-point Energies=          -1370.444594
 Sum of electronic and thermal Energies=             -1370.428742
 Sum of electronic and thermal Enthalpies=           -1370.427798
 Sum of electronic and thermal Free Energies=        -1370.489925

                     E (Thermal)             CV                S
                      KCal/Mol        Cal/Mol-Kelvin    Cal/Mol-Kelvin
 Total                  156.542             57.596            130.758
 Electronic               0.000              0.000              0.000
 Translational            0.889              2.981             42.353
 Rotational               0.889              2.981             32.441
 Vibrational            154.764             51.634             55.964
 Vibration     1          0.593              1.986              6.667
 Vibration     2          0.594              1.982              5.345
 Vibration     3          0.596              1.977              4.753
 Vibration     4          0.598              1.970              4.224
 Vibration     5          0.600              1.964              3.934
 Vibration     6          0.603              1.953              3.563
 Vibration     7          0.609              1.931              3.070
 Vibration     8          0.616              1.908              2.736
 Vibration     9          0.632              1.857              2.253
 Vibration    10          0.644              1.821              2.015
 Vibration    11          0.654              1.791              1.857
 Vibration    12          0.664              1.760              1.717
 Vibration    13          0.672              1.734              1.619
 Vibration    14          0.698              1.657              1.369
 Vibration    15          0.710              1.622              1.277
 Vibration    16          0.773              1.453              0.934
 Vibration    17          0.785              1.422              0.884
 Vibration    18          0.798              1.388              0.834
 Vibration    19          0.844              1.277              0.690
 Vibration    20          0.855              1.252              0.660
 Vibration    21          0.869              1.219              0.624
 Vibration    22          0.888              1.176              0.580
 Vibration    23          0.935              1.077              0.487

 Optimization completed.
    -- Stationary point found.
 Normal termination of Gaussian 16 at Thu Dec 10 15:19:53 2020.

 ----------------------------------------------------------------------
 # B3LYP/6-311++G(d,p) empiricaldispersion=gd3bj scf=xqc pop=npa geom=c
 heck
 ----------------------------------------------------------------------

 --------------------------------------
 CID_88908135_JID_5112_Energie_neutraal
 --------------------------------------
 Structure from the checkpoint file:  "JID_5112.chk"
 Charge =  0 Multiplicity = 1

 SCF Done:  E(RB3LYP) =  -1370.89359342     A.U. after   17 cycles
 Normal termination of Gaussian 16 at Thu Dec 10 15:24:53 2020.

 ----------------------------------------------------------------------
 # B3LYP/6-311++G(d,p) empiricaldispersion=gd3bj scf=xqc pop=npa geom=c
 heck
 ----------------------------------------------------------------------

 ------------------------------------
 CID_88908135_JID_5112_Energie_kation
 ------------------------------------
 Structure from the checkpoint file:  "JID_5112.chk"
 Charge =  1 Multiplicity = 2

 SCF Done:  E(UB3LYP) =  -1370.59159011     A.U. after   33 cycles
 SCF Done:  E(UB3LYP) =  -1370.59159014     a.u. after    2 cycles
 Normal termination of Gaussian 16 at Thu Dec 10 15:45:46 2020.
 Gaussian 16:  ES64L-G16RevA.03 25-Dec-2016

 ----------------------------------------------------------------------
 # B3LYP/6-311++G(d,p) empiricaldispersion=gd3bj scf=xqc pop=npa geom=c
 heck
 ----------------------------------------------------------------------

 -----------------------------------
 CID_88908135_JID_5112_Energie_anion
 -----------------------------------
 Structure from the checkpoint file:  "JID_5112.chk"
 Charge = -1 Multiplicity = 2

                         Standard orientation:
 ---------------------------------------------------------------------
 Center     Atomic      Atomic             Coordinates (Angstroms)
 Number     Number       Type             X           Y           Z
 ---------------------------------------------------------------------
      1          6           0        0.462656   -2.449463   -1.812421
      2          6           0        1.111014   -2.655206   -0.435258
      3          6           0        0.320647   -1.899993    0.624233
      4          8           0       -0.870851   -2.125502    0.800259
      5          7           0        0.963828   -0.942117    1.367429
      6          6           0        2.352542   -0.527197    1.328990
      7          6           0        2.740133    0.389000    0.163780
      8         16           0        1.821100    1.989971    0.105675
      9         16           0        0.358042    1.639971   -1.329024
     10          6           0       -1.087364    1.038667   -0.432446
     11          6           0       -1.376329    1.366241    0.895138
     12          6           0       -2.547653    0.850999    1.441481
     13          6           0       -3.381808    0.062864    0.648475
     14          6           0       -3.006978   -0.170864   -0.671117
     15          7           0       -1.876611    0.303548   -1.209616
     16          1           0       -0.585943   -2.753270   -1.773566
     17          1           0        0.978706   -3.041769   -2.575016
     18          1           0        0.489417   -1.396080   -2.108992
     19          1           0        1.072062   -3.716906   -0.164639
     20          1           0        2.165820   -2.366989   -0.459790
     21          1           0        0.332402   -0.420248    1.961039
     22          1           0        2.560839   -0.015184    2.273481
     23          1           0        3.004874   -1.408716    1.305442
     24          1           0        3.799592    0.657327    0.248962
     25          1           0        2.593888   -0.102315   -0.801074
     26          1           0       -0.706798    1.997569    1.468541
     27          1           0       -2.810655    1.069913    2.472756
     28          1           0       -4.297026   -0.364740    1.043516
     29          1           0       -3.628309   -0.773952   -1.328951
 ---------------------------------------------------------------------

 SCF Done:  E(UB3LYP) =  -1370.89012764     A.U. after   33 cycles
 SCF Done:  E(UB3LYP) =  -1370.89012764     a.u. after    1 cycles

 The electronic state is 2-A.
 Alpha  occ. eigenvalues --  -88.72822 -88.72565 -18.97386 -14.22532 -14.19712
 Alpha  occ. eigenvalues --  -10.16172 -10.11672 -10.10550 -10.09322 -10.08626
 Alpha  occ. eigenvalues --  -10.08261 -10.07448 -10.06783 -10.06480 -10.05712
 Alpha  occ. eigenvalues --   -7.81396  -7.81144  -5.77835  -5.77580  -5.77409
 Alpha  occ. eigenvalues --   -5.77162  -5.76787  -5.76482  -0.92670  -0.83758
 Alpha  occ. eigenvalues --   -0.81398  -0.69793  -0.69466  -0.67241  -0.66446
 Alpha  occ. eigenvalues --   -0.62098  -0.56435  -0.54687  -0.52473  -0.50927
 Alpha  occ. eigenvalues --   -0.47578  -0.45093  -0.40657  -0.39609  -0.38723
 Alpha  occ. eigenvalues --   -0.37591  -0.35251  -0.35157  -0.33376  -0.32718
 Alpha  occ. eigenvalues --   -0.31565  -0.30812  -0.29515  -0.29382  -0.29008
 Alpha  occ. eigenvalues --   -0.27873  -0.26477  -0.25500  -0.25386  -0.23842
 Alpha  occ. eigenvalues --   -0.22871  -0.20817  -0.18229  -0.17001  -0.15520
 Alpha  occ. eigenvalues --   -0.14619  -0.14481  -0.11748  -0.10968   0.04514
 Alpha virt. eigenvalues --    0.06877   0.07417   0.07656   0.07951   0.08975
 Alpha virt. eigenvalues --    0.09072   0.09624   0.09875   0.10984   0.11290
 Alpha virt. eigenvalues --    0.12035   0.12218   0.12680   0.12896   0.13727

  Beta  occ. eigenvalues --  -88.72704 -88.72450 -18.97386 -14.22533 -14.19718
  Beta  occ. eigenvalues --  -10.16167 -10.11647 -10.10510 -10.09236 -10.08602
  Beta  occ. eigenvalues --  -10.08267 -10.07432 -10.06752 -10.06383 -10.05711
  Beta  occ. eigenvalues --   -7.81279  -7.81018  -5.77595  -5.77365  -5.77265
  Beta  occ. eigenvalues --   -5.77045  -5.76693  -5.76391  -0.92666  -0.83683
  Beta  occ. eigenvalues --   -0.81386  -0.69478  -0.69280  -0.67207  -0.66274
  Beta  occ. eigenvalues --   -0.61777  -0.56205  -0.54614  -0.52300  -0.50794
  Beta  occ. eigenvalues --   -0.47340  -0.44985  -0.40546  -0.39526  -0.38677
  Beta  occ. eigenvalues --   -0.37509  -0.35208  -0.35027  -0.33308  -0.32564
  Beta  occ. eigenvalues --   -0.31514  -0.30734  -0.29360  -0.29263  -0.28929
  Beta  occ. eigenvalues --   -0.27778  -0.26407  -0.25412  -0.25267  -0.23809
  Beta  occ. eigenvalues --   -0.22615  -0.20321  -0.17998  -0.16597  -0.15426
  Beta  occ. eigenvalues --   -0.14606  -0.14365  -0.11441  -0.10552
  Beta virt. eigenvalues --    0.07179   0.07665   0.07781   0.08201   0.08360
  Beta virt. eigenvalues --    0.09127   0.09640   0.09869   0.10455   0.11284
  Beta virt. eigenvalues --    0.11557   0.12092   0.12334   0.12777   0.13236

 Mulliken charges and spin densities:
               1          2
     1  C   -0.612925  -0.019725
     2  C    0.406966  -0.480193
     3  C   -0.171006   0.171253
     4  O   -0.313668   0.007536
     5  N   -0.163960   0.046592
     6  C    0.691992  -1.098706
     7  C   -0.457344   0.168391
     8  S    0.834029  -0.559105
     9  S   -0.695177   0.270107
    10  C    0.327229  -0.253825
    11  C   -0.283445   0.069165
    12  C   -0.384176   0.023630
    13  C   -0.053674   0.027748
    14  C   -0.152223   0.081840
    15  N    0.164476  -0.001459
    16  H    0.179266  -0.003974
    17  H    0.047881   0.075214
    18  H    0.142270  -0.018059
    19  H    0.044675   0.132849
    20  H   -0.009291   0.120001
    21  H    0.305509   0.029970
    22  H   -0.592401   0.751650
    23  H   -0.402749   0.580247
    24  H   -0.393666   0.613048
    25  H    0.258644  -0.058019
    26  H   -0.104674   0.260468
    27  H    0.098087   0.063908
    28  H    0.134440   0.001478
    29  H    0.154915  -0.002032
 Sum of Mulliken charges =  -1.00000   1.00000

 Dipole moment (field-independent basis, Debye):
    X=             -4.2619    Y=             -1.9362    Z=             -1.3036  Tot=              4.8593
 Quadrupole moment (field-independent basis, Debye-Ang):
   XX=           -147.1169   YY=           -142.7152   ZZ=           -132.2468
   XY=             -6.2089   XZ=            -13.5731   YZ=              4.2689

 Summary of Natural Population Analysis:

                                       Natural Population
                Natural  -----------------------------------------------
    Atom  No    Charge         Core      Valence    Rydberg      Total
 -----------------------------------------------------------------------
      C    1   -0.28666      0.99966     2.28114    0.00586     3.28666
      C    2   -0.23215      0.99960     2.22508    0.00747     3.23215
      C    3    0.34565      0.99966     1.63094    0.02375     2.65435
      O    4   -0.32892      0.99988     3.32286    0.00619     4.32892
      N    5   -0.32275      0.99967     2.81126    0.01182     3.82275
      C    6   -0.09695      0.99959     2.08321    0.01415     3.09695
      C    7   -0.25919      0.99958     2.24756    0.01204     3.25919
      S    8    0.06010      4.99968     2.91989    0.02033     7.93990
      S    9    0.09812      4.99957     2.88156    0.02074     7.90188
      C   10    0.04238      0.99945     1.93831    0.01986     2.95762
      C   11   -0.12585      0.99947     2.11605    0.01034     3.12585
      C   12   -0.08274      0.99956     2.07225    0.01093     3.08274
      C   13   -0.12218      0.99956     2.11485    0.00776     3.12218
      C   14    0.04940      0.99959     1.93793    0.01308     2.95060
      N   15   -0.24858      0.99965     2.73528    0.01365     3.74858
      H   16    0.10588      0.00000     0.39323    0.00089     0.39412
      H   17    0.09144      0.00000     0.40783    0.00074     0.40856
      H   18    0.10952      0.00000     0.38925    0.00123     0.39048
      H   19    0.10500      0.00000     0.39399    0.00102     0.39500
      H   20    0.09837      0.00000     0.40021    0.00142     0.40163
      H   21    0.19886      0.00000     0.29862    0.00252     0.30114
      H   22    0.10504      0.00000     0.39216    0.00280     0.39496
      H   23    0.09696      0.00000     0.40072    0.00232     0.40304
      H   24    0.10514      0.00000     0.39305    0.00181     0.39486
      H   25    0.10349      0.00000     0.39504    0.00147     0.39651
      H   26    0.11104      0.00000     0.38732    0.00164     0.38896
      H   27    0.09737      0.00000     0.40184    0.00079     0.40263
      H   28    0.09765      0.00000     0.40148    0.00087     0.40235
      H   29    0.08456      0.00000     0.41437    0.00107     0.41544
 =======================================================================
   * Total *   -0.00000     22.99418    40.78727    0.21854    64.00000

 Normal termination of Gaussian 16 at Thu Dec 10 15:57:36 2020.
