 Gaussian 16, Revision A.03,

 -----------------------------------------------------------
 # opt freq B3LYP/6-31G(d) empiricaldispersion=gd3bj scf=xqc
 -----------------------------------------------------------

 ------------------------------
 CID_43134520_JID_7303_neutraal
 ------------------------------
 Symbolic Z-matrix:
 Charge =  0 Multiplicity = 1

 SCF Done:  E(RB3LYP) =  -753.737185526     A.U. after   15 cycles
 SCF Done:  E(RB3LYP) =  -753.745294363     A.U. after   13 cycles
 SCF Done:  E(RB3LYP) =  -753.746232891     A.U. after   12 cycles
 SCF Done:  E(RB3LYP) =  -753.746472546     A.U. after   12 cycles
 SCF Done:  E(RB3LYP) =  -753.746560137     A.U. after   12 cycles
 SCF Done:  E(RB3LYP) =  -753.746584541     A.U. after   10 cycles
 SCF Done:  E(RB3LYP) =  -753.746592528     A.U. after   10 cycles
 SCF Done:  E(RB3LYP) =  -753.746594251     A.U. after    8 cycles
 SCF Done:  E(RB3LYP) =  -753.746594927     A.U. after    8 cycles
 SCF Done:  E(RB3LYP) =  -753.746595239     A.U. after    8 cycles
 SCF Done:  E(RB3LYP) =  -753.746596106     A.U. after    8 cycles
 SCF Done:  E(RB3LYP) =  -753.746596346     A.U. after    9 cycles
 SCF Done:  E(RB3LYP) =  -753.746596540     A.U. after    8 cycles
 SCF Done:  E(RB3LYP) =  -753.746596658     A.U. after    8 cycles
 SCF Done:  E(RB3LYP) =  -753.746596673     A.U. after    7 cycles
 Optimization completed.
    -- Stationary point found.
 Normal termination of Gaussian 16 at Mon Dec 14 16:41:30 2020.

 --------------------------------------------------------------------
 #N Geom=AllCheck Guess=TCheck SCRF=Check GenChk RB3LYP/6-31G(d) Freq
 --------------------------------------------------------------------

 Structure from the checkpoint file:  "JID_7303.chk"
 ------------------------------
 CID_43134520_JID_7303_neutraal
 ------------------------------
 Charge =  0 Multiplicity = 1

 SCF Done:  E(RB3LYP) =  -753.746596673     A.U. after    1 cycles

  Exact polarizability: 288.955  -7.581 157.637  -0.126  -0.716  57.609
 Approx polarizability: 442.109  -8.889 291.939  -1.209  -0.483  92.573

                      1                      2                      3
                      A                      A                      A
 Frequencies --     24.6457                59.4500                82.8987
 Red. masses --      3.5718                 6.8715                 1.3344
 Frc consts  --      0.0013                 0.0143                 0.0054
 IR Inten    --      0.1894                 0.1999                 0.0578

                      4                      5                      6
                      A                      A                      A
 Frequencies --    109.5721               131.3459               162.2596
 Red. masses --      3.0598                 3.1188                 5.3881
 Frc consts  --      0.0216                 0.0317                 0.0836
 IR Inten    --      0.2765                 1.6154                11.7882

                      7                      8                      9
                      A                      A                      A
 Frequencies --    191.6672               266.5307               286.4054
 Red. masses --      5.8165                 5.0888                 5.8044
 Frc consts  --      0.1259                 0.2130                 0.2805
 IR Inten    --      3.2790                 0.8580                 0.0895

                     10                     11                     12
                      A                      A                      A
 Frequencies --    305.2819               311.6132               321.5950
 Red. masses --      5.1902                 3.2223                 6.0636
 Frc consts  --      0.2850                 0.1844                 0.3695
 IR Inten    --      1.5557                 3.6255                 0.9022

                     13                     14                     15
                      A                      A                      A
 Frequencies --    401.4382               427.9300               439.0834
 Red. masses --      1.2203                 2.6158                 3.4717
 Frc consts  --      0.1159                 0.2822                 0.3944
 IR Inten    --    277.7135                41.4293                18.9788

                     16                     17                     18
                      A                      A                      A
 Frequencies --    469.1663               509.4513               558.1350
 Red. masses --      5.3637                 1.3338                 5.7664
 Frc consts  --      0.6956                 0.2040                 1.0584
 IR Inten    --      8.4912                54.1237                 1.2034

                     19                     20                     21
                      A                      A                      A
 Frequencies --    583.9359               597.4308               606.1586
 Red. masses --      4.0716                 6.6277                 5.2398
 Frc consts  --      0.8180                 1.3938                 1.1343
 IR Inten    --      1.4431                 2.1866                 7.5655

                     22                     23                     24
                      A                      A                      A
 Frequencies --    623.2998               646.0627               713.7686
 Red. masses --      6.4166                 7.5062                 9.5649
 Frc consts  --      1.4688                 1.8460                 2.8711
 IR Inten    --      1.7078                 7.5295                 2.8711

                     25                     26                     27
                      A                      A                      A
 Frequencies --    742.8952               748.8536               758.2542
 Red. masses --      3.7922                 6.0687                 1.6647
 Frc consts  --      1.2331                 2.0051                 0.5639
 IR Inten    --      0.3860                 5.6383                63.7294

                     28                     29                     30
                      A                      A                      A
 Frequencies --    776.5030               810.9571               830.1374
 Red. masses --      3.7593                 6.7248                 5.2440
 Frc consts  --      1.3355                 2.6057                 2.1292
 IR Inten    --      3.4669                10.1047                 3.7460

                     31                     32                     33
                      A                      A                      A
 Frequencies --    857.5060               915.4741               918.8392
 Red. masses --      1.5110                 5.3574                 1.4180
 Frc consts  --      0.6546                 2.6454                 0.7053
 IR Inten    --      0.6844                 5.2043                 8.4187

                     34                     35                     36
                      A                      A                      A
 Frequencies --    933.4467               972.3104               977.3512
 Red. masses --      1.3430                 5.4352                 1.2487
 Frc consts  --      0.6895                 3.0274                 0.7028
 IR Inten    --      0.9907                28.6508                 0.0700

                     37                     38                     39
                      A                      A                      A
 Frequencies --   1036.0042              1038.7510              1068.2588
 Red. masses --      6.2418                 2.0638                 2.0616
 Frc consts  --      3.9471                 1.3120                 1.3861
 IR Inten    --      1.0347                 4.8131                30.9576

                     40                     41                     42
                      A                      A                      A
 Frequencies --   1125.9514              1139.9675              1153.7321
 Red. masses --      2.3977                 3.3085                 2.0607
 Frc consts  --      1.7909                 2.5331                 1.6161
 IR Inten    --      1.1850                86.7855                90.1447

                     43                     44                     45
                      A                      A                      A
 Frequencies --   1160.3737              1163.8776              1193.8468
 Red. masses --      1.3110                 2.2184                 1.2425
 Frc consts  --      1.0400                 1.7705                 1.0434
 IR Inten    --      4.3178                 4.9076                 5.9179

                     46                     47                     48
                      A                      A                      A
 Frequencies --   1236.2307              1258.9015              1311.5314
 Red. masses --      1.8221                 2.6853                 4.1002
 Frc consts  --      1.6407                 2.5075                 4.1554
 IR Inten    --     36.0242                12.0286                 8.5872

                     49                     50                     51
                      A                      A                      A
 Frequencies --   1330.8205              1377.5862              1400.1087
 Red. masses --      2.4267                 4.6027                 4.0059
 Frc consts  --      2.5322                 5.1463                 4.6267
 IR Inten    --      1.0881                30.0469                71.2249

                     52                     53                     54
                      A                      A                      A
 Frequencies --   1423.4191              1453.3780              1471.5237
 Red. masses --      2.9453                 3.3367                 3.5788
 Frc consts  --      3.5160                 4.1526                 4.5659
 IR Inten    --     22.6338               157.5728                24.4899

                     55                     56                     57
                      A                      A                      A
 Frequencies --   1491.5181              1508.3315              1510.3249
 Red. masses --      1.9943                 1.5321                 1.1927
 Frc consts  --      2.6139                 2.0537                 1.6030
 IR Inten    --      4.1116                55.5421                12.9967

                     58                     59                     60
                      A                      A                      A
 Frequencies --   1523.8866              1541.6895              1560.7414
 Red. masses --      1.2388                 2.3101                 4.6008
 Frc consts  --      1.6949                 3.2350                 6.6031
 IR Inten    --     28.7865                 0.0437                79.9202

                     61                     62                     63
                      A                      A                      A
 Frequencies --   1584.8797              1593.1264              1635.9902
 Red. masses --      7.5158                 6.6499                 6.2694
 Frc consts  --     11.1228                 9.9441                 9.8864
 IR Inten    --     45.0551               432.9392                41.7187

                     64                     65                     66
                      A                      A                      A
 Frequencies --   1663.8687              1673.2399              3087.8073
 Red. masses --      1.5452                 6.7932                 1.0337
 Frc consts  --      2.5205                11.2057                 5.8067
 IR Inten    --    356.4217                 2.8549                26.8076

                     67                     68                     69
                      A                      A                      A
 Frequencies --   3160.0253              3183.6524              3190.9425
 Red. masses --      1.1041                 1.1049                 1.0859
 Frc consts  --      6.4958                 6.5981                 6.5144
 IR Inten    --     13.9937                 7.8242                 0.3133

                     70                     71                     72
                      A                      A                      A
 Frequencies --   3202.2436              3212.6235              3222.8401
 Red. masses --      1.0893                 1.0944                 1.0956
 Frc consts  --      6.5815                 6.6553                 6.7050
 IR Inten    --     11.3442                27.1996                18.6193

                     73                     74                     75
                      A                      A                      A
 Frequencies --   3253.9539              3598.1013              3718.7649
 Red. masses --      1.0927                 1.0454                 1.1033
 Frc consts  --      6.8166                 7.9742                 8.9897
 IR Inten    --      0.1223                79.1554                40.2265

 - Thermochemistry -
 -------------------
 Temperature   298.150 Kelvin.  Pressure   1.00000 Atm.
 Atom     1 has atomic number  6 and mass  12.00000

 Molecular mass:   226.09669 amu.
 Principal axes and moments of inertia in atomic units:
                           1         2         3
     Eigenvalues --  1288.214726920.261268192.81273
           X            0.99997  -0.00793   0.00102
           Y            0.00793   0.99997  -0.00103
           Z           -0.00101   0.00104   1.00000
 This molecule is an asymmetric top.
 Rotational symmetry number  1.
 Warning -- assumption of classical behavior for rotation
           may cause significant error
 Rotational temperatures (Kelvin)      0.06724     0.01252     0.01057
 Rotational constants (GHZ):           1.40096     0.26079     0.22028
 Zero-point vibrational energy     547497.7 (Joules/Mol)
                                  130.85509 (Kcal/Mol)
 Warning -- explicit consideration of  21 degrees of freedom as
           vibrations may cause significant error
 Vibrational temperatures:     35.46    85.54   119.27   157.65   188.98
          (Kelvin)            233.46   275.77   383.48   412.07   439.23
                              448.34   462.70   577.58   615.70   631.74
                              675.03   732.99   803.03   840.15   859.57
                              872.13   896.79   929.54  1026.95  1068.86
                             1077.43  1090.96  1117.21  1166.79  1194.38
                             1233.76  1317.16  1322.00  1343.02  1398.94
                             1406.19  1490.58  1494.53  1536.99  1619.99
                             1640.16  1659.96  1669.52  1674.56  1717.68
                             1778.66  1811.28  1887.00  1914.75  1982.04
                             2014.44  2047.98  2091.09  2117.19  2145.96
                             2170.15  2173.02  2192.53  2218.15  2245.56
                             2280.29  2292.15  2353.83  2393.94  2407.42
                             4442.67  4546.57  4580.57  4591.05  4607.31
                             4622.25  4636.95  4681.71  5176.87  5350.47

 Zero-point correction=                           0.208531 (Hartree/Particle)
 Thermal correction to Energy=                    0.222073
 Thermal correction to Enthalpy=                  0.223018
 Thermal correction to Gibbs Free Energy=         0.167250
 Sum of electronic and zero-point Energies=           -753.538066
 Sum of electronic and thermal Energies=              -753.524523
 Sum of electronic and thermal Enthalpies=            -753.523579
 Sum of electronic and thermal Free Energies=         -753.579346

                     E (Thermal)             CV                S
                      KCal/Mol        Cal/Mol-Kelvin    Cal/Mol-Kelvin
 Total                  139.353             52.727            117.372
 Electronic               0.000              0.000              0.000
 Translational            0.889              2.981             42.150
 Rotational               0.889              2.981             32.657
 Vibrational            137.576             46.765             42.565
 Vibration     1          0.593              1.985              6.220
 Vibration     2          0.597              1.974              4.475
 Vibration     3          0.600              1.961              3.821
 Vibration     4          0.606              1.942              3.276
 Vibration     5          0.612              1.922              2.926
 Vibration     6          0.622              1.889              2.523
 Vibration     7          0.634              1.851              2.212
 Vibration     8          0.672              1.735              1.619
 Vibration     9          0.684              1.699              1.495
 Vibration    10          0.696              1.664              1.388
 Vibration    11          0.700              1.652              1.354
 Vibration    12          0.707              1.632              1.302
 Vibration    13          0.767              1.467              0.957
 Vibration    14          0.789              1.409              0.865
 Vibration    15          0.799              1.385              0.829
 Vibration    16          0.826              1.318              0.740
 Vibration    17          0.865              1.229              0.635
 Vibration    18          0.914              1.122              0.528
 Vibration    19          0.941              1.066              0.478
 Vibration    20          0.955              1.037              0.454
 Vibration    21          0.965              1.019              0.439

 Optimization completed.
    -- Stationary point found.
 Normal termination of Gaussian 16 at Mon Dec 14 16:50:37 2020.

 ----------------------------------------------------------------------
 # B3LYP/6-311++G(d,p) empiricaldispersion=gd3bj scf=xqc pop=npa geom=c
 heck
 ----------------------------------------------------------------------

 --------------------------------------
 CID_43134520_JID_7303_Energie_neutraal
 --------------------------------------
 Structure from the checkpoint file:  "JID_7303.chk"
 Charge =  0 Multiplicity = 1

 SCF Done:  E(RB3LYP) =  -753.943087941     A.U. after   15 cycles
 Normal termination of Gaussian 16 at Mon Dec 14 16:54:36 2020.

 ----------------------------------------------------------------------
 # B3LYP/6-311++G(d,p) empiricaldispersion=gd3bj scf=xqc pop=npa geom=c
 heck
 ----------------------------------------------------------------------

 ------------------------------------
 CID_43134520_JID_7303_Energie_kation
 ------------------------------------
 Structure from the checkpoint file:  "JID_7303.chk"
 Charge =  1 Multiplicity = 2

 SCF Done:  E(UB3LYP) =  -753.648706428     A.U. after   33 cycles
 SCF Done:  E(UB3LYP) =  -753.648706432     a.u. after    2 cycles
 Normal termination of Gaussian 16 at Mon Dec 14 17:18:37 2020.
 Gaussian 16:  ES64L-G16RevA.03 25-Dec-2016

 ----------------------------------------------------------------------
 # B3LYP/6-311++G(d,p) empiricaldispersion=gd3bj scf=xqc pop=npa geom=c
 heck
 ----------------------------------------------------------------------

 -----------------------------------
 CID_43134520_JID_7303_Energie_anion
 -----------------------------------
 Structure from the checkpoint file:  "JID_7303.chk"
 Charge = -1 Multiplicity = 2

                         Standard orientation:
 ---------------------------------------------------------------------
 Center     Atomic      Atomic             Coordinates (Angstroms)
 Number     Number       Type             X           Y           Z
 ---------------------------------------------------------------------
      1          6           0        0.232715    2.263087    0.092836
      2          7           0        0.747778    0.901177    0.039066
      3          6           0        2.089182    0.563651    0.011692
      4          6           0        3.256475    1.334226    0.013578
      5          6           0        4.462688    0.644496   -0.015421
      6          6           0        4.512824   -0.767200   -0.046856
      7          6           0        3.354314   -1.529463   -0.050667
      8          6           0        2.123985   -0.854814   -0.021290
      9          7           0        0.843966   -1.356757   -0.017971
     10          6           0        0.048908   -0.298806    0.014347
     11          6           0       -1.406342   -0.426001    0.018057
     12          6           0       -1.993209   -1.707331    0.075126
     13          7           0       -3.312781   -1.860439    0.055159
     14          7           0       -4.097202   -0.787213   -0.005332
     15          6           0       -3.500897    0.422483   -0.036317
     16          7           0       -2.174239    0.661989   -0.041287
     17          7           0       -4.331587    1.504692   -0.037591
     18          1           0        1.072145    2.934404    0.280786
     19          1           0       -0.249274    2.536062   -0.848885
     20          1           0       -0.499299    2.361374    0.893776
     21          1           0        3.234582    2.419241    0.032175
     22          1           0        5.392051    1.206378   -0.016128
     23          1           0        5.480438   -1.259376   -0.069334
     24          1           0        3.379929   -2.613913   -0.075495
     25          1           0       -1.384832   -2.601556    0.124230
     26          1           0       -5.300347    1.322414   -0.257274
     27          1           0       -3.940782    2.384853   -0.338672
 ---------------------------------------------------------------------

 SCF Done:  E(UB3LYP) =  -753.981166983     A.U. after   21 cycles

 The electronic state is 2-A.
 Alpha  occ. eigenvalues --  -14.24010 -14.20473 -14.18288 -14.16687 -14.15531
 Alpha  occ. eigenvalues --  -14.15506 -10.12577 -10.09854 -10.09805 -10.08705
 Alpha  occ. eigenvalues --  -10.06971 -10.06351 -10.06023 -10.05545 -10.05483
 Alpha  occ. eigenvalues --  -10.04964 -10.04910  -0.89301  -0.88124  -0.80506
 Alpha  occ. eigenvalues --   -0.76645  -0.76440  -0.72539  -0.66016  -0.63508
 Alpha  occ. eigenvalues --   -0.61967  -0.59862  -0.55559  -0.51900  -0.48726
 Alpha  occ. eigenvalues --   -0.48113  -0.45725  -0.42305  -0.40098  -0.39303
 Alpha  occ. eigenvalues --   -0.37941  -0.35663  -0.35096  -0.34403  -0.33272
 Alpha  occ. eigenvalues --   -0.32957  -0.31636  -0.30787  -0.29722  -0.28932
 Alpha  occ. eigenvalues --   -0.27524  -0.25244  -0.24149  -0.23206  -0.21417
 Alpha  occ. eigenvalues --   -0.19217  -0.17949  -0.17624  -0.16505  -0.14492
 Alpha  occ. eigenvalues --   -0.11794  -0.11269  -0.09540  -0.07759   0.01825
 Alpha virt. eigenvalues --    0.07328   0.07955   0.08789   0.09853   0.09883
 Alpha virt. eigenvalues --    0.11165   0.11646   0.12003   0.12263   0.12668
 Alpha virt. eigenvalues --    0.12759   0.13890   0.14355   0.15287   0.15844

  Beta  occ. eigenvalues --  -14.23890 -14.20492 -14.17946 -14.16237 -14.15274
  Beta  occ. eigenvalues --  -14.15091 -10.12668 -10.09811 -10.09778 -10.08719
  Beta  occ. eigenvalues --  -10.07024 -10.06015 -10.05970 -10.05531 -10.05432
  Beta  occ. eigenvalues --  -10.05073 -10.04773  -0.89058  -0.87583  -0.80229
  Beta  occ. eigenvalues --   -0.76339  -0.75718  -0.72360  -0.65550  -0.63371
  Beta  occ. eigenvalues --   -0.61669  -0.59711  -0.54854  -0.51813  -0.48573
  Beta  occ. eigenvalues --   -0.47991  -0.45576  -0.42115  -0.39970  -0.39162
  Beta  occ. eigenvalues --   -0.37830  -0.35332  -0.34901  -0.34277  -0.33189
  Beta  occ. eigenvalues --   -0.32833  -0.31584  -0.29798  -0.29517  -0.28572
  Beta  occ. eigenvalues --   -0.27248  -0.25159  -0.24080  -0.22487  -0.20542
  Beta  occ. eigenvalues --   -0.17751  -0.17203  -0.16521  -0.15962  -0.14214
  Beta  occ. eigenvalues --   -0.10892  -0.10483  -0.08499  -0.07212
  Beta virt. eigenvalues --    0.07318   0.07660   0.07953   0.08780   0.09845
  Beta virt. eigenvalues --    0.11118   0.11226   0.11806   0.12088   0.12479
  Beta virt. eigenvalues --    0.12703   0.13158   0.13891   0.14350   0.15357

 Mulliken charges and spin densities:
               1          2
     1  C   -0.387530  -0.002273
     2  N   -0.046564   0.034571
     3  C    0.532242   0.006643
     4  C   -0.410646   0.033170
     5  C   -0.286757   0.077588
     6  C   -0.312417  -0.023538
     7  C   -0.471637   0.103865
     8  C    0.321297  -0.033133
     9  N   -0.029920   0.108836
    10  C   -0.240568   0.027030
    11  C   -0.061359   0.215659
    12  C   -0.493330  -0.055657
    13  N   -0.195341   0.153816
    14  N   -0.156058   0.208202
    15  C    0.109118  -0.042857
    16  N   -0.235253   0.206256
    17  N   -0.290774  -0.005110
    18  H    0.085726  -0.000411
    19  H    0.194902   0.002452
    20  H    0.209581   0.000077
    21  H    0.097936  -0.003953
    22  H    0.124671  -0.005667
    23  H    0.116882   0.001498
    24  H    0.130154  -0.007814
    25  H    0.210134   0.002075
    26  H    0.253536  -0.000674
    27  H    0.231975  -0.000651
 Sum of Mulliken charges =  -1.00000   1.00000

 Dipole moment (field-independent basis, Debye):
    X=              3.9889    Y=              6.4589    Z=             -0.5976  Tot=              7.6148
 Quadrupole moment (field-independent basis, Debye-Ang):
   XX=           -158.2522   YY=           -109.6363   ZZ=           -107.4755
   XY=            -16.0639   XZ=              3.7868   YZ=             -1.3807

 Summary of Natural Population Analysis:

                                       Natural Population
                Natural  -----------------------------------------------
    Atom  No    Charge         Core      Valence    Rydberg      Total
 -----------------------------------------------------------------------
      C    1   -0.17110      0.99965     2.16474    0.00671     3.17110
      N    2   -0.19609      0.99958     2.68587    0.01064     3.69609
      C    3    0.07138      0.99947     1.91977    0.00938     2.92862
      C    4   -0.12168      0.99954     2.11398    0.00817     3.12168
      C    5   -0.09606      0.99959     2.08662    0.00985     3.09606
      C    6   -0.13006      0.99959     2.12101    0.00946     3.13006
      C    7   -0.07746      0.99953     2.06871    0.00922     3.07746
      C    8    0.04342      0.99949     1.94338    0.01370     2.95658
      N    9   -0.21282      0.99968     2.70729    0.00585     3.71282
      C   10    0.21239      0.99959     1.77232    0.01571     2.78761
      C   11    0.12646      0.99952     1.85993    0.01409     2.87354
      C   12   -0.03599      0.99958     2.02271    0.01371     3.03599
      N   13   -0.07364      0.99973     2.55551    0.01839     3.57364
      N   14   -0.12118      0.99968     2.60487    0.01663     3.62118
      C   15    0.25767      0.99966     1.72435    0.01832     2.74233
      N   16   -0.21713      0.99965     2.70348    0.01400     3.71713
      N   17   -0.40744      0.99970     2.89762    0.01013     3.90744
      H   18    0.08891      0.00000     0.41009    0.00100     0.41109
      H   19    0.09923      0.00000     0.39973    0.00104     0.40077
      H   20    0.10838      0.00000     0.39066    0.00096     0.39162
      H   21    0.09505      0.00000     0.40378    0.00117     0.40495
      H   22    0.09047      0.00000     0.40851    0.00102     0.40953
      H   23    0.09229      0.00000     0.40671    0.00100     0.40771
      H   24    0.09770      0.00000     0.40061    0.00169     0.40230
      H   25    0.10100      0.00000     0.39715    0.00185     0.39900
      H   26    0.18970      0.00000     0.30857    0.00173     0.31030
      H   27    0.18688      0.00000     0.31172    0.00141     0.31312
 =======================================================================
   * Total *    0.00028     16.99323    41.78966    0.21683    58.99972

 Normal termination of Gaussian 16 at Mon Dec 14 17:26:48 2020.
