 Gaussian 16, Revision A.03,

 -----------------------------------------------------------
 # opt freq B3LYP/6-31G(d) empiricaldispersion=gd3bj scf=xqc
 -----------------------------------------------------------

 ------------------------------
 CID_77109081_JID_7587_neutraal
 ------------------------------
 Symbolic Z-matrix:
 Charge =  0 Multiplicity = 1

 SCF Done:  E(RB3LYP) =  -1108.99390573     A.U. after   15 cycles
 SCF Done:  E(RB3LYP) =  -1109.00476440     A.U. after   13 cycles
 SCF Done:  E(RB3LYP) =  -1109.00578495     A.U. after   12 cycles
 SCF Done:  E(RB3LYP) =  -1109.00616939     A.U. after   12 cycles
 SCF Done:  E(RB3LYP) =  -1109.00656242     A.U. after   12 cycles
 SCF Done:  E(RB3LYP) =  -1109.00693794     A.U. after   11 cycles
 SCF Done:  E(RB3LYP) =  -1109.00720555     A.U. after   12 cycles
 SCF Done:  E(RB3LYP) =  -1109.00731745     A.U. after   11 cycles
 SCF Done:  E(RB3LYP) =  -1109.00740846     A.U. after   11 cycles
 SCF Done:  E(RB3LYP) =  -1109.00750809     A.U. after   11 cycles
 SCF Done:  E(RB3LYP) =  -1109.00793423     A.U. after   11 cycles
 SCF Done:  E(RB3LYP) =  -1109.00793440     A.U. after    8 cycles
 SCF Done:  E(RB3LYP) =  -1109.00793455     A.U. after    7 cycles
 SCF Done:  E(RB3LYP) =  -1109.00793464     A.U. after    8 cycles
 SCF Done:  E(RB3LYP) =  -1109.00793459     A.U. after    8 cycles
 Optimization completed.
    -- Stationary point found.
 Normal termination of Gaussian 16 at Mon Dec 14 16:47:38 2020.

 --------------------------------------------------------------------
 #N Geom=AllCheck Guess=TCheck SCRF=Check GenChk RB3LYP/6-31G(d) Freq
 --------------------------------------------------------------------

 Structure from the checkpoint file:  "JID_7587.chk"
 ------------------------------
 CID_77109081_JID_7587_neutraal
 ------------------------------
 Charge =  0 Multiplicity = 1

 SCF Done:  E(RB3LYP) =  -1109.00793459     A.U. after    1 cycles

  Exact polarizability: 227.091  41.279 142.720  -6.967  12.800 146.323
 Approx polarizability: 301.663  76.155 222.128  -1.798  38.770 262.689

                      1                      2                      3
                      A                      A                      A
 Frequencies --     15.0407                22.3564                35.2438
 Red. masses --      4.4125                 5.9107                 4.7771
 Frc consts  --      0.0006                 0.0017                 0.0035
 IR Inten    --      0.2751                 0.3232                 1.2489

                      4                      5                      6
                      A                      A                      A
 Frequencies --     54.8275                69.9239                87.2576
 Red. masses --      4.8569                 3.7189                 3.8250
 Frc consts  --      0.0086                 0.0107                 0.0172
 IR Inten    --      3.0981                 1.9712                 1.7128

                      7                      8                      9
                      A                      A                      A
 Frequencies --    101.3402               133.8414               155.4738
 Red. masses --      5.0498                 3.1356                 2.5927
 Frc consts  --      0.0306                 0.0331                 0.0369
 IR Inten    --      0.2894                 6.3330                 2.5427

                     10                     11                     12
                      A                      A                      A
 Frequencies --    170.7591               186.6948               243.2359
 Red. masses --      3.6445                 1.3709                 3.0308
 Frc consts  --      0.0626                 0.0282                 0.1056
 IR Inten    --      1.9116                 0.1320                 1.3507

                     13                     14                     15
                      A                      A                      A
 Frequencies --    266.2050               286.4408               295.0385
 Red. masses --      4.1588                 3.2582                 1.1172
 Frc consts  --      0.1736                 0.1575                 0.0573
 IR Inten    --      3.6729                 1.3360                81.7583

                     16                     17                     18
                      A                      A                      A
 Frequencies --    326.7335               349.5140               381.6366
 Red. masses --      5.5878                 3.2482                 3.0283
 Frc consts  --      0.3515                 0.2338                 0.2599
 IR Inten    --      1.4701                12.2971                 5.6083

                     19                     20                     21
                      A                      A                      A
 Frequencies --    411.7347               443.9997               448.8093
 Red. masses --      2.6893                 2.3788                 1.9318
 Frc consts  --      0.2686                 0.2763                 0.2293
 IR Inten    --      8.9586                 7.6476                 0.7059

                     22                     23                     24
                      A                      A                      A
 Frequencies --    478.0256               523.2700               574.3684
 Red. masses --      4.0112                 4.8382                 3.8326
 Frc consts  --      0.5400                 0.7805                 0.7449
 IR Inten    --      3.9068                 4.0412                 5.5391

                     25                     26                     27
                      A                      A                      A
 Frequencies --    595.9148               649.4700               701.7179
 Red. masses --      5.4229                 5.6664                 1.4230
 Frc consts  --      1.1346                 1.4082                 0.4128
 IR Inten    --     22.9936                12.9353                52.3736

                     28                     29                     30
                      A                      A                      A
 Frequencies --    709.3197               718.3049               747.0699
 Red. masses --      2.9062                 2.9506                 5.8770
 Frc consts  --      0.8615                 0.8970                 1.9325
 IR Inten    --     18.4205                21.6905                 4.1936

                     31                     32                     33
                      A                      A                      A
 Frequencies --    764.2280               802.6946               831.0614
 Red. masses --      4.1946                 1.6797                 1.6929
 Frc consts  --      1.4434                 0.6376                 0.6889
 IR Inten    --      3.2168                 1.9887                12.2930

                     34                     35                     36
                      A                      A                      A
 Frequencies --    838.9763               841.9691               869.1275
 Red. masses --      2.2444                 2.6049                 4.1454
 Frc consts  --      0.9308                 1.0880                 1.8449
 IR Inten    --     10.7335                13.0236                19.7942

                     37                     38                     39
                      A                      A                      A
 Frequencies --    875.7726               881.7478               914.2487
 Red. masses --      2.6465                 2.2834                 1.3306
 Frc consts  --      1.1959                 1.0460                 0.6553
 IR Inten    --     23.9456                 6.8964                 0.0598

                     40                     41                     42
                      A                      A                      A
 Frequencies --    934.8075               944.9462               982.8160
 Red. masses --      2.1568                 1.7555                 2.1115
 Frc consts  --      1.1105                 0.9236                 1.2017
 IR Inten    --      5.8303                16.0001                 6.2246

                     43                     44                     45
                      A                      A                      A
 Frequencies --   1011.6563              1016.9002              1039.0814
 Red. masses --      1.1527                 2.7575                 2.0139
 Frc consts  --      0.6951                 1.6800                 1.2811
 IR Inten    --     30.1515                36.2095                 2.5518

                     46                     47                     48
                      A                      A                      A
 Frequencies --   1071.2892              1088.4743              1112.8631
 Red. masses --      1.7347                 1.3154                 1.2712
 Frc consts  --      1.1729                 0.9182                 0.9275
 IR Inten    --     16.0202                 6.1658                 1.6437

                     49                     50                     51
                      A                      A                      A
 Frequencies --   1126.5187              1129.8692              1153.0120
 Red. masses --      2.1196                 2.0215                 1.9254
 Frc consts  --      1.5848                 1.5205                 1.5081
 IR Inten    --      4.9202                59.1445                62.2297

                     52                     53                     54
                      A                      A                      A
 Frequencies --   1157.5587              1168.3546              1213.7602
 Red. masses --      1.5501                 1.7047                 1.9021
 Frc consts  --      1.2237                 1.3710                 1.6510
 IR Inten    --     39.3211                10.5328                73.1698

                     55                     56                     57
                      A                      A                      A
 Frequencies --   1232.0986              1272.3974              1280.1346
 Red. masses --      1.5859                 1.3014                 1.5779
 Frc consts  --      1.4184                 1.2414                 1.5235
 IR Inten    --     15.1081                20.3404                 7.5256

                     58                     59                     60
                      A                      A                      A
 Frequencies --   1281.8085              1283.2765              1288.5821
 Red. masses --      1.5149                 1.6960                 2.1519
 Frc consts  --      1.4665                 1.6456                 2.1052
 IR Inten    --     42.7910                68.3888                17.0159

                     61                     62                     63
                      A                      A                      A
 Frequencies --   1307.0034              1311.4722              1337.6405
 Red. masses --      1.5893                 1.5311                 1.4925
 Frc consts  --      1.5996                 1.5515                 1.5734
 IR Inten    --     63.3528                 7.1804                26.9794

                     64                     65                     66
                      A                      A                      A
 Frequencies --   1360.7153              1384.9031              1409.2781
 Red. masses --      1.4482                 1.4459                 2.3838
 Frc consts  --      1.5798                 1.6339                 2.7895
 IR Inten    --      2.4823                34.6917                 9.9807

                     67                     68                     69
                      A                      A                      A
 Frequencies --   1416.3926              1436.1701              1449.9887
 Red. masses --      1.3760                 2.0405                 1.2396
 Frc consts  --      1.6264                 2.4797                 1.5356
 IR Inten    --     12.3422               254.3533                63.9260

                     70                     71                     72
                      A                      A                      A
 Frequencies --   1476.8333              1482.8349              1491.0505
 Red. masses --      1.4277                 3.3701                 1.0914
 Frc consts  --      1.8346                 4.3660                 1.4296
 IR Inten    --     41.0218                16.9653                 2.7221

                     73                     74                     75
                      A                      A                      A
 Frequencies --   1509.0367              1511.8805              1518.4544
 Red. masses --      1.0740                 1.1193                 1.1179
 Frc consts  --      1.4410                 1.5074                 1.5187
 IR Inten    --      7.5083                18.7046                 2.0517

                     76                     77                     78
                      A                      A                      A
 Frequencies --   1543.2494              1586.9571              1686.2391
 Red. masses --      1.0944                 4.9569                 5.8926
 Frc consts  --      1.5357                 7.3552                 9.8718
 IR Inten    --     29.5511                 1.2137                66.6245

                     79                     80                     81
                      A                      A                      A
 Frequencies --   1734.0596              3032.4546              3050.2118
 Red. masses --      9.6742                 1.0732                 1.0596
 Frc consts  --     17.1393                 5.8148                 5.8084
 IR Inten    --    290.3449                12.4737                16.1027

                     82                     83                     84
                      A                      A                      A
 Frequencies --   3052.2990              3058.3664              3065.9818
 Red. masses --      1.0663                 1.0606                 1.0608
 Frc consts  --      5.8532                 5.8448                 5.8754
 IR Inten    --     48.6877                42.1289                22.7944

                     85                     86                     87
                      A                      A                      A
 Frequencies --   3111.2228              3116.0788              3118.8269
 Red. masses --      1.0921                 1.0984                 1.1039
 Frc consts  --      6.2284                 6.2837                 6.3264
 IR Inten    --     41.9483                15.9014                13.9949

                     88                     89                     90
                      A                      A                      A
 Frequencies --   3123.6579              3161.0204              3169.1910
 Red. masses --      1.1033                 1.0902                 1.0891
 Frc consts  --      6.3424                 6.4182                 6.4449
 IR Inten    --     60.6881                14.1528                 4.5361

                     91                     92                     93
                      A                      A                      A
 Frequencies --   3173.1907              3201.5339              3221.3796
 Red. masses --      1.1014                 1.0886                 1.0883
 Frc consts  --      6.5342                 6.5741                 6.6542
 IR Inten    --     10.4387                 6.9452                 7.0604

                     94                     95                     96
                      A                      A                      A
 Frequencies --   3235.2190              3274.7528              3726.9049
 Red. masses --      1.0955                 1.0967                 1.0658
 Frc consts  --      6.7560                 6.9296                 8.7225
 IR Inten    --      5.8363                 0.6598                 5.0108

 - Thermochemistry -
 -------------------
 Temperature   298.150 Kelvin.  Pressure   1.00000 Atm.
 Atom     1 has atomic number  6 and mass  12.00000

 Molecular mass:   251.09800 amu.
 Principal axes and moments of inertia in atomic units:
                           1         2         3
     Eigenvalues --  2705.91979********************
           X            0.99995   0.00167  -0.01017
           Y           -0.00185   0.99984  -0.01763
           Z            0.01014   0.01765   0.99979
 This molecule is an asymmetric top.
 Rotational symmetry number  1.
 Warning -- assumption of classical behavior for rotation
           may cause significant error
 Rotational temperatures (Kelvin)      0.03201     0.00840     0.00740
 Rotational constants (GHZ):           0.66696     0.17496     0.15409
 Zero-point vibrational energy     738335.5 (Joules/Mol)
                                  176.46641 (Kcal/Mol)
 Warning -- explicit consideration of  25 degrees of freedom as
           vibrations may cause significant error
 Vibrational temperatures:     21.64    32.17    50.71    78.88   100.60
          (Kelvin)            125.54   145.81   192.57   223.69   245.68
                              268.61   349.96   383.01   412.12   424.49
                              470.10   502.87   549.09   592.39   638.82
                              645.74   687.77   752.87   826.39   857.39
                              934.44  1009.62  1020.55  1033.48  1074.87
                             1099.55  1154.90  1195.71  1207.10  1211.41
                             1250.48  1260.04  1268.64  1315.40  1344.98
                             1359.57  1414.05  1455.55  1463.09  1495.01
                             1541.35  1566.07  1601.16  1620.81  1625.63
                             1658.93  1665.47  1681.00  1746.33  1772.72
                             1830.70  1841.83  1844.24  1846.35  1853.98
                             1880.49  1886.92  1924.57  1957.77  1992.57
                             2027.64  2037.87  2066.33  2086.21  2124.83
                             2133.47  2145.29  2171.17  2175.26  2184.72
                             2220.39  2283.28  2426.12  2494.93  4363.03
                             4388.57  4391.58  4400.31  4411.26  4476.36
                             4483.34  4487.30  4494.25  4548.00  4559.76
                             4565.51  4606.29  4634.85  4654.76  4711.64
                             5362.18

 Zero-point correction=                           0.281217 (Hartree/Particle)
 Thermal correction to Energy=                    0.298623
 Thermal correction to Enthalpy=                  0.299567
 Thermal correction to Gibbs Free Energy=         0.232521
 Sum of electronic and zero-point Energies=          -1108.726717
 Sum of electronic and thermal Energies=             -1108.709312
 Sum of electronic and thermal Enthalpies=           -1108.708367
 Sum of electronic and thermal Free Energies=        -1108.775413

                     E (Thermal)             CV                S
                      KCal/Mol        Cal/Mol-Kelvin    Cal/Mol-Kelvin
 Total                  187.389             64.319            141.109
 Electronic               0.000              0.000              0.000
 Translational            0.889              2.981             42.462
 Rotational               0.889              2.981             34.146
 Vibrational            185.611             58.358             64.501
 Vibration     1          0.593              1.986              7.200
 Vibration     2          0.593              1.985              6.413
 Vibration     3          0.594              1.982              5.510
 Vibration     4          0.596              1.976              4.635
 Vibration     5          0.598              1.968              4.155
 Vibration     6          0.601              1.958              3.721
 Vibration     7          0.604              1.948              3.428
 Vibration     8          0.613              1.920              2.890
 Vibration     9          0.620              1.897              2.604
 Vibration    10          0.626              1.878              2.427
 Vibration    11          0.632              1.858              2.260
 Vibration    12          0.659              1.774              1.779
 Vibration    13          0.672              1.735              1.621
 Vibration    14          0.684              1.699              1.495
 Vibration    15          0.689              1.683              1.445
 Vibration    16          0.710              1.622              1.276
 Vibration    17          0.727              1.576              1.168
 Vibration    18          0.751              1.509              1.033
 Vibration    19          0.776              1.445              0.921
 Vibration    20          0.804              1.374              0.814
 Vibration    21          0.808              1.364              0.799
 Vibration    22          0.835              1.299              0.715
 Vibration    23          0.878              1.198              0.602
 Vibration    24          0.931              1.087              0.496
 Vibration    25          0.954              1.040              0.457

                           ! Non-Optimized Parameters !
 Normal termination of Gaussian 16 at Mon Dec 14 16:58:41 2020.

 ----------------------------------------------------------------------
 # B3LYP/6-311++G(d,p) empiricaldispersion=gd3bj scf=xqc pop=npa geom=c
 heck
 ----------------------------------------------------------------------

 --------------------------------------
 CID_77109081_JID_7587_Energie_neutraal
 --------------------------------------
 Structure from the checkpoint file:  "JID_7587.chk"
 Charge =  0 Multiplicity = 1

 SCF Done:  E(RB3LYP) =  -1109.24185435     A.U. after   16 cycles
 Normal termination of Gaussian 16 at Mon Dec 14 17:04:58 2020.

 ----------------------------------------------------------------------
 # B3LYP/6-311++G(d,p) empiricaldispersion=gd3bj scf=xqc pop=npa geom=c
 heck
 ----------------------------------------------------------------------

 ------------------------------------
 CID_77109081_JID_7587_Energie_kation
 ------------------------------------
 Structure from the checkpoint file:  "JID_7587.chk"
 Charge =  1 Multiplicity = 2

 SCF Done:  E(UB3LYP) =  -1108.95073729     A.U. after   33 cycles
 SCF Done:  E(UB3LYP) =  -1108.95073729     a.u. after    1 cycles
 Normal termination of Gaussian 16 at Mon Dec 14 17:24:12 2020.
 Gaussian 16:  ES64L-G16RevA.03 25-Dec-2016

 ----------------------------------------------------------------------
 # B3LYP/6-311++G(d,p) empiricaldispersion=gd3bj scf=xqc pop=npa geom=c
 heck
 ----------------------------------------------------------------------

 -----------------------------------
 CID_77109081_JID_7587_Energie_anion
 -----------------------------------
 Structure from the checkpoint file:  "JID_7587.chk"
 Charge = -1 Multiplicity = 2

                         Standard orientation:
 ---------------------------------------------------------------------
 Center     Atomic      Atomic             Coordinates (Angstroms)
 Number     Number       Type             X           Y           Z
 ---------------------------------------------------------------------
      1          6           0        2.260730    2.435784   -0.921656
      2          7           0        1.191518    1.511760   -0.555759
      3          6           0        1.443088    0.092145   -0.805848
      4          6           0        2.564949   -0.508678    0.038284
      5          6           0        4.054289   -0.227229   -0.319873
      6          6           0        4.373193   -1.729391   -0.087067
      7          6           0        2.849266   -2.023451   -0.171027
      8          8           0        4.973267   -2.029458    1.160544
      9          6           0        0.321018    1.963604    0.416695
     10          8           0        0.481083    3.049240    0.972279
     11          6           0       -0.889401    1.159868    0.745396
     12          6           0       -1.698826    0.594089   -0.169719
     13          6           0       -2.972142   -0.042061    0.106779
     14          6           0       -3.667150   -0.173968    1.291560
     15          6           0       -4.889899   -0.884255    1.153487
     16          6           0       -5.128212   -1.292623   -0.133581
     17         16           0       -3.854599   -0.809402   -1.199801
     18          1           0        2.683793    2.120279   -1.879530
     19          1           0        3.061366    2.467655   -0.172494
     20          1           0        1.847785    3.440597   -1.013019
     21          1           0        0.527797   -0.464489   -0.607365
     22          1           0        1.678528   -0.034992   -1.871608
     23          1           0        2.361931   -0.284824    1.093204
     24          1           0        4.611148    0.482162    0.300275
     25          1           0        4.172585    0.058469   -1.371258
     26          1           0        5.007212   -2.217742   -0.831061
     27          1           0        2.550402   -2.355734   -1.172557
     28          1           0        2.452023   -2.729485    0.565202
     29          1           0        4.450447   -1.599996    1.856428
     30          1           0       -1.179646    1.214666    1.790777
     31          1           0       -1.395785    0.622308   -1.214881
     32          1           0       -3.312219    0.234861    2.230736
     33          1           0       -5.568370   -1.082239    1.975719
     34          1           0       -5.976273   -1.844639   -0.514608
 ---------------------------------------------------------------------

 SCF Done:  E(UB3LYP) =  -1109.25859708     A.U. after   31 cycles

 The electronic state is 2-A.
 Alpha  occ. eigenvalues --  -88.72463 -19.05227 -18.93812 -14.20985 -10.14460
 Alpha  occ. eigenvalues --  -10.11808 -10.09731 -10.08812 -10.08666 -10.08637
 Alpha  occ. eigenvalues --  -10.08603 -10.05072 -10.04800 -10.04007 -10.02059
 Alpha  occ. eigenvalues --  -10.01950 -10.00466  -7.81167  -5.77453  -5.77108
 Alpha  occ. eigenvalues --   -5.76785  -0.95454  -0.89439  -0.80794  -0.75554
 Alpha  occ. eigenvalues --   -0.73670  -0.64688  -0.62996  -0.59518  -0.59099
 Alpha  occ. eigenvalues --   -0.58571  -0.56239  -0.54462  -0.48206  -0.47494
 Alpha  occ. eigenvalues --   -0.43076  -0.42348  -0.41650  -0.40046  -0.39037
 Alpha  occ. eigenvalues --   -0.37641  -0.36573  -0.35460  -0.34154  -0.33110
 Alpha  occ. eigenvalues --   -0.32718  -0.30677  -0.30050  -0.29229  -0.28669
 Alpha  occ. eigenvalues --   -0.28118  -0.26900  -0.25907  -0.25232  -0.24744
 Alpha  occ. eigenvalues --   -0.24244  -0.23819  -0.22973  -0.22021  -0.21089
 Alpha  occ. eigenvalues --   -0.20232  -0.19199  -0.15844  -0.12636  -0.11864
 Alpha  occ. eigenvalues --   -0.11302  -0.07623   0.03960
 Alpha virt. eigenvalues --    0.06153   0.07103   0.08184   0.08706   0.09118
 Alpha virt. eigenvalues --    0.10411   0.10509   0.10916   0.11207   0.11536
 Alpha virt. eigenvalues --    0.12044   0.12506   0.13240   0.13610   0.14180

  Beta  occ. eigenvalues --  -88.72399 -19.05226 -18.93588 -14.20952 -10.14460
  Beta  occ. eigenvalues --  -10.11723 -10.09730 -10.08807 -10.08668 -10.08635
  Beta  occ. eigenvalues --  -10.08602 -10.04992 -10.04515 -10.04108 -10.01817
  Beta  occ. eigenvalues --  -10.01732 -10.00169  -7.81110  -5.77422  -5.77078
  Beta  occ. eigenvalues --   -5.76581  -0.95452  -0.89098  -0.80641  -0.75532
  Beta  occ. eigenvalues --   -0.73376  -0.64097  -0.62935  -0.59303  -0.58820
  Beta  occ. eigenvalues --   -0.58505  -0.55934  -0.54361  -0.47971  -0.46971
  Beta  occ. eigenvalues --   -0.42968  -0.42175  -0.41562  -0.39998  -0.38717
  Beta  occ. eigenvalues --   -0.37581  -0.36401  -0.35299  -0.34028  -0.33082
  Beta  occ. eigenvalues --   -0.32584  -0.30660  -0.30011  -0.29128  -0.28533
  Beta  occ. eigenvalues --   -0.28004  -0.26671  -0.25638  -0.25189  -0.24144
  Beta  occ. eigenvalues --   -0.23677  -0.23388  -0.22803  -0.21967  -0.20816
  Beta  occ. eigenvalues --   -0.19999  -0.19193  -0.14202  -0.12297  -0.10999
  Beta  occ. eigenvalues --   -0.10745  -0.05812
  Beta virt. eigenvalues --    0.06101   0.07007   0.08123   0.08664   0.09028
  Beta virt. eigenvalues --    0.09607   0.10361   0.10453   0.10853   0.11183
  Beta virt. eigenvalues --    0.11532   0.11997   0.12714   0.13461   0.13800

 Mulliken charges and spin densities:
               1          2
     1  C   -0.293472  -0.002155
     2  N    0.176619  -0.006465
     3  C   -0.720977   0.068616
     4  C    0.608600  -0.081661
     5  C   -0.464063  -0.007371
     6  C   -0.311156  -0.026251
     7  C   -0.572783  -0.012065
     8  O   -0.188895   0.001025
     9  C   -0.663379   0.083762
    10  O   -0.353695   0.071564
    11  C   -0.115809   0.286000
    12  C   -0.463638   0.101669
    13  C   -0.049869   0.016622
    14  C    1.376846   0.217838
    15  C   -1.164530  -0.054197
    16  C    0.261347   0.186803
    17  S   -0.605951   0.100625
    18  H    0.095931   0.012912
    19  H    0.160169   0.002707
    20  H    0.189147  -0.001592
    21  H    0.076824  -0.004692
    22  H    0.157723  -0.001329
    23  H    0.164310   0.050716
    24  H    0.176391   0.000305
    25  H    0.102167   0.011042
    26  H    0.172346   0.015889
    27  H    0.108340   0.003451
    28  H    0.175412   0.014239
    29  H    0.237924   0.007830
    30  H    0.164407  -0.012919
    31  H    0.176978  -0.020289
    32  H    0.114920  -0.013259
    33  H    0.084109   0.004964
    34  H    0.187709  -0.014334
 Sum of Mulliken charges =  -1.00000   1.00000

 Dipole moment (field-independent basis, Debye):
    X=              6.5961    Y=             -3.4504    Z=             -2.5517  Tot=              7.8692
 Quadrupole moment (field-independent basis, Debye-Ang):
   XX=           -174.9343   YY=           -145.6350   ZZ=           -117.8458
   XY=              3.7550   XZ=             -5.9340   YZ=             -4.8710

 Summary of Natural Population Analysis:

                                       Natural Population
                Natural  -----------------------------------------------
    Atom  No    Charge         Core      Valence    Rydberg      Total
 -----------------------------------------------------------------------
      C    1   -0.17822      0.99966     2.17113    0.00743     3.17822
      N    2   -0.26319      0.99965     2.75327    0.01027     3.76319
      C    3   -0.08431      0.99958     2.07235    0.01238     3.08431
      C    4   -0.11930      0.99961     2.10895    0.01074     3.11930
      C    5   -0.20324      0.99962     2.19681    0.00681     3.20324
      C    6    0.06543      0.99959     1.92136    0.01362     2.93457
      C    7   -0.20083      0.99962     2.19433    0.00688     3.20083
      O    8   -0.36860      0.99990     3.36207    0.00663     4.36860
      C    9    0.34222      0.99962     1.63447    0.02368     2.65778
      O   10   -0.31142      0.99988     3.30544    0.00610     4.31142
      C   11   -0.08349      0.99950     2.07486    0.00913     3.08349
      C   12   -0.06466      0.99950     2.05594    0.00922     3.06466
      C   13   -0.09263      0.99949     2.08095    0.01219     3.09263
      C   14   -0.08811      0.99948     2.07966    0.00896     3.08811
      C   15   -0.15655      0.99955     2.14704    0.00996     3.15655
      C   16   -0.15678      0.99956     2.14505    0.01217     3.15678
      S   17    0.20078      4.99942     2.77637    0.02343     7.79922
      H   18    0.08525      0.00000     0.41375    0.00100     0.41475
      H   19    0.08647      0.00000     0.41208    0.00146     0.41353
      H   20    0.10746      0.00000     0.39146    0.00108     0.39254
      H   21    0.11938      0.00000     0.37952    0.00109     0.38062
      H   22    0.08471      0.00000     0.41430    0.00098     0.41529
      H   23    0.10035      0.00000     0.39740    0.00225     0.39965
      H   24    0.10076      0.00000     0.39823    0.00101     0.39924
      H   25    0.09956      0.00000     0.39935    0.00109     0.40044
      H   26    0.08004      0.00000     0.41824    0.00172     0.41996
      H   27    0.09946      0.00000     0.39955    0.00100     0.40054
      H   28    0.10224      0.00000     0.39686    0.00090     0.39776
      H   29    0.22560      0.00000     0.27193    0.00247     0.27440
      H   30    0.09393      0.00000     0.40462    0.00145     0.40607
      H   31    0.08712      0.00000     0.41115    0.00174     0.41288
      H   32    0.09908      0.00000     0.39988    0.00104     0.40092
      H   33    0.09591      0.00000     0.40299    0.00110     0.40409
      H   34    0.09557      0.00000     0.40339    0.00105     0.40443
 =======================================================================
   * Total *   -0.00000     20.99324    45.79472    0.21204    67.00000

 Normal termination of Gaussian 16 at Mon Dec 14 17:43:10 2020.
