 Gaussian 16, Revision A.03,

 -----------------------------------------------------------
 # opt freq B3LYP/6-31G(d) empiricaldispersion=gd3bj scf=xqc
 -----------------------------------------------------------

 ------------------------------
 CID_84105336_JID_5751_neutraal
 ------------------------------
 Symbolic Z-matrix:
 Charge =  0 Multiplicity = 1

 SCF Done:  E(RB3LYP) =  -1047.58289414     A.U. after   16 cycles
 SCF Done:  E(RB3LYP) =  -1047.58743807     A.U. after   14 cycles
 SCF Done:  E(RB3LYP) =  -1047.58431814     A.U. after   15 cycles
 SCF Done:  E(RB3LYP) =  -1047.58796270     A.U. after   14 cycles
 SCF Done:  E(RB3LYP) =  -1047.58805264     A.U. after   12 cycles
 SCF Done:  E(RB3LYP) =  -1047.58806578     A.U. after   12 cycles
 SCF Done:  E(RB3LYP) =  -1047.58807395     A.U. after   12 cycles
 SCF Done:  E(RB3LYP) =  -1047.58808276     A.U. after   12 cycles
 SCF Done:  E(RB3LYP) =  -1047.58808302     A.U. after    8 cycles
 SCF Done:  E(RB3LYP) =  -1047.58808282     A.U. after    8 cycles
 Optimization completed.
    -- Stationary point found.
 Normal termination of Gaussian 16 at Thu Dec 10 16:44:14 2020.

 --------------------------------------------------------------------
 #N Geom=AllCheck Guess=TCheck SCRF=Check GenChk RB3LYP/6-31G(d) Freq
 --------------------------------------------------------------------

 Structure from the checkpoint file:  "JID_5751.chk"
 ------------------------------
 CID_84105336_JID_5751_neutraal
 ------------------------------
 Charge =  0 Multiplicity = 1

 SCF Done:  E(RB3LYP) =  -1047.58808282     A.U. after    1 cycles

  Exact polarizability: 196.735   1.884 104.189  -1.351  13.209 128.505
 Approx polarizability: 278.251   1.735 160.107  -5.282  46.115 248.901

                      1                      2                      3
                      A                      A                      A
 Frequencies --     28.2963                56.7265                69.1851
 Red. masses --      5.5551                 6.0211                 4.0550
 Frc consts  --      0.0026                 0.0114                 0.0114
 IR Inten    --      0.2553                 0.1690                 0.2731

                      4                      5                      6
                      A                      A                      A
 Frequencies --     95.2321               129.9786               156.4836
 Red. masses --     10.4967                 4.4115                 6.4757
 Frc consts  --      0.0561                 0.0439                 0.0934
 IR Inten    --      0.1973                 1.1308                 2.2428

                      7                      8                      9
                      A                      A                      A
 Frequencies --    188.4587               221.8076               231.8789
 Red. masses --      2.8772                 5.2351                 1.3197
 Frc consts  --      0.0602                 0.1518                 0.0418
 IR Inten    --      0.2062                 0.5800                25.8558

                     10                     11                     12
                      A                      A                      A
 Frequencies --    264.0028               307.6132               333.1725
 Red. masses --      2.4847                 4.8923                 1.8218
 Frc consts  --      0.1020                 0.2728                 0.1191
 IR Inten    --      9.5114                 1.6753                 0.3092

                     13                     14                     15
                      A                      A                      A
 Frequencies --    382.6001               399.4846               424.7884
 Red. masses --      3.8161                 3.1368                 3.6480
 Frc consts  --      0.3291                 0.2949                 0.3878
 IR Inten    --      6.2100                 2.2439                 1.5066

                     16                     17                     18
                      A                      A                      A
 Frequencies --    437.9364               475.5810               510.1705
 Red. masses --      3.8276                 4.1776                 3.7002
 Frc consts  --      0.4325                 0.5567                 0.5674
 IR Inten    --      4.3306                 0.8111                 5.7335

                     19                     20                     21
                      A                      A                      A
 Frequencies --    518.7791               552.7440               613.5463
 Red. masses --      5.7654                 2.0440                 3.9571
 Frc consts  --      0.9142                 0.3679                 0.8777
 IR Inten    --      0.2764                 1.7091                 3.0186

                     22                     23                     24
                      A                      A                      A
 Frequencies --    678.7494               695.6043               744.1841
 Red. masses --     10.1532                 3.5937                 8.1416
 Frc consts  --      2.7560                 1.0245                 2.6566
 IR Inten    --      3.0046                 0.8589                21.5791

                     25                     26                     27
                      A                      A                      A
 Frequencies --    770.8657               803.7655               821.5697
 Red. masses --      4.0756                 2.1191                 1.5771
 Frc consts  --      1.4269                 0.8066                 0.6272
 IR Inten    --      1.0892                 8.1019                25.0274

                     28                     29                     30
                      A                      A                      A
 Frequencies --    822.6707               849.4911               875.2300
 Red. masses --      5.0576                 1.7389                 2.0243
 Frc consts  --      2.0167                 0.7393                 0.9136
 IR Inten    --     19.6095                34.0895                29.6220

                     31                     32                     33
                      A                      A                      A
 Frequencies --    898.2028               905.6043               919.3672
 Red. masses --      1.5110                 1.7643                 1.4275
 Frc consts  --      0.7182                 0.8525                 0.7109
 IR Inten    --     42.9882                37.1519                 0.4736

                     34                     35                     36
                      A                      A                      A
 Frequencies --    968.1245               974.4076              1049.0702
 Red. masses --      2.3330                 1.8116                 1.7754
 Frc consts  --      1.2883                 1.0134                 1.1512
 IR Inten    --      3.8575                12.6220                 3.1033

                     37                     38                     39
                      A                      A                      A
 Frequencies --   1056.0516              1064.8498              1090.5845
 Red. masses --      1.4858                 1.5609                 1.6365
 Frc consts  --      0.9763                 1.0428                 1.1468
 IR Inten    --     33.4557                 9.7200                 2.1270

                     40                     41                     42
                      A                      A                      A
 Frequencies --   1108.6766              1127.7889              1150.9892
 Red. masses --      2.2583                 2.2278                 1.7111
 Frc consts  --      1.6355                 1.6695                 1.3356
 IR Inten    --      5.1849                 4.3804                19.5563

                     43                     44                     45
                      A                      A                      A
 Frequencies --   1163.9168              1201.2177              1210.1679
 Red. masses --      4.9254                 2.3486                 2.4200
 Frc consts  --      3.9313                 1.9967                 2.0881
 IR Inten    --      2.5389                 7.9487                18.9139

                     46                     47                     48
                      A                      A                      A
 Frequencies --   1233.7766              1251.8572              1282.6320
 Red. masses --      1.4143                 1.4483                 1.3619
 Frc consts  --      1.2684                 1.3373                 1.3201
 IR Inten    --      0.2372                 0.3521                 5.3335

                     49                     50                     51
                      A                      A                      A
 Frequencies --   1309.9494              1333.0588              1342.7567
 Red. masses --      1.3244                 1.3188                 1.4354
 Frc consts  --      1.3390                 1.3807                 1.5248
 IR Inten    --      6.2646                 0.2845                15.1549

                     52                     53                     54
                      A                      A                      A
 Frequencies --   1373.3304              1381.7311              1390.0360
 Red. masses --      1.3012                 1.6165                 1.4336
 Frc consts  --      1.4459                 1.8184                 1.6320
 IR Inten    --      0.7885                80.2709                43.2202

                     55                     56                     57
                      A                      A                      A
 Frequencies --   1394.5434              1400.3407              1402.1369
 Red. masses --      2.7442                 1.9713                 1.4976
 Frc consts  --      3.1443                 2.2775                 1.7347
 IR Inten    --    326.8217               135.3463                 7.8978

                     58                     59                     60
                      A                      A                      A
 Frequencies --   1418.3561              1438.4152              1501.7831
 Red. masses --      2.0081                 1.4529                 7.5367
 Frc consts  --      2.3802                 1.7712                10.0149
 IR Inten    --     35.8840                 5.9752               122.6898

                     61                     62                     63
                      A                      A                      A
 Frequencies --   1511.5617              1515.6016              1518.9825
 Red. masses --      1.0957                 1.0934                 1.0821
 Frc consts  --      1.4750                 1.4798                 1.4710
 IR Inten    --      1.1310                 3.0086                 8.9217

                     64                     65                     66
                      A                      A                      A
 Frequencies --   1532.1837              1591.8326              1617.0921
 Red. masses --      1.1015                 6.4890                11.0252
 Frc consts  --      1.5235                 9.6877                16.9866
 IR Inten    --      0.9899                36.0804               158.2747

                     67                     68                     69
                      A                      A                      A
 Frequencies --   1695.0498              3004.1413              3011.5253
 Red. masses --      1.0915                 1.0812                 1.0690
 Frc consts  --      1.8478                 5.7490                 5.7123
 IR Inten    --     30.3641                 3.7434                11.0736

                     70                     71                     72
                      A                      A                      A
 Frequencies --   3025.9792              3027.8151              3032.7561
 Red. masses --      1.0773                 1.0723                 1.0637
 Frc consts  --      5.8119                 5.7922                 5.7641
 IR Inten    --     28.1499                18.1362                22.7509

                     73                     74                     75
                      A                      A                      A
 Frequencies --   3041.8607              3067.7199              3081.7404
 Red. masses --      1.0647                 1.0974                 1.0950
 Frc consts  --      5.8046                 6.0848                 6.1271
 IR Inten    --     40.9703                50.8745                58.8264

                     76                     77                     78
                      A                      A                      A
 Frequencies --   3084.7862              3092.4814              3222.3603
 Red. masses --      1.0995                 1.1015                 1.0922
 Frc consts  --      6.1647                 6.2067                 6.6821
 IR Inten    --     46.1710                39.1371                 6.9150

                     79                     80                     81
                      A                      A                      A
 Frequencies --   3265.4399              3453.0499              3542.0639
 Red. masses --      1.0955                 1.0499                 1.0917
 Frc consts  --      6.8827                 7.3756                 8.0696
 IR Inten    --      0.5268                 1.1011                 0.0859

 - Thermochemistry -
 -------------------
 Temperature   298.150 Kelvin.  Pressure   1.00000 Atm.
 Atom     1 has atomic number  6 and mass  12.00000

 Molecular mass:   226.07760 amu.
 Principal axes and moments of inertia in atomic units:
                           1         2         3
     Eigenvalues --  1348.748846818.947886897.37450
           X            0.99996   0.00635   0.00679
           Y           -0.00537   0.99067  -0.13615
           Z           -0.00759   0.13611   0.99066
 This molecule is an asymmetric top.
 Rotational symmetry number  1.
 Warning -- assumption of classical behavior for rotation
           may cause significant error
 Rotational temperatures (Kelvin)      0.06422     0.01270     0.01256
 Rotational constants (GHZ):           1.33809     0.26467     0.26166
 Zero-point vibrational energy     626486.4 (Joules/Mol)
                                  149.73384 (Kcal/Mol)
 Warning -- explicit consideration of  21 degrees of freedom as
           vibrations may cause significant error
 Vibrational temperatures:     40.71    81.62    99.54   137.02   187.01
          (Kelvin)            225.14   271.15   319.13   333.62   379.84
                              442.59   479.36   550.48   574.77   611.18
                              630.09   684.26   734.02   746.41   795.28
                              882.76   976.57  1000.82  1070.72  1109.10
                             1156.44  1182.06  1183.64  1222.23  1259.26
                             1292.31  1302.96  1322.76  1392.92  1401.96
                             1509.38  1519.42  1532.08  1569.11  1595.14
                             1622.64  1656.02  1674.62  1728.28  1741.16
                             1775.13  1801.14  1845.42  1884.73  1917.97
                             1931.93  1975.92  1988.00  1999.95  2006.44
                             2014.78  2017.36  2040.70  2069.56  2160.73
                             2174.80  2180.61  2185.48  2204.47  2290.29
                             2326.63  2438.80  4322.29  4332.91  4353.71
                             4356.35  4363.46  4376.56  4413.76  4433.94
                             4438.32  4449.39  4636.26  4698.24  4968.17
                             5096.24

 Zero-point correction=                           0.238616 (Hartree/Particle)
 Thermal correction to Energy=                    0.252485
 Thermal correction to Enthalpy=                  0.253430
 Thermal correction to Gibbs Free Energy=         0.196879
 Sum of electronic and zero-point Energies=          -1047.349467
 Sum of electronic and thermal Energies=             -1047.335597
 Sum of electronic and thermal Enthalpies=           -1047.334653
 Sum of electronic and thermal Free Energies=        -1047.391203

                     E (Thermal)             CV                S
                      KCal/Mol        Cal/Mol-Kelvin    Cal/Mol-Kelvin
 Total                  158.437             53.119            119.020
 Electronic               0.000              0.000              0.000
 Translational            0.889              2.981             42.149
 Rotational               0.889              2.981             32.517
 Vibrational            156.660             47.158             44.354
 Vibration     1          0.593              1.984              5.945
 Vibration     2          0.596              1.975              4.568
 Vibration     3          0.598              1.969              4.176
 Vibration     4          0.603              1.953              3.550
 Vibration     5          0.612              1.923              2.946
 Vibration     6          0.620              1.895              2.592
 Vibration     7          0.633              1.856              2.243
 Vibration     8          0.648              1.808              1.944
 Vibration     9          0.653              1.792              1.864
 Vibration    10          0.671              1.739              1.635
 Vibration    11          0.697              1.659              1.375
 Vibration    12          0.715              1.609              1.245
 Vibration    13          0.752              1.507              1.029
 Vibration    14          0.766              1.471              0.965
 Vibration    15          0.787              1.416              0.876
 Vibration    16          0.798              1.387              0.833
 Vibration    17          0.832              1.304              0.722
 Vibration    18          0.865              1.227              0.633
 Vibration    19          0.874              1.208              0.613
 Vibration    20          0.908              1.134              0.539
 Vibration    21          0.973              1.003              0.427

 Optimization completed.
    -- Stationary point found.
 Normal termination of Gaussian 16 at Thu Dec 10 16:54:06 2020.

 ----------------------------------------------------------------------
 # B3LYP/6-311++G(d,p) empiricaldispersion=gd3bj scf=xqc pop=npa geom=c
 heck
 ----------------------------------------------------------------------

 --------------------------------------
 CID_84105336_JID_5751_Energie_neutraal
 --------------------------------------
 Structure from the checkpoint file:  "JID_5751.chk"
 Charge =  0 Multiplicity = 1

 SCF Done:  E(RB3LYP) =  -1047.80301924     A.U. after   16 cycles
 Normal termination of Gaussian 16 at Thu Dec 10 17:03:45 2020.

 ----------------------------------------------------------------------
 # B3LYP/6-311++G(d,p) empiricaldispersion=gd3bj scf=xqc pop=npa geom=c
 heck
 ----------------------------------------------------------------------

 ------------------------------------
 CID_84105336_JID_5751_Energie_kation
 ------------------------------------
 Structure from the checkpoint file:  "JID_5751.chk"
 Charge =  1 Multiplicity = 2

 SCF Done:  E(UB3LYP) =  -1047.48725219     A.U. after   29 cycles
 Normal termination of Gaussian 16 at Thu Dec 10 17:31:28 2020.
 Gaussian 16:  ES64L-G16RevA.03 25-Dec-2016

 ----------------------------------------------------------------------
 # B3LYP/6-311++G(d,p) empiricaldispersion=gd3bj scf=xqc pop=npa geom=c
 heck
 ----------------------------------------------------------------------

 -----------------------------------
 CID_84105336_JID_5751_Energie_anion
 -----------------------------------
 Structure from the checkpoint file:  "JID_5751.chk"
 Charge = -1 Multiplicity = 2

                         Standard orientation:
 ---------------------------------------------------------------------
 Center     Atomic      Atomic             Coordinates (Angstroms)
 Number     Number       Type             X           Y           Z
 ---------------------------------------------------------------------
      1          6           0       -3.502165   -1.475629    0.590624
      2          6           0       -4.092489   -0.690649   -0.585986
      3          6           0       -3.597107    0.760635   -0.576489
      4          6           0       -2.061849    0.860662   -0.578932
      5          6           0       -1.470015    0.063162    0.606301
      6          6           0       -1.972057   -1.398688    0.592972
      7          6           0        0.027494    0.139626    0.656161
      8          6           0        0.809506    0.588175    1.697807
      9          6           0        2.200234    0.509703    1.437857
     10          6           0        2.444314   -0.006035    0.190764
     11         16           0        0.997687   -0.403324   -0.685648
     12          7           0        3.724355   -0.228314   -0.401618
     13          8           0        3.745615   -0.707321   -1.541831
     14          8           0        4.720608    0.070522    0.262116
     15          7           0       -1.537392    2.227370   -0.552473
     16          1           0       -3.888164   -1.063126    1.533966
     17          1           0       -3.821313   -2.523844    0.552454
     18          1           0       -5.188116   -0.718468   -0.556238
     19          1           0       -3.791506   -1.170198   -1.528368
     20          1           0       -3.976414    1.273034    0.321168
     21          1           0       -3.992796    1.309368   -1.441127
     22          1           0       -1.689597    0.399654   -1.505811
     23          1           0       -1.834078    0.534913    1.532382
     24          1           0       -1.555186   -1.930404    1.455618
     25          1           0       -1.578015   -1.899108   -0.302303
     26          1           0        0.388487    0.969830    2.621417
     27          1           0        2.991795    0.810087    2.111663
     28          1           0       -1.881371    2.741965   -1.361905
     29          1           0       -1.900448    2.714713    0.267340
 ---------------------------------------------------------------------

 SCF Done:  E(UB3LYP) =  -1047.83707468     A.U. after   20 cycles

 The electronic state is 2-A.
 Alpha  occ. eigenvalues --  -88.72220 -18.93291 -18.93253 -14.31424 -14.20005
 Alpha  occ. eigenvalues --  -10.10392 -10.08915 -10.08403 -10.08365 -10.07736
 Alpha  occ. eigenvalues --  -10.07041 -10.06422 -10.04952 -10.03248 -10.01721
 Alpha  occ. eigenvalues --   -7.80861  -5.77159  -5.76808  -5.76448  -1.01310
 Alpha  occ. eigenvalues --   -0.84142  -0.80259  -0.74228  -0.72895  -0.66667
 Alpha  occ. eigenvalues --   -0.63893  -0.60708  -0.58791  -0.53855  -0.51833
 Alpha  occ. eigenvalues --   -0.49481  -0.46965  -0.41725  -0.39254  -0.38641
 Alpha  occ. eigenvalues --   -0.38509  -0.36905  -0.35855  -0.34000  -0.33888
 Alpha  occ. eigenvalues --   -0.32857  -0.31760  -0.30760  -0.29734  -0.29589
 Alpha  occ. eigenvalues --   -0.27178  -0.26330  -0.25780  -0.24423  -0.23931
 Alpha  occ. eigenvalues --   -0.23325  -0.22065  -0.21260  -0.19756  -0.14870
 Alpha  occ. eigenvalues --   -0.12719  -0.11276  -0.11005  -0.09175  -0.09135
 Alpha  occ. eigenvalues --    0.03268
 Alpha virt. eigenvalues --    0.05709   0.07044   0.07394   0.08562   0.09917
 Alpha virt. eigenvalues --    0.10263   0.10803   0.11140   0.12094   0.12708
 Alpha virt. eigenvalues --    0.13516   0.13829   0.14157   0.14565   0.14984

  Beta  occ. eigenvalues --  -88.72179 -18.92815 -18.92786 -14.30809 -14.20004
  Beta  occ. eigenvalues --  -10.10370 -10.08916 -10.08404 -10.08363 -10.07761
  Beta  occ. eigenvalues --  -10.07016 -10.06396 -10.04600 -10.03371 -10.01450
  Beta  occ. eigenvalues --   -7.80825  -5.77143  -5.76792  -5.76308  -1.00275
  Beta  occ. eigenvalues --   -0.83250  -0.80232  -0.74014  -0.72792  -0.66512
  Beta  occ. eigenvalues --   -0.63827  -0.60204  -0.58430  -0.53501  -0.51744
  Beta  occ. eigenvalues --   -0.49143  -0.46811  -0.41565  -0.39219  -0.38506
  Beta  occ. eigenvalues --   -0.38196  -0.36764  -0.35339  -0.33964  -0.32788
  Beta  occ. eigenvalues --   -0.31704  -0.30944  -0.30096  -0.29592  -0.29465
  Beta  occ. eigenvalues --   -0.27056  -0.26280  -0.25754  -0.24363  -0.23594
  Beta  occ. eigenvalues --   -0.23157  -0.21845  -0.20767  -0.19546  -0.14846
  Beta  occ. eigenvalues --   -0.10824  -0.10747  -0.08925  -0.08665  -0.07567
  Beta virt. eigenvalues --    0.05693   0.07018   0.07369   0.08529   0.09873
  Beta virt. eigenvalues --    0.10122   0.10291   0.10781   0.11140   0.12085
  Beta virt. eigenvalues --    0.12687   0.13539   0.13863   0.14341   0.14852

 Mulliken charges and spin densities:
               1          2
     1  C   -0.467999   0.003097
     2  C   -0.355302  -0.003285
     3  C   -0.346357  -0.003865
     4  C   -0.746393  -0.004222
     5  C    0.081550  -0.012917
     6  C   -0.465631   0.000667
     7  C    0.499900   0.177284
     8  C    0.062780  -0.057441
     9  C    0.198096   0.276157
    10  C   -0.917375  -0.067546
    11  S    0.060105   0.117681
    12  N   -0.158104   0.203701
    13  O   -0.275507   0.182293
    14  O   -0.176126   0.183530
    15  N   -0.187949   0.000293
    16  H    0.103812   0.000087
    17  H    0.158979   0.002910
    18  H    0.153170   0.000128
    19  H    0.107873  -0.000025
    20  H    0.125629  -0.000279
    21  H    0.129850   0.003485
    22  H    0.211317   0.003246
    23  H    0.160841   0.000949
    24  H    0.186885   0.000675
    25  H    0.136790   0.000792
    26  H    0.105932   0.006234
    27  H    0.196879  -0.016763
    28  H    0.210760   0.002544
    29  H    0.205593   0.000593
 Sum of Mulliken charges =  -1.00000   1.00000

 Dipole moment (field-independent basis, Debye):
    X=            -16.3051    Y=              1.2018    Z=              1.9427  Tot=             16.4643
 Quadrupole moment (field-independent basis, Debye-Ang):
   XX=           -173.8746   YY=           -104.8070   ZZ=           -107.9234
   XY=              1.4791   XZ=              8.7305   YZ=             -2.0281

 Summary of Natural Population Analysis:

                                       Natural Population
                Natural  -----------------------------------------------
    Atom  No    Charge         Core      Valence    Rydberg      Total
 -----------------------------------------------------------------------
      C    1   -0.18869      0.99963     2.18208    0.00698     3.18869
      C    2   -0.19070      0.99964     2.18383    0.00724     3.19070
      C    3   -0.19504      0.99961     2.18673    0.00870     3.19504
      C    4   -0.00838      0.99957     1.99742    0.01139     3.00838
      C    5   -0.12546      0.99953     2.11401    0.01193     3.12546
      C    6   -0.18265      0.99962     2.17472    0.00831     3.18265
      C    7   -0.02940      0.99949     2.01533    0.01458     3.02940
      C    8   -0.16394      0.99948     2.15489    0.00957     3.16394
      C    9   -0.06719      0.99949     2.05689    0.01081     3.06719
      C   10   -0.04009      0.99942     2.02221    0.01845     3.04009
      S   11    0.22045      4.99935     2.75797    0.02222     7.77955
      N   12    0.29374      0.99966     2.17980    0.02680     3.20626
      O   13   -0.19922      0.99990     3.19182    0.00750     4.19922
      O   14   -0.19743      0.99990     3.19010    0.00743     4.19743
      N   15   -0.40739      0.99977     2.89706    0.01056     3.90739
      H   16    0.08953      0.00000     0.40918    0.00129     0.41047
      H   17    0.09544      0.00000     0.40339    0.00117     0.40456
      H   18    0.09335      0.00000     0.40537    0.00128     0.40665
      H   19    0.09338      0.00000     0.40529    0.00133     0.40662
      H   20    0.08940      0.00000     0.40919    0.00140     0.41060
      H   21    0.09413      0.00000     0.40463    0.00124     0.40587
      H   22    0.09194      0.00000     0.40619    0.00187     0.40806
      H   23    0.09440      0.00000     0.40388    0.00172     0.40560
      H   24    0.10289      0.00000     0.39600    0.00112     0.39711
      H   25    0.09828      0.00000     0.40026    0.00145     0.40172
      H   26    0.09397      0.00000     0.40478    0.00125     0.40603
      H   27    0.10947      0.00000     0.38938    0.00115     0.39053
      H   28    0.16859      0.00000     0.32984    0.00157     0.33141
      H   29    0.16663      0.00000     0.33169    0.00168     0.33337
 =======================================================================
   * Total *   -0.00000     18.99405    40.80395    0.20199    60.00000

 Normal termination of Gaussian 16 at Thu Dec 10 17:40:59 2020.
