 Gaussian 16, Revision A.03,

 -----------------------------------------------------------
 # opt freq B3LYP/6-31G(d) empiricaldispersion=gd3bj scf=xqc
 -----------------------------------------------------------

 -------------------------------
 CID_131156222_JID_1937_neutraal
 -------------------------------
 Symbolic Z-matrix:
 Charge =  0 Multiplicity = 1

 SCF Done:  E(RB3LYP) =  -448.513437795     A.U. after   13 cycles
 SCF Done:  E(RB3LYP) =  -448.516428049     A.U. after   10 cycles
 SCF Done:  E(RB3LYP) =  -448.516754894     A.U. after   10 cycles
 SCF Done:  E(RB3LYP) =  -448.516884256     A.U. after   10 cycles
 SCF Done:  E(RB3LYP) =  -448.516948122     A.U. after    9 cycles
 SCF Done:  E(RB3LYP) =  -448.516988069     A.U. after    9 cycles
 SCF Done:  E(RB3LYP) =  -448.517002176     A.U. after    9 cycles
 SCF Done:  E(RB3LYP) =  -448.517011286     A.U. after    9 cycles
 SCF Done:  E(RB3LYP) =  -448.517016280     A.U. after    9 cycles
 SCF Done:  E(RB3LYP) =  -448.517018653     A.U. after    7 cycles
 SCF Done:  E(RB3LYP) =  -448.517019089     A.U. after    7 cycles
 Optimization completed.
    -- Stationary point found.
 Normal termination of Gaussian 16 at Tue Dec  8 21:49:43 2020.

 --------------------------------------------------------------------
 #N Geom=AllCheck Guess=TCheck SCRF=Check GenChk RB3LYP/6-31G(d) Freq
 --------------------------------------------------------------------

 Structure from the checkpoint file:  "JID_1937.chk"
 -------------------------------
 CID_131156222_JID_1937_neutraal
 -------------------------------
 Charge =  0 Multiplicity = 1

 SCF Done:  E(RB3LYP) =  -448.517019089     A.U. after    1 cycles

  Exact polarizability: 125.584   0.544 107.167  -0.483   0.021  96.922
 Approx polarizability: 154.341   0.822 144.966   0.755   0.757 149.140

                      1                      2                      3
                      A                      A                      A
 Frequencies --     28.7087                67.7363               103.1961
 Red. masses --      2.5682                 2.5707                 3.0754
 Frc consts  --      0.0012                 0.0069                 0.0193
 IR Inten    --      0.1055                 0.0046                 0.3298

                      4                      5                      6
                      A                      A                      A
 Frequencies --    152.8006               191.1859               207.2833
 Red. masses --      2.6976                 2.0958                 1.2225
 Frc consts  --      0.0371                 0.0451                 0.0309
 IR Inten    --      0.6193                 0.3155                 0.0104

                      7                      8                      9
                      A                      A                      A
 Frequencies --    233.2799               245.6068               253.8078
 Red. masses --      1.1415                 1.7199                 1.0909
 Frc consts  --      0.0366                 0.0611                 0.0414
 IR Inten    --      0.3057                 0.4292                 0.4038

                     10                     11                     12
                      A                      A                      A
 Frequencies --    269.8634               280.0093               321.1533
 Red. masses --      1.4158                 2.1788                 2.2829
 Frc consts  --      0.0607                 0.1006                 0.1387
 IR Inten    --      0.2756                 0.7205                 1.3709

                     13                     14                     15
                      A                      A                      A
 Frequencies --    372.3682               381.7804               411.6128
 Red. masses --      2.2100                 1.9888                 2.4231
 Frc consts  --      0.1805                 0.1708                 0.2419
 IR Inten    --      0.3862                 0.7422                 2.3000

                     16                     17                     18
                      A                      A                      A
 Frequencies --    444.4792               469.6438               562.5068
 Red. masses --      2.2778                 2.0584                 3.2059
 Frc consts  --      0.2651                 0.2675                 0.5977
 IR Inten    --      1.1374                 7.6554                 1.1141

                     19                     20                     21
                      A                      A                      A
 Frequencies --    601.8134               680.8116               709.0759
 Red. masses --      2.2503                 1.8751                 2.4484
 Frc consts  --      0.4802                 0.5121                 0.7253
 IR Inten    --      1.3924                68.0215                 5.4189

                     22                     23                     24
                      A                      A                      A
 Frequencies --    788.3208               819.4792               854.0354
 Red. masses --      3.0687                 1.9633                 2.1956
 Frc consts  --      1.1236                 0.7768                 0.9435
 IR Inten    --      7.4662                 1.2698                16.1677

                     25                     26                     27
                      A                      A                      A
 Frequencies --    864.1906               890.1156               933.2915
 Red. masses --      2.1683                 2.0669                 1.2618
 Frc consts  --      0.9541                 0.9649                 0.6476
 IR Inten    --      9.1200                 1.8906                 1.7935

                     28                     29                     30
                      A                      A                      A
 Frequencies --    951.2257               952.0506               967.9490
 Red. masses --      1.3853                 1.3863                 1.6973
 Frc consts  --      0.7385                 0.7403                 0.9370
 IR Inten    --      1.1033                 2.3429                 1.1306

                     31                     32                     33
                      A                      A                      A
 Frequencies --    977.2247               995.5925              1043.5755
 Red. masses --      1.9173                 2.0446                 1.3962
 Frc consts  --      1.0787                 1.1940                 0.8959
 IR Inten    --      0.3305                 3.9825                 2.7080

                     34                     35                     36
                      A                      A                      A
 Frequencies --   1068.3871              1074.9017              1106.6377
 Red. masses --      1.4276                 1.4438                 1.8933
 Frc consts  --      0.9601                 0.9829                 1.3661
 IR Inten    --      2.7040                 1.9043                 4.5979

                     37                     38                     39
                      A                      A                      A
 Frequencies --   1120.5719              1149.1525              1167.8320
 Red. masses --      2.1001                 2.0603                 2.4249
 Frc consts  --      1.5537                 1.6030                 1.9485
 IR Inten    --      3.2906                10.9091                33.8668

                     40                     41                     42
                      A                      A                      A
 Frequencies --   1191.8725              1210.2337              1215.5064
 Red. masses --      2.7260                 1.9879                 1.7331
 Frc consts  --      2.2815                 1.7155                 1.5087
 IR Inten    --      6.5086                68.2258                 1.1211

                     43                     44                     45
                      A                      A                      A
 Frequencies --   1226.0862              1247.2620              1287.0989
 Red. masses --      1.8320                 1.5927                 1.4589
 Frc consts  --      1.6226                 1.4598                 1.4239
 IR Inten    --      0.6244                 0.5919                 2.8341

                     46                     47                     48
                      A                      A                      A
 Frequencies --   1326.0068              1335.0870              1341.1375
 Red. masses --      1.2704                 1.2585                 1.3064
 Frc consts  --      1.3160                 1.3216                 1.3845
 IR Inten    --      1.1066                 9.9009                 3.1062

                     49                     50                     51
                      A                      A                      A
 Frequencies --   1351.4155              1365.0447              1367.1267
 Red. masses --      1.3365                 1.4734                 1.3800
 Frc consts  --      1.4382                 1.6175                 1.5196
 IR Inten    --      2.1951                 3.2695                 5.1488

                     52                     53                     54
                      A                      A                      A
 Frequencies --   1389.3784              1396.3684              1419.7281
 Red. masses --      1.4149                 1.3640                 1.2189
 Frc consts  --      1.6092                 1.5670                 1.4475
 IR Inten    --      2.4812                 0.6108                 7.3646

                     55                     56                     57
                      A                      A                      A
 Frequencies --   1423.2543              1431.7869              1441.0065
 Red. masses --      1.2728                 1.2616                 1.2592
 Frc consts  --      1.5190                 1.5238                 1.5406
 IR Inten    --      5.1751                 5.8646                 8.2413

                     58                     59                     60
                      A                      A                      A
 Frequencies --   1445.6709              1510.5973              1514.0943
 Red. masses --      1.2932                 1.1334                 1.0518
 Frc consts  --      1.5924                 1.5238                 1.4206
 IR Inten    --     15.5340                17.7360                 0.8439

                     61                     62                     63
                      A                      A                      A
 Frequencies --   1517.6690              1519.3527              1523.5105
 Red. masses --      1.0615                 1.0725                 1.0592
 Frc consts  --      1.4406                 1.4587                 1.4485
 IR Inten    --      2.7008                 5.3445                 9.4506

                     64                     65                     66
                      A                      A                      A
 Frequencies --   1531.9197              1534.7174              1536.4880
 Red. masses --      1.0589                 1.0478                 1.0860
 Frc consts  --      1.4642                 1.4540                 1.5105
 IR Inten    --      7.0928                 8.6952                 0.9639

                     67                     68                     69
                      A                      A                      A
 Frequencies --   1538.4755              1541.7949              1546.2459
 Red. masses --      1.0533                 1.0854                 1.0988
 Frc consts  --      1.4688                 1.5201                 1.5478
 IR Inten    --      4.3124                12.0077                 7.1253

                     70                     71                     72
                      A                      A                      A
 Frequencies --   3024.5431              3031.5618              3037.7147
 Red. masses --      1.0845                 1.0823                 1.0484
 Frc consts  --      5.8453                 5.8603                 5.7000
 IR Inten    --      1.3800                 9.0770                33.6172

                     73                     74                     75
                      A                      A                      A
 Frequencies --   3038.5481              3040.5153              3044.5350
 Red. masses --      1.0574                 1.0433                 1.0429
 Frc consts  --      5.7522                 5.6825                 5.6958
 IR Inten    --     11.9249                 8.1686                28.7940

                     76                     77                     78
                      A                      A                      A
 Frequencies --   3047.2829              3049.5164              3053.2036
 Red. masses --      1.0718                 1.0611                 1.0477
 Frc consts  --      5.8638                 5.8138                 5.7544
 IR Inten    --     36.9951                 8.7488                60.7914

                     79                     80                     81
                      A                      A                      A
 Frequencies --   3063.1625              3087.6479              3097.5092
 Red. masses --      1.0837                 1.0962                 1.1014
 Frc consts  --      5.9912                 6.1573                 6.2261
 IR Inten    --     45.3141                38.4395                 2.6191

                     82                     83                     84
                      A                      A                      A
 Frequencies --   3097.7323              3101.9279              3107.9066
 Red. masses --      1.1013                 1.1007                 1.0984
 Frc consts  --      6.2266                 6.2400                 6.2508
 IR Inten    --     22.9472               111.7222                98.0404

                     85                     86                     87
                      A                      A                      A
 Frequencies --   3113.5964              3121.1798              3136.6367
 Red. masses --      1.1011                 1.1009                 1.1016
 Frc consts  --      6.2892                 6.3190                 6.3858
 IR Inten    --     29.6247                26.3197                26.9628

                     88                     89                     90
                      A                      A                      A
 Frequencies --   3137.5256              3138.9299              3511.6318
 Red. masses --      1.0997                 1.0983                 1.0730
 Frc consts  --      6.3783                 6.3761                 7.7958
 IR Inten    --     26.5402                31.6170                 0.3670

 - Thermochemistry -
 -------------------
 Temperature   298.150 Kelvin.  Pressure   1.00000 Atm.
 Atom     1 has atomic number  6 and mass  12.00000

 Molecular mass:   155.16740 amu.
 Principal axes and moments of inertia in atomic units:
                           1         2         3
     Eigenvalues --  1082.711602493.100013039.31464
           X            0.99999   0.00511   0.00170
           Y           -0.00512   0.99998   0.00433
           Z           -0.00167  -0.00434   0.99999
 This molecule is an asymmetric top.
 Rotational symmetry number  1.
 Warning -- assumption of classical behavior for rotation
           may cause significant error
 Rotational temperatures (Kelvin)      0.08000     0.03474     0.02850
 Rotational constants (GHZ):           1.66687     0.72389     0.59380
 Zero-point vibrational energy     789666.9 (Joules/Mol)
                                  188.73493 (Kcal/Mol)
 Warning -- explicit consideration of  19 degrees of freedom as
           vibrations may cause significant error
 Vibrational temperatures:     41.31    97.46   148.48   219.85   275.07
          (Kelvin)            298.23   335.64   353.37   365.17   388.27
                              402.87   462.07   535.75   549.30   592.22
                              639.51   675.71   809.32   865.88   979.54
                             1020.20  1134.22  1179.05  1228.77  1243.38
                             1280.68  1342.80  1368.60  1369.79  1392.66
                             1406.01  1432.44  1501.47  1537.17  1546.54
                             1592.20  1612.25  1653.37  1680.25  1714.84
                             1741.26  1748.84  1764.06  1794.53  1851.85
                             1907.83  1920.89  1929.60  1944.39  1963.99
                             1966.99  1999.01  2009.06  2042.67  2047.75
                             2060.02  2073.29  2080.00  2173.41  2178.44
                             2183.59  2186.01  2191.99  2204.09  2208.12
                             2210.66  2213.52  2218.30  2224.70  4351.64
                             4361.74  4370.59  4371.79  4374.62  4380.41
                             4384.36  4387.57  4392.88  4407.21  4442.44
                             4456.62  4456.95  4462.98  4471.58  4479.77
                             4490.68  4512.92  4514.20  4516.22  5052.45

 Zero-point correction=                           0.300768 (Hartree/Particle)
 Thermal correction to Energy=                    0.313611
 Thermal correction to Enthalpy=                  0.314555
 Thermal correction to Gibbs Free Energy=         0.262083
 Sum of electronic and zero-point Energies=           -448.216251
 Sum of electronic and thermal Energies=              -448.203408
 Sum of electronic and thermal Enthalpies=            -448.202464
 Sum of electronic and thermal Free Energies=         -448.254936

                     E (Thermal)             CV                S
                      KCal/Mol        Cal/Mol-Kelvin    Cal/Mol-Kelvin
 Total                  196.794             49.532            110.437
 Electronic               0.000              0.000              0.000
 Translational            0.889              2.981             41.028
 Rotational               0.889              2.981             30.485
 Vibrational            195.016             43.570             38.925
 Vibration     1          0.593              1.984              5.917
 Vibration     2          0.598              1.970              4.218
 Vibration     3          0.605              1.947              3.393
 Vibration     4          0.619              1.900              2.637
 Vibration     5          0.634              1.852              2.216
 Vibration     6          0.641              1.829              2.067
 Vibration     7          0.654              1.790              1.854
 Vibration     8          0.660              1.770              1.762
 Vibration     9          0.665              1.756              1.704
 Vibration    10          0.674              1.729              1.597
 Vibration    11          0.680              1.711              1.534
 Vibration    12          0.707              1.633              1.304
 Vibration    13          0.744              1.529              1.070
 Vibration    14          0.751              1.509              1.032
 Vibration    15          0.776              1.445              0.921
 Vibration    16          0.804              1.373              0.813
 Vibration    17          0.827              1.317              0.739
 Vibration    18          0.918              1.112              0.519
 Vibration    19          0.960              1.028              0.447

                           ! Non-Optimized Parameters !
 Normal termination of Gaussian 16 at Tue Dec  8 21:57:15 2020.

 ----------------------------------------------------------------------
 # B3LYP/6-311++G(d,p) empiricaldispersion=gd3bj scf=xqc pop=npa geom=c
 heck
 ----------------------------------------------------------------------

 ---------------------------------------
 CID_131156222_JID_1937_Energie_neutraal
 ---------------------------------------
 Structure from the checkpoint file:  "JID_1937.chk"
 Charge =  0 Multiplicity = 1

 SCF Done:  E(RB3LYP) =  -448.643615717     A.U. after   13 cycles
 Normal termination of Gaussian 16 at Tue Dec  8 22:00:09 2020.

 ----------------------------------------------------------------------
 # B3LYP/6-311++G(d,p) empiricaldispersion=gd3bj scf=xqc pop=npa geom=c
 heck
 ----------------------------------------------------------------------

 -------------------------------------
 CID_131156222_JID_1937_Energie_kation
 -------------------------------------
 Structure from the checkpoint file:  "JID_1937.chk"
 Charge =  1 Multiplicity = 2

 SCF Done:  E(UB3LYP) =  -448.355942990     A.U. after   18 cycles
 Normal termination of Gaussian 16 at Tue Dec  8 22:05:05 2020.
 Gaussian 16:  ES64L-G16RevA.03 25-Dec-2016

 ----------------------------------------------------------------------
 # B3LYP/6-311++G(d,p) empiricaldispersion=gd3bj scf=xqc pop=npa geom=c
 heck
 ----------------------------------------------------------------------

 ------------------------------------
 CID_131156222_JID_1937_Energie_anion
 ------------------------------------
 Structure from the checkpoint file:  "JID_1937.chk"
 Charge = -1 Multiplicity = 2

                         Standard orientation:
 ---------------------------------------------------------------------
 Center     Atomic      Atomic             Coordinates (Angstroms)
 Number     Number       Type             X           Y           Z
 ---------------------------------------------------------------------
      1          6           0        1.289131    2.131367    0.726945
      2          6           0        1.431071    1.147849   -0.437194
      3          6           0        2.723375    0.294445   -0.343312
      4          6           0        2.296455   -1.151804   -0.659470
      5          6           0        0.862861   -1.254721   -0.113050
      6          6           0        0.254234    0.110211   -0.563946
      7          7           0       -0.978268    0.587213    0.041830
      8          6           0       -2.255111    0.070963   -0.452160
      9          6           0       -2.567021   -1.393144   -0.092445
     10          6           0       -3.371661    0.994309    0.045627
     11          6           0        0.829129   -1.475663    1.402634
     12          1           0        0.355613    2.695145    0.649514
     13          1           0        2.126809    2.838612    0.730898
     14          1           0        1.294564    1.616520    1.696196
     15          1           0        1.446917    1.741821   -1.358970
     16          1           0        3.512044    0.651763   -1.013477
     17          1           0        3.130467    0.348939    0.673966
     18          1           0        2.973623   -1.900062   -0.232078
     19          1           0        2.283336   -1.310018   -1.745929
     20          1           0        0.329997   -2.085614   -0.590118
     21          1           0        0.035679    0.007432   -1.634723
     22          1           0       -0.940338    0.530257    1.056585
     23          1           0       -2.208094    0.149512   -1.547356
     24          1           0       -2.613907   -1.518971    0.996999
     25          1           0       -3.536425   -1.699430   -0.504059
     26          1           0       -1.806541   -2.076513   -0.479766
     27          1           0       -3.170380    2.028752   -0.246950
     28          1           0       -4.345611    0.692191   -0.355251
     29          1           0       -3.439582    0.958890    1.141261
     30          1           0       -0.198340   -1.502138    1.781334
     31          1           0        1.298895   -2.431365    1.661418
     32          1           0        1.364378   -0.689083    1.945909
 ---------------------------------------------------------------------

 SCF Done:  E(UB3LYP) =  -448.626213344     A.U. after   26 cycles

 The electronic state is 2-A.
 Alpha  occ. eigenvalues --  -14.18376 -10.09323 -10.08443 -10.06059 -10.05920
 Alpha  occ. eigenvalues --  -10.05467 -10.05440 -10.05278 -10.05152 -10.04921
 Alpha  occ. eigenvalues --  -10.04889  -0.80274  -0.72659  -0.65740  -0.65001
 Alpha  occ. eigenvalues --   -0.60307  -0.58054  -0.56296  -0.53306  -0.48204
 Alpha  occ. eigenvalues --   -0.44917  -0.43965  -0.39563  -0.37028  -0.35287
 Alpha  occ. eigenvalues --   -0.33742  -0.32342  -0.31343  -0.31202  -0.29992
 Alpha  occ. eigenvalues --   -0.29519  -0.28710  -0.27855  -0.27349  -0.26863
 Alpha  occ. eigenvalues --   -0.24467  -0.24293  -0.22887  -0.21976  -0.21785
 Alpha  occ. eigenvalues --   -0.21160  -0.20327  -0.20143  -0.10973   0.04743
 Alpha virt. eigenvalues --    0.06990   0.07355   0.07526   0.09181   0.09208
 Alpha virt. eigenvalues --    0.09471   0.10131   0.10217   0.11496   0.11766
 Alpha virt. eigenvalues --    0.12021   0.12300   0.12759   0.13382   0.14509

  Beta  occ. eigenvalues --  -14.18368 -10.09309 -10.08436 -10.06049 -10.05909
  Beta  occ. eigenvalues --  -10.05450 -10.05424 -10.05252 -10.05121 -10.04904
  Beta  occ. eigenvalues --  -10.04854  -0.80254  -0.72626  -0.65705  -0.64969
  Beta  occ. eigenvalues --   -0.60266  -0.57992  -0.56248  -0.53253  -0.48139
  Beta  occ. eigenvalues --   -0.44860  -0.43926  -0.39511  -0.36990  -0.35252
  Beta  occ. eigenvalues --   -0.33699  -0.32303  -0.31307  -0.31171  -0.29951
  Beta  occ. eigenvalues --   -0.29482  -0.28675  -0.27823  -0.27318  -0.26828
  Beta  occ. eigenvalues --   -0.24434  -0.24259  -0.22833  -0.21942  -0.21753
  Beta  occ. eigenvalues --   -0.21128  -0.20295  -0.20110  -0.10958
  Beta virt. eigenvalues --    0.06856   0.07745   0.08023   0.08209   0.09580
  Beta virt. eigenvalues --    0.09710   0.09972   0.10556   0.10747   0.11850
  Beta virt. eigenvalues --    0.12140   0.12492   0.12632   0.13120   0.13801

 Mulliken charges and spin densities:
               1          2
     1  C   -0.026909  -0.747151
     2  C   -0.421826   0.828268
     3  C    0.392757  -0.920696
     4  C   -0.297199  -0.202632
     5  C   -1.014335   1.652841
     6  C    0.695265  -1.568260
     7  N    0.177060  -0.001610
     8  C   -1.423479   1.447765
     9  C    1.237773  -1.722283
    10  C    0.503898  -1.017729
    11  C    1.171928  -1.944478
    12  H    0.118224   0.030691
    13  H   -0.271388   0.408063
    14  H   -0.047089   0.182676
    15  H   -0.175424   0.367593
    16  H   -0.146795   0.296765
    17  H    0.085287   0.051718
    18  H   -0.149665   0.307896
    19  H   -0.275307   0.409478
    20  H   -0.094100   0.306338
    21  H    0.046408   0.133046
    22  H    0.396595  -0.157560
    23  H   -0.204361   0.324799
    24  H   -0.120754   0.263551
    25  H   -0.283524   0.424630
    26  H   -0.118107   0.260137
    27  H   -0.065207   0.221658
    28  H   -0.145224   0.276118
    29  H   -0.182772   0.309804
    30  H    0.006555   0.091635
    31  H   -0.426617   0.577869
    32  H    0.058332   0.109061
 Sum of Mulliken charges =  -1.00000   1.00000

 Dipole moment (field-independent basis, Debye):
    X=              0.7447    Y=              1.5847    Z=              1.0830  Tot=              2.0588
 Quadrupole moment (field-independent basis, Debye-Ang):
   XX=           -135.7993   YY=           -119.5394   ZZ=           -108.6398
   XY=             -1.9350   XZ=              0.9757   YZ=              2.0250

 Summary of Natural Population Analysis:

                                       Natural Population
                Natural  -----------------------------------------------
    Atom  No    Charge         Core      Valence    Rydberg      Total
 -----------------------------------------------------------------------
      C    1   -0.28519      0.99964     2.28028    0.00526     3.28519
      C    2   -0.11173      0.99960     2.10060    0.01153     3.11173
      C    3   -0.19062      0.99962     2.18247    0.00853     3.19062
      C    4   -0.18816      0.99962     2.17984    0.00869     3.18816
      C    5   -0.11968      0.99958     2.10911    0.01098     3.11968
      C    6   -0.00029      0.99955     1.98658    0.01416     3.00029
      N    7   -0.34783      0.99972     2.83598    0.01213     3.84783
      C    8   -0.00861      0.99962     1.99721    0.01179     3.00861
      C    9   -0.29369      0.99964     2.28815    0.00590     3.29369
      C   10   -0.28257      0.99965     2.27789    0.00503     3.28257
      C   11   -0.29157      0.99964     2.28474    0.00719     3.29157
      H   12    0.10652      0.00000     0.39222    0.00126     0.39348
      H   13    0.09681      0.00000     0.40218    0.00101     0.40319
      H   14    0.09178      0.00000     0.40709    0.00113     0.40822
      H   15    0.09633      0.00000     0.40240    0.00126     0.40367
      H   16    0.10001      0.00000     0.39886    0.00113     0.39999
      H   17    0.09224      0.00000     0.40644    0.00133     0.40776
      H   18    0.09813      0.00000     0.40088    0.00099     0.40187
      H   19    0.09720      0.00000     0.40128    0.00151     0.40280
      H   20    0.09790      0.00000     0.40025    0.00185     0.40210
      H   21    0.09591      0.00000     0.40183    0.00225     0.40409
      H   22    0.17350      0.00000     0.32349    0.00300     0.32650
      H   23    0.08831      0.00000     0.40981    0.00188     0.41169
      H   24    0.09479      0.00000     0.40389    0.00131     0.40521
      H   25    0.09879      0.00000     0.40006    0.00116     0.40121
      H   26    0.10090      0.00000     0.39745    0.00164     0.39910
      H   27    0.10223      0.00000     0.39652    0.00126     0.39777
      H   28    0.09774      0.00000     0.40122    0.00103     0.40226
      H   29    0.09397      0.00000     0.40496    0.00108     0.40603
      H   30    0.10013      0.00000     0.39864    0.00123     0.39987
      H   31    0.10156      0.00000     0.39739    0.00105     0.39844
      H   32    0.09517      0.00000     0.40361    0.00123     0.40483
 =======================================================================
   * Total *   -0.00000     10.99589    32.87331    0.13080    44.00000

 Normal termination of Gaussian 16 at Tue Dec  8 22:12:06 2020.
