 Gaussian 16, Revision A.03,

 -----------------------------------------------------------
 # opt freq B3LYP/6-31G(d) empiricaldispersion=gd3bj scf=xqc
 -----------------------------------------------------------

 ------------------------------
 CID_61595357_JID_6237_neutraal
 ------------------------------
 Symbolic Z-matrix:
 Charge =  0 Multiplicity = 1

 SCF Done:  E(RB3LYP) =  -716.876269029     A.U. after   14 cycles
 SCF Done:  E(RB3LYP) =  -716.880897633     A.U. after   13 cycles
 SCF Done:  E(RB3LYP) =  -716.877958994     A.U. after   12 cycles
 SCF Done:  E(RB3LYP) =  -716.878830805     A.U. after   13 cycles
 SCF Done:  E(RB3LYP) =  -716.882465098     A.U. after   10 cycles
 SCF Done:  E(RB3LYP) =  -716.884133863     A.U. after   12 cycles
 SCF Done:  E(RB3LYP) =  -716.884005367     A.U. after   12 cycles
 SCF Done:  E(RB3LYP) =  -716.884510448     A.U. after   12 cycles
 SCF Done:  E(RB3LYP) =  -716.884789485     A.U. after   11 cycles
 SCF Done:  E(RB3LYP) =  -716.884907624     A.U. after   11 cycles
 SCF Done:  E(RB3LYP) =  -716.885047566     A.U. after   10 cycles
 SCF Done:  E(RB3LYP) =  -716.885049244     A.U. after    9 cycles
 SCF Done:  E(RB3LYP) =  -716.885050122     A.U. after    8 cycles
 SCF Done:  E(RB3LYP) =  -716.885050278     A.U. after    8 cycles
 SCF Done:  E(RB3LYP) =  -716.885050323     A.U. after    6 cycles
 Optimization completed.
    -- Stationary point found.
 Normal termination of Gaussian 16 at Thu Dec 10 21:37:38 2020.

 --------------------------------------------------------------------
 #N Geom=AllCheck Guess=TCheck SCRF=Check GenChk RB3LYP/6-31G(d) Freq
 --------------------------------------------------------------------

 Structure from the checkpoint file:  "JID_6237.chk"
 ------------------------------
 CID_61595357_JID_6237_neutraal
 ------------------------------
 Charge =  0 Multiplicity = 1

 SCF Done:  E(RB3LYP) =  -716.885050323     A.U. after    1 cycles

  Exact polarizability: 169.265  -2.122 142.208  -1.872  -0.409 138.621
 Approx polarizability: 216.331   5.249 197.155  -8.541  -3.500 206.601

                      1                      2                      3
                      A                      A                      A
 Frequencies --     21.1218                28.7874                52.8167
 Red. masses --      3.5419                 6.0080                 3.1498
 Frc consts  --      0.0009                 0.0029                 0.0052
 IR Inten    --      0.3901                 3.3405                 0.4276

                      4                      5                      6
                      A                      A                      A
 Frequencies --     60.1274                69.8122                88.0239
 Red. masses --      2.7442                 3.4099                 2.7907
 Frc consts  --      0.0058                 0.0098                 0.0127
 IR Inten    --      0.1326                 0.6231                 0.2269

                      7                      8                      9
                      A                      A                      A
 Frequencies --     99.1473               112.1000               132.9699
 Red. masses --      2.8737                 2.9653                 2.8192
 Frc consts  --      0.0166                 0.0220                 0.0294
 IR Inten    --      0.6527                 6.0009                 4.1558

                     10                     11                     12
                      A                      A                      A
 Frequencies --    141.7239               154.4836               180.2870
 Red. masses --      2.0883                 2.2528                 1.2203
 Frc consts  --      0.0247                 0.0317                 0.0234
 IR Inten    --      0.3193                 0.0770                 0.4773

                     13                     14                     15
                      A                      A                      A
 Frequencies --    187.2399               200.4979               224.0651
 Red. masses --      1.4197                 2.0713                 1.4904
 Frc consts  --      0.0293                 0.0491                 0.0441
 IR Inten    --      0.8824                 0.6051                 1.6321

                     16                     17                     18
                      A                      A                      A
 Frequencies --    248.7773               271.3392               285.3474
 Red. masses --      2.8161                 1.7182                 2.1469
 Frc consts  --      0.1027                 0.0745                 0.1030
 IR Inten    --      3.0370                 0.2889                 3.2644

                     19                     20                     21
                      A                      A                      A
 Frequencies --    300.0140               309.7884               329.7338
 Red. masses --      1.7906                 1.8169                 2.5055
 Frc consts  --      0.0950                 0.1027                 0.1605
 IR Inten    --      0.3295                 0.9512                 0.7648

                     22                     23                     24
                      A                      A                      A
 Frequencies --    338.6776               411.1885               418.6590
 Red. masses --      2.1370                 1.8550                 2.3632
 Frc consts  --      0.1444                 0.1848                 0.2440
 IR Inten    --      0.6251                 2.7426                 1.8824

                     25                     26                     27
                      A                      A                      A
 Frequencies --    436.2032               472.8953               507.1425
 Red. masses --      2.0369                 2.5166                 2.2514
 Frc consts  --      0.2283                 0.3316                 0.3412
 IR Inten    --      2.0643                 4.0679                 0.9386

                     28                     29                     30
                      A                      A                      A
 Frequencies --    520.0062               552.0546               576.0359
 Red. masses --      3.6339                 2.3091                 2.5383
 Frc consts  --      0.5789                 0.4146                 0.4962
 IR Inten    --     12.6914                11.3730                 2.8082

                     31                     32                     33
                      A                      A                      A
 Frequencies --    621.7983               713.1212               742.0360
 Red. masses --      2.5517                 1.9242                 2.7961
 Frc consts  --      0.5813                 0.5765                 0.9071
 IR Inten    --     13.1225                 4.1260                 3.4850

                     34                     35                     36
                      A                      A                      A
 Frequencies --    785.7765               814.2422               828.7092
 Red. masses --      1.5707                 1.5562                 1.8799
 Frc consts  --      0.5714                 0.6079                 0.7607
 IR Inten    --      2.0969                 5.6372                 8.7750

                     37                     38                     39
                      A                      A                      A
 Frequencies --    850.6925               864.6592               901.5826
 Red. masses --      2.1443                 1.7679                 2.2516
 Frc consts  --      0.9143                 0.7788                 1.0783
 IR Inten    --      5.9512                 0.4806                 0.2909

                     40                     41                     42
                      A                      A                      A
 Frequencies --    922.6469               929.5657               969.1892
 Red. masses --      1.8988                 1.7171                 1.9380
 Frc consts  --      0.9523                 0.8742                 1.0725
 IR Inten    --      8.6672                 4.1851                14.9216

                     43                     44                     45
                      A                      A                      A
 Frequencies --    995.2429              1001.9877              1024.7613
 Red. masses --      1.9295                 2.3752                 2.0580
 Frc consts  --      1.1260                 1.4050                 1.2733
 IR Inten    --     20.1038                29.6796                 2.5401

                     46                     47                     48
                      A                      A                      A
 Frequencies --   1028.4587              1036.8983              1069.8564
 Red. masses --      1.6776                 1.5593                 1.9851
 Frc consts  --      1.0455                 0.9878                 1.3387
 IR Inten    --     14.5633                 0.7609                 4.0287

                     49                     50                     51
                      A                      A                      A
 Frequencies --   1079.6560              1084.7949              1099.0111
 Red. masses --      2.0272                 2.1021                 2.5099
 Frc consts  --      1.3923                 1.4574                 1.7861
 IR Inten    --     22.1707                15.4374                 0.9419

                     52                     53                     54
                      A                      A                      A
 Frequencies --   1119.1702              1148.1066              1165.8332
 Red. masses --      2.0425                 2.0487                 2.2758
 Frc consts  --      1.5073                 1.5911                 1.8224
 IR Inten    --      7.8629                13.9196                26.1808

                     55                     56                     57
                      A                      A                      A
 Frequencies --   1175.3309              1187.7916              1189.5455
 Red. masses --      2.4830                 2.2262                 1.2694
 Frc consts  --      2.0209                 1.8505                 1.0583
 IR Inten    --     35.8436                44.8454                 0.4238

                     58                     59                     60
                      A                      A                      A
 Frequencies --   1195.7937              1203.9527              1231.8924
 Red. masses --      1.6087                 2.0515                 1.8635
 Frc consts  --      1.3553                 1.7520                 1.6662
 IR Inten    --      2.3282                43.4436                22.5253

                     61                     62                     63
                      A                      A                      A
 Frequencies --   1252.0606              1293.7421              1300.6099
 Red. masses --      2.0160                 1.3221                 1.3010
 Frc consts  --      1.8620                 1.3038                 1.2967
 IR Inten    --     19.2108                21.3287                 7.8732

                     64                     65                     66
                      A                      A                      A
 Frequencies --   1321.5162              1331.4851              1337.5031
 Red. masses --      1.2776                 1.1947                 1.2022
 Frc consts  --      1.3146                 1.2479                 1.2672
 IR Inten    --      7.5411                10.8020                 3.5362

                     67                     68                     69
                      A                      A                      A
 Frequencies --   1348.0594              1363.2999              1365.3509
 Red. masses --      1.1702                 1.4570                 1.2957
 Frc consts  --      1.2529                 1.5954                 1.4232
 IR Inten    --     13.5457                 8.6889                 2.9161

                     70                     71                     72
                      A                      A                      A
 Frequencies --   1385.0141              1396.5581              1410.2842
 Red. masses --      1.4837                 1.3585                 1.3400
 Frc consts  --      1.6769                 1.5610                 1.5702
 IR Inten    --      1.7524                20.7307                25.6357

                     73                     74                     75
                      A                      A                      A
 Frequencies --   1411.7298              1419.6301              1435.7870
 Red. masses --      1.3660                 1.2749                 1.3650
 Frc consts  --      1.6039                 1.5138                 1.6579
 IR Inten    --      6.5114                19.2168                 3.4439

                     76                     77                     78
                      A                      A                      A
 Frequencies --   1440.3908              1441.3410              1443.0553
 Red. masses --      1.2686                 1.2960                 1.2496
 Frc consts  --      1.5507                 1.5863                 1.5332
 IR Inten    --      3.7968                 5.5089                 1.7591

                     79                     80                     81
                      A                      A                      A
 Frequencies --   1453.6451              1491.3809              1494.9952
 Red. masses --      1.2677                 1.0946                 1.0841
 Frc consts  --      1.5783                 1.4344                 1.4276
 IR Inten    --     11.1405                 5.1466                14.4400

                     82                     83                     84
                      A                      A                      A
 Frequencies --   1496.5774              1505.9915              1509.3165
 Red. masses --      1.0872                 1.0595                 1.0603
 Frc consts  --      1.4347                 1.4158                 1.4231
 IR Inten    --      4.4392                 3.3995                 3.1967

                     85                     86                     87
                      A                      A                      A
 Frequencies --   1511.3297              1515.5933              1517.3986
 Red. masses --      1.0769                 1.0822                 1.0974
 Frc consts  --      1.4492                 1.4647                 1.4887
 IR Inten    --      3.2854                 3.4989                 1.7346

                     88                     89                     90
                      A                      A                      A
 Frequencies --   1524.3258              1528.5705              1531.2992
 Red. masses --      1.0742                 1.0754                 1.0629
 Frc consts  --      1.4706                 1.4804                 1.4685
 IR Inten    --      4.5724                15.3552                 3.2533

                     91                     92                     93
                      A                      A                      A
 Frequencies --   1534.8185              1536.7988              1544.2117
 Red. masses --      1.0677                 1.0550                 1.0639
 Frc consts  --      1.4818                 1.4680                 1.4947
 IR Inten    --      2.2278                 5.2186                 6.1402

                     94                     95                     96
                      A                      A                      A
 Frequencies --   1546.2041              1562.5825              1810.9310
 Red. masses --      1.0572                 1.0509                10.0839
 Frc consts  --      1.4891                 1.5118                19.4842
 IR Inten    --      5.7622                 4.1646               196.4112

                     97                     98                     99
                      A                      A                      A
 Frequencies --   2934.6537              2944.8092              2999.1045
 Red. masses --      1.0745                 1.0745                 1.0532
 Frc consts  --      5.4523                 5.4899                 5.5812
 IR Inten    --     44.1536                88.0707                32.6460

                    100                    101                    102
                      A                      A                      A
 Frequencies --   3009.9767              3042.2531              3043.5761
 Red. masses --      1.0615                 1.0594                 1.0582
 Frc consts  --      5.6662                 5.7767                 5.7756
 IR Inten    --     94.0103                18.9781                20.3962

                    103                    104                    105
                      A                      A                      A
 Frequencies --   3046.6450              3050.2897              3050.9734
 Red. masses --      1.0446                 1.0465                 1.0610
 Frc consts  --      5.7130                 5.7368                 5.8188
 IR Inten    --     29.2772                 9.8604                26.8336

                    106                    107                    108
                      A                      A                      A
 Frequencies --   3055.0593              3062.0561              3066.3722
 Red. masses --      1.0403                 1.0643                 1.0816
 Frc consts  --      5.7209                 5.8797                 5.9920
 IR Inten    --      8.2684                12.9082                16.3478

                    109                    110                    111
                      A                      A                      A
 Frequencies --   3076.0484              3077.5944              3082.8767
 Red. masses --      1.0974                 1.1000                 1.0967
 Frc consts  --      6.1178                 6.1385                 6.1411
 IR Inten    --     55.6908                45.7847                17.7517

                    112                    113                    114
                      A                      A                      A
 Frequencies --   3087.4306              3095.3846              3102.8705
 Red. masses --      1.0889                 1.0823                 1.0907
 Frc consts  --      6.1154                 6.1096                 6.1869
 IR Inten    --     11.9780                24.7086                65.9032

                    115                    116                    117
                      A                      A                      A
 Frequencies --   3106.0685              3111.4834              3114.9970
 Red. masses --      1.1005                 1.1006                 1.0986
 Frc consts  --      6.2555                 6.2777                 6.2809
 IR Inten    --     39.9020                53.8234                 9.1390

                    118                    119                    120
                      A                      A                      A
 Frequencies --   3121.6912              3123.7230              3136.9963
 Red. masses --      1.1020                 1.0986                 1.1052
 Frc consts  --      6.3273                 6.3158                 6.4077
 IR Inten    --     36.5233                17.9735                41.6533

                    121                    122                    123
                      A                      A                      A
 Frequencies --   3143.1011              3161.8242              3166.6727
 Red. masses --      1.0995                 1.0870                 1.1022
 Frc consts  --      6.3997                 6.4024                 6.5119
 IR Inten    --     20.4586                16.0698                12.2551

 - Thermochemistry -
 -------------------
 Temperature   298.150 Kelvin.  Pressure   1.00000 Atm.
 Atom     1 has atomic number  6 and mass  12.00000

 Molecular mass:   229.20418 amu.
 Principal axes and moments of inertia in atomic units:
                           1         2         3
     Eigenvalues --  2881.093985536.896656767.71332
           X            0.99944  -0.02901   0.01671
           Y            0.02872   0.99943   0.01779
           Z           -0.01722  -0.01730   0.99970
 This molecule is an asymmetric top.
 Rotational symmetry number  1.
 Warning -- assumption of classical behavior for rotation
           may cause significant error
 Rotational temperatures (Kelvin)      0.03006     0.01564     0.01280
 Rotational constants (GHZ):           0.62641     0.32595     0.26667
 Zero-point vibrational energy    1035015.6 (Joules/Mol)
                                  247.37466 (Kcal/Mol)
 Warning -- explicit consideration of  30 degrees of freedom as
           vibrations may cause significant error
 Vibrational temperatures:     30.39    41.42    75.99    86.51   100.44
          (Kelvin)            126.65   142.65   161.29   191.31   203.91
                              222.27   259.39   269.40   288.47   322.38
                              357.94   390.40   410.55   431.65   445.72
                              474.41   487.28   591.61   602.36   627.60
                              680.39   729.66   748.17   794.28   828.79
                              894.63  1026.02  1067.62  1130.56  1171.51
                             1192.33  1223.96  1244.05  1297.18  1327.48
                             1337.44  1394.45  1431.93  1441.64  1474.40
                             1479.72  1491.87  1539.28  1553.38  1560.78
                             1581.23  1610.24  1651.87  1677.37  1691.04
                             1708.97  1711.49  1720.48  1732.22  1772.42
                             1801.44  1861.41  1871.29  1901.37  1915.71
                             1924.37  1939.56  1961.48  1964.44  1992.73
                             2009.34  2029.08  2031.16  2042.53  2065.78
                             2072.40  2073.77  2076.23  2091.47  2145.76
                             2150.96  2153.24  2166.79  2171.57  2174.47
                             2180.60  2183.20  2193.16  2199.27  2203.20
                             2208.26  2211.11  2221.78  2224.64  2248.21
                             2605.53  4222.31  4236.92  4315.04  4330.69
                             4377.12  4379.03  4383.44  4388.69  4389.67
                             4395.55  4405.62  4411.83  4425.75  4427.97
                             4435.57  4442.12  4453.57  4464.34  4468.94
                             4476.73  4481.79  4491.42  4494.34  4513.44
                             4522.22  4549.16  4556.14

 Zero-point correction=                           0.394217 (Hartree/Particle)
 Thermal correction to Energy=                    0.414142
 Thermal correction to Enthalpy=                  0.415086
 Thermal correction to Gibbs Free Energy=         0.344691
 Sum of electronic and zero-point Energies=           -716.490834
 Sum of electronic and thermal Energies=              -716.470908
 Sum of electronic and thermal Enthalpies=            -716.469964
 Sum of electronic and thermal Free Energies=         -716.540360

                     E (Thermal)             CV                S
                      KCal/Mol        Cal/Mol-Kelvin    Cal/Mol-Kelvin
 Total                  259.878             72.478            148.160
 Electronic               0.000              0.000              0.000
 Translational            0.889              2.981             42.190
 Rotational               0.889              2.981             33.045
 Vibrational            258.101             66.516             72.925
 Vibration     1          0.593              1.985              6.526
 Vibration     2          0.593              1.984              5.911
 Vibration     3          0.596              1.976              4.709
 Vibration     4          0.597              1.973              4.453
 Vibration     5          0.598              1.969              4.159
 Vibration     6          0.601              1.958              3.704
 Vibration     7          0.604              1.950              3.471
 Vibration     8          0.607              1.939              3.232
 Vibration     9          0.613              1.920              2.903
 Vibration    10          0.615              1.912              2.780
 Vibration    11          0.620              1.898              2.616
 Vibration    12          0.629              1.866              2.325
 Vibration    13          0.632              1.857              2.255
 Vibration    14          0.638              1.839              2.129
 Vibration    15          0.649              1.804              1.926
 Vibration    16          0.662              1.765              1.739
 Vibration    17          0.675              1.726              1.588
 Vibration    18          0.683              1.701              1.501
 Vibration    19          0.693              1.674              1.417
 Vibration    20          0.699              1.655              1.363
 Vibration    21          0.713              1.616              1.261
 Vibration    22          0.719              1.598              1.218
 Vibration    23          0.775              1.446              0.922
 Vibration    24          0.782              1.430              0.897
 Vibration    25          0.797              1.391              0.839
 Vibration    26          0.830              1.310              0.729
 Vibration    27          0.862              1.234              0.641
 Vibration    28          0.875              1.206              0.610
 Vibration    29          0.907              1.135              0.540
 Vibration    30          0.932              1.083              0.493

                           ! Non-Optimized Parameters !
 Normal termination of Gaussian 16 at Thu Dec 10 21:57:25 2020.

 ----------------------------------------------------------------------
 # B3LYP/6-311++G(d,p) empiricaldispersion=gd3bj scf=xqc pop=npa geom=c
 heck
 ----------------------------------------------------------------------

 --------------------------------------
 CID_61595357_JID_6237_Energie_neutraal
 --------------------------------------
 Structure from the checkpoint file:  "JID_6237.chk"
 Charge =  0 Multiplicity = 1

 SCF Done:  E(RB3LYP) =  -717.092965988     A.U. after   14 cycles
 Normal termination of Gaussian 16 at Thu Dec 10 22:07:32 2020.

 ----------------------------------------------------------------------
 # B3LYP/6-311++G(d,p) empiricaldispersion=gd3bj scf=xqc pop=npa geom=c
 heck
 ----------------------------------------------------------------------

 ------------------------------------
 CID_61595357_JID_6237_Energie_kation
 ------------------------------------
 Structure from the checkpoint file:  "JID_6237.chk"
 Charge =  1 Multiplicity = 2

 SCF Done:  E(UB3LYP) =  -716.807280027     A.U. after   26 cycles
 Normal termination of Gaussian 16 at Thu Dec 10 22:34:04 2020.
 Gaussian 16:  ES64L-G16RevA.03 25-Dec-2016

 ----------------------------------------------------------------------
 # B3LYP/6-311++G(d,p) empiricaldispersion=gd3bj scf=xqc pop=npa geom=c
 heck
 ----------------------------------------------------------------------

 -----------------------------------
 CID_61595357_JID_6237_Energie_anion
 -----------------------------------
 Structure from the checkpoint file:  "JID_6237.chk"
 Charge = -1 Multiplicity = 2

                         Standard orientation:
 ---------------------------------------------------------------------
 Center     Atomic      Atomic             Coordinates (Angstroms)
 Number     Number       Type             X           Y           Z
 ---------------------------------------------------------------------
      1          6           0        3.838739   -2.156924   -0.099620
      2          6           0        2.846987   -1.167732   -0.719128
      3          6           0        1.658653   -0.825516    0.205553
      4          6           0        2.063989   -0.140381    1.527826
      5          6           0        2.776533    1.214220    1.443622
      6          7           0        0.552106   -0.109256   -0.471830
      7          6           0       -0.366896   -0.997728   -1.187634
      8          6           0       -1.207469   -1.912101   -0.284448
      9          6           0       -2.017970   -1.185842    0.810515
     10          6           0       -3.435059   -0.782197    0.430009
     11          8           0       -4.377745   -1.052403    1.151288
     12          6           0       -3.640439   -0.013940   -0.864950
     13          6           0        0.967233    1.003019   -1.336601
     14          6           0        0.015882    2.199852   -1.316057
     15          8           0        0.106564    2.986343   -0.139377
     16          6           0       -0.722880    2.570093    0.929426
     17          1           0        4.354605   -1.726384    0.765054
     18          1           0        4.603885   -2.451579   -0.826131
     19          1           0        3.330665   -3.069144    0.237245
     20          1           0        3.382789   -0.257585   -1.011038
     21          1           0        2.447317   -1.596272   -1.647675
     22          1           0        1.232993   -1.786531    0.513354
     23          1           0        1.151309   -0.030944    2.125890
     24          1           0        2.704427   -0.840832    2.078777
     25          1           0        2.130145    1.996075    1.036570
     26          1           0        3.090263    1.532688    2.444204
     27          1           0        3.680147    1.161358    0.824355
     28          1           0       -1.038735   -0.359142   -1.769247
     29          1           0        0.164497   -1.627423   -1.927423
     30          1           0       -1.870027   -2.506236   -0.927350
     31          1           0       -0.554359   -2.642015    0.204823
     32          1           0       -2.109986   -1.808276    1.704460
     33          1           0       -1.463933   -0.281687    1.094056
     34          1           0       -3.013815    0.885197   -0.883120
     35          1           0       -3.350672   -0.624419   -1.728519
     36          1           0       -4.691421    0.265477   -0.958769
     37          1           0        1.942294    1.369215   -1.017057
     38          1           0        1.087688    0.674608   -2.386155
     39          1           0        0.290742    2.868197   -2.141275
     40          1           0       -1.025114    1.880843   -1.482835
     41          1           0       -1.770872    2.471015    0.603930
     42          1           0       -0.397187    1.616855    1.357605
     43          1           0       -0.666746    3.351263    1.692710
 ---------------------------------------------------------------------

 SCF Done:  E(UB3LYP) =  -717.081500137     A.U. after   33 cycles
 SCF Done:  E(UB3LYP) =  -717.081500137     a.u. after    1 cycles

 The electronic state is 2-A.
 Alpha  occ. eigenvalues --  -19.03726 -19.02140 -14.21016 -10.17038 -10.12655
 Alpha  occ. eigenvalues --  -10.12245 -10.10253 -10.10099 -10.10025 -10.08385
 Alpha  occ. eigenvalues --  -10.08330 -10.08150 -10.07140 -10.06927 -10.06466
 Alpha  occ. eigenvalues --  -10.06383  -0.95375  -0.94814  -0.83213  -0.71248
 Alpha  occ. eigenvalues --   -0.70031  -0.66499  -0.65568  -0.64539  -0.60746
 Alpha  occ. eigenvalues --   -0.59978  -0.56151  -0.53272  -0.51872  -0.50058
 Alpha  occ. eigenvalues --   -0.45213  -0.43803  -0.41101  -0.40524  -0.39440
 Alpha  occ. eigenvalues --   -0.38454  -0.37907  -0.37698  -0.36775  -0.35469
 Alpha  occ. eigenvalues --   -0.35076  -0.34232  -0.33068  -0.32406  -0.31790
 Alpha  occ. eigenvalues --   -0.31650  -0.31020  -0.30301  -0.29192  -0.28970
 Alpha  occ. eigenvalues --   -0.27666  -0.27411  -0.27353  -0.26694  -0.25627
 Alpha  occ. eigenvalues --   -0.25576  -0.24733  -0.23798  -0.23123  -0.22630
 Alpha  occ. eigenvalues --   -0.22047  -0.17749  -0.16097  -0.12205   0.04091
 Alpha virt. eigenvalues --    0.06015   0.06268   0.06697   0.06984   0.07999
 Alpha virt. eigenvalues --    0.08250   0.08398   0.09158   0.09256   0.10138
 Alpha virt. eigenvalues --    0.10782   0.10915   0.11167   0.11780   0.11995

  Beta  occ. eigenvalues --  -19.03721 -19.02117 -14.20999 -10.17017 -10.12638
  Beta  occ. eigenvalues --  -10.12234 -10.10246 -10.10079 -10.10017 -10.08353
  Beta  occ. eigenvalues --  -10.08305 -10.08146 -10.07129 -10.06909 -10.06453
  Beta  occ. eigenvalues --  -10.06346  -0.95332  -0.94804  -0.83182  -0.71214
  Beta  occ. eigenvalues --   -0.70002  -0.66465  -0.65534  -0.64492  -0.60712
  Beta  occ. eigenvalues --   -0.59945  -0.56110  -0.53208  -0.51811  -0.50004
  Beta  occ. eigenvalues --   -0.45164  -0.43746  -0.41077  -0.40493  -0.39403
  Beta  occ. eigenvalues --   -0.38423  -0.37882  -0.37661  -0.36744  -0.35421
  Beta  occ. eigenvalues --   -0.35038  -0.34199  -0.33041  -0.32375  -0.31755
  Beta  occ. eigenvalues --   -0.31621  -0.30991  -0.30265  -0.29163  -0.28936
  Beta  occ. eigenvalues --   -0.27618  -0.27362  -0.27324  -0.26643  -0.25599
  Beta  occ. eigenvalues --   -0.25520  -0.24697  -0.23769  -0.23096  -0.22596
  Beta  occ. eigenvalues --   -0.22020  -0.17723  -0.16069  -0.12110
  Beta virt. eigenvalues --    0.06115   0.06646   0.06789   0.07216   0.07314
  Beta virt. eigenvalues --    0.08408   0.08555   0.08858   0.09387   0.09564
  Beta virt. eigenvalues --    0.10583   0.11103   0.11204   0.11500   0.11970

 Mulliken charges and spin densities:
               1          2
     1  C    1.272894  -2.033550
     2  C   -1.319643   1.415439
     3  C    0.481078  -0.923201
     4  C   -0.477083   0.221081
     5  C   -0.079808  -0.539153
     6  N    0.343703   0.109706
     7  C    0.618170  -0.995836
     8  C   -0.571885   0.257268
     9  C    0.665065  -0.625386
    10  C   -0.804404   0.659794
    11  O   -0.272847   0.006011
    12  C    0.646582  -1.082616
    13  C   -0.292228   0.287165
    14  C   -0.018425  -0.552982
    15  O   -0.100441   0.012226
    16  C   -0.109520  -0.226183
    17  H    0.013980   0.122826
    18  H   -0.334004   0.477831
    19  H   -0.524030   0.676880
    20  H   -0.089595   0.223845
    21  H    0.047120   0.091659
    22  H    0.895200  -0.784206
    23  H   -0.086825   0.199431
    24  H   -0.204364   0.362918
    25  H    0.109206   0.034174
    26  H   -0.004308   0.146511
    27  H    0.022523   0.116451
    28  H    0.102363   0.059436
    29  H   -0.343005   0.472612
    30  H   -0.170129   0.357786
    31  H   -0.340262   0.503375
    32  H    0.056476   0.168545
    33  H    0.034654   0.117470
    34  H    0.128367  -0.026707
    35  H   -0.248059   0.408745
    36  H    0.042928   0.145947
    37  H    0.277192  -0.086565
    38  H   -0.262282   0.402869
    39  H   -0.227371   0.409759
    40  H   -0.194847   0.309921
    41  H   -0.034556   0.154660
    42  H    0.294161  -0.151503
    43  H    0.058258   0.095544
 Sum of Mulliken charges =  -1.00000   1.00000

 Dipole moment (field-independent basis, Debye):
    X=             -0.4929    Y=              3.9479    Z=              1.7682  Tot=              4.3537
 Quadrupole moment (field-independent basis, Debye-Ang):
   XX=           -186.8979   YY=           -160.8914   ZZ=           -148.0502
   XY=              6.3979   XZ=              2.6176   YZ=              0.1222

 Summary of Natural Population Analysis:

                                       Natural Population
                Natural  -----------------------------------------------
    Atom  No    Charge         Core      Valence    Rydberg      Total
 -----------------------------------------------------------------------
      C    1   -0.28420      0.99966     2.27953    0.00500     3.28420
      C    2   -0.20097      0.99961     2.19322    0.00815     3.20097
      C    3    0.00018      0.99956     1.98653    0.01373     2.99982
      C    4   -0.19177      0.99960     2.18330    0.00887     3.19177
      C    5   -0.29506      0.99965     2.29032    0.00509     3.29506
      N    6   -0.29854      0.99970     2.78216    0.01667     3.79854
      C    7   -0.08170      0.99959     2.07060    0.01151     3.08170
      C    8   -0.19403      0.99962     2.18564    0.00877     3.19403
      C    9   -0.24458      0.99957     2.23565    0.00937     3.24458
      C   10    0.29976      0.99968     1.68131    0.01924     2.70024
      O   11   -0.28864      0.99987     3.28199    0.00677     4.28864
      C   12   -0.33820      0.99961     2.33284    0.00574     3.33820
      C   13   -0.10079      0.99959     2.09015    0.01105     3.10079
      C   14   -0.00970      0.99956     1.99696    0.01318     3.00970
      O   15   -0.30050      0.99989     3.29150    0.00911     4.30050
      C   16   -0.09672      0.99960     2.08895    0.00816     3.09672
      H   17    0.09550      0.00000     0.40341    0.00110     0.40450
      H   18    0.10024      0.00000     0.39879    0.00097     0.39976
      H   19    0.09811      0.00000     0.40047    0.00142     0.40189
      H   20    0.09422      0.00000     0.40440    0.00138     0.40578
      H   21    0.10056      0.00000     0.39784    0.00160     0.39944
      H   22    0.09628      0.00000     0.40099    0.00273     0.40372
      H   23    0.09681      0.00000     0.40178    0.00141     0.40319
      H   24    0.09676      0.00000     0.40226    0.00098     0.40324
      H   25    0.10424      0.00000     0.39412    0.00164     0.39576
      H   26    0.09805      0.00000     0.40122    0.00073     0.40195
      H   27    0.09513      0.00000     0.40394    0.00094     0.40487
      H   28    0.09407      0.00000     0.40358    0.00235     0.40593
      H   29    0.08835      0.00000     0.40977    0.00188     0.41165
      H   30    0.10167      0.00000     0.39702    0.00132     0.39833
      H   31    0.10267      0.00000     0.39587    0.00146     0.39733
      H   32    0.10902      0.00000     0.38999    0.00099     0.39098
      H   33    0.11590      0.00000     0.38178    0.00231     0.38410
      H   34    0.10790      0.00000     0.39034    0.00176     0.39210
      H   35    0.11229      0.00000     0.38654    0.00117     0.38771
      H   36    0.10969      0.00000     0.38928    0.00102     0.39031
      H   37    0.10314      0.00000     0.39496    0.00190     0.39686
      H   38    0.08849      0.00000     0.41004    0.00147     0.41151
      H   39    0.08851      0.00000     0.41022    0.00127     0.41149
      H   40    0.07854      0.00000     0.41965    0.00181     0.42146
      H   41    0.07644      0.00000     0.42234    0.00122     0.42356
      H   42    0.08653      0.00000     0.41189    0.00158     0.41347
      H   43    0.08632      0.00000     0.41278    0.00089     0.41368
 =======================================================================
   * Total *    0.00000     15.99436    47.80594    0.19970    64.00000

 Normal termination of Gaussian 16 at Thu Dec 10 23:08:21 2020.
