 Gaussian 16, Revision A.03,

 -----------------------------------------------------------
 # opt freq B3LYP/6-31G(d) empiricaldispersion=gd3bj scf=xqc
 -----------------------------------------------------------

 -----------------------------
 CID_21546557_JID_941_neutraal
 -----------------------------
 Symbolic Z-matrix:
 Charge =  0 Multiplicity = 1

 SCF Done:  E(RB3LYP) =  -433.899918829     A.U. after   15 cycles
 SCF Done:  E(RB3LYP) =  -433.922716069     A.U. after   14 cycles
 SCF Done:  E(RB3LYP) =  -433.923238270     A.U. after   12 cycles
 SCF Done:  E(RB3LYP) =  -433.923526687     A.U. after   12 cycles
 SCF Done:  E(RB3LYP) =  -433.924758328     A.U. after   15 cycles
 SCF Done:  E(RB3LYP) =  -433.917181667     A.U. after   16 cycles
 SCF Done:  E(RB3LYP) =  -433.924473874     A.U. after   14 cycles
 SCF Done:  E(RB3LYP) =  -433.925027393     A.U. after   11 cycles
 SCF Done:  E(RB3LYP) =  -433.925387175     A.U. after   12 cycles
 SCF Done:  E(RB3LYP) =  -433.926246614     A.U. after   15 cycles
 SCF Done:  E(RB3LYP) =  -433.934905481     A.U. after   10 cycles
 SCF Done:  E(RB3LYP) =  -433.934907421     A.U. after   10 cycles
 SCF Done:  E(RB3LYP) =  -433.934911036     A.U. after   10 cycles
 SCF Done:  E(RB3LYP) =  -433.934912606     A.U. after    9 cycles
 SCF Done:  E(RB3LYP) =  -433.934912960     A.U. after    9 cycles
 SCF Done:  E(RB3LYP) =  -433.934913006     A.U. after    8 cycles
 Optimization completed.
    -- Stationary point found.
 Normal termination of Gaussian 16 at Tue Dec  8 13:43:46 2020.

 --------------------------------------------------------------------
 #N Geom=AllCheck Guess=TCheck SCRF=Check GenChk RB3LYP/6-31G(d) Freq
 --------------------------------------------------------------------

 Structure from the checkpoint file:  "JID_941.chk"
 -----------------------------
 CID_21546557_JID_941_neutraal
 -----------------------------
 Charge =  0 Multiplicity = 1

 SCF Done:  E(RB3LYP) =  -433.934913006     A.U. after    1 cycles

  Exact polarizability: 135.173 -34.145  86.142  -0.001  -0.000  33.975
 Approx polarizability: 226.274 -84.594 153.358   0.004  -0.002  48.878

                      1                      2                      3
                      A                      A                      A
 Frequencies --     22.2967                59.0160                76.2193
 Red. masses --      6.1541                 9.6295                 2.2427
 Frc consts  --      0.0018                 0.0198                 0.0077
 IR Inten    --      4.3818                 0.4603                 1.7807

                      4                      5                      6
                      A                      A                      A
 Frequencies --     96.2801               105.3774               110.3618
 Red. masses --      5.9166                 2.5215                 9.7227
 Frc consts  --      0.0323                 0.0165                 0.0698
 IR Inten    --      2.8025                 0.2895                 0.5515

                      7                      8                      9
                      A                      A                      A
 Frequencies --    131.6528               158.8243               249.0116
 Red. masses --      8.9811                 8.6309                 4.1083
 Frc consts  --      0.0917                 0.1283                 0.1501
 IR Inten    --     15.8361                38.3993                 2.1981

                     10                     11                     12
                      A                      A                      A
 Frequencies --    263.9766               367.9415               402.7064
 Red. masses --      7.5957                 2.4434                 4.6331
 Frc consts  --      0.3119                 0.1949                 0.4427
 IR Inten    --      0.9179                 0.6514                 0.0011

                     13                     14                     15
                      A                      A                      A
 Frequencies --    541.9420               547.1999               570.6426
 Red. masses --     12.2024                 6.1377                10.3942
 Frc consts  --      2.1115                 1.0828                 1.9942
 IR Inten    --      0.5353                 0.4443                 5.1911

                     16                     17                     18
                      A                      A                      A
 Frequencies --    589.5928               713.1911               879.9367
 Red. masses --      4.1886                 2.2882                 1.8967
 Frc consts  --      0.8579                 0.6857                 0.8653
 IR Inten    --      1.9339                15.6210                 4.6694

                     19                     20                     21
                      A                      A                      A
 Frequencies --    897.3421              1001.0065              1023.2792
 Red. masses --      2.7496                 1.2214                 1.1038
 Frc consts  --      1.3045                 0.7211                 0.6810
 IR Inten    --      0.8997                 0.2486                36.7608

                     22                     23                     24
                      A                      A                      A
 Frequencies --   1030.7818              1034.9242              1037.0024
 Red. masses --      1.1618                 4.4539                 5.4694
 Frc consts  --      0.7273                 2.8106                 3.4654
 IR Inten    --     49.6003                 0.2427                17.7211

                     25                     26                     27
                      A                      A                      A
 Frequencies --   1125.9022              1312.5733              1337.4779
 Red. masses --      1.6046                 1.2481                 1.3121
 Frc consts  --      1.1985                 1.2669                 1.3829
 IR Inten    --      4.7735                 6.3266                 0.8011

                     28                     29                     30
                      A                      A                      A
 Frequencies --   1356.0950              1466.6513              1679.2687
 Red. masses --      1.3112                 1.2209                 5.4040
 Frc consts  --      1.4207                 1.5474                 8.9785
 IR Inten    --      5.2346                15.7822                 1.9969

                     31                     32                     33
                      A                      A                      A
 Frequencies --   1691.6231              2341.5978              2352.3791
 Red. masses --      3.9079                12.6318                12.6158
 Frc consts  --      6.5887                40.8076                41.1320
 IR Inten    --      0.2986                 2.4532                36.0581

                     34                     35                     36
                      A                      A                      A
 Frequencies --   2357.9572              3176.7904              3180.1673
 Red. masses --     12.6164                 1.0924                 1.0591
 Frc consts  --     41.3292                 6.4954                 6.3106
 IR Inten    --     11.3511               102.7798                39.8141

                     37                     38                     39
                      A                      A                      A
 Frequencies --   3198.2646              3208.8710              3277.8590
 Red. masses --      1.0925                 1.0891                 1.1192
 Frc consts  --      6.5842                 6.6074                 7.0849
 IR Inten    --      6.1333                 2.1590                 6.4308

 - Thermochemistry -
 -------------------
 Temperature   298.150 Kelvin.  Pressure   1.00000 Atm.
 Atom     1 has atomic number  6 and mass  12.00000

 Molecular mass:   131.04835 amu.
 Principal axes and moments of inertia in atomic units:
                           1         2         3
     Eigenvalues --   715.627643263.691703979.31930
           X            0.99999   0.00526  -0.00001
           Y           -0.00526   0.99999  -0.00000
           Z            0.00001   0.00000   1.00000
 This molecule is an asymmetric top.
 Rotational symmetry number  1.
 Warning -- assumption of classical behavior for rotation
           may cause significant error
 Rotational temperatures (Kelvin)      0.12103     0.02654     0.02177
 Rotational constants (GHZ):           2.52190     0.55298     0.45353
 Zero-point vibrational energy     269004.2 (Joules/Mol)
                                   64.29354 (Kcal/Mol)
 Warning -- explicit consideration of  16 degrees of freedom as
           vibrations may cause significant error
 Vibrational temperatures:     32.08    84.91   109.66   138.53   151.61
          (Kelvin)            158.79   189.42   228.51   358.27   379.80
                              529.39   579.40   779.73   787.30   821.03
                              848.29  1026.12  1266.03  1291.08  1440.23
                             1472.27  1483.07  1489.03  1492.02  1619.92
                             1888.50  1924.33  1951.12  2110.18  2416.09
                             2433.87  3369.04  3384.55  3392.57  4570.69
                             4575.55  4601.59  4616.85  4716.11

 Zero-point correction=                           0.102458 (Hartree/Particle)
 Thermal correction to Energy=                    0.114050
 Thermal correction to Enthalpy=                  0.114994
 Thermal correction to Gibbs Free Energy=         0.062582
 Sum of electronic and zero-point Energies=           -433.832455
 Sum of electronic and thermal Energies=              -433.820863
 Sum of electronic and thermal Enthalpies=            -433.819919
 Sum of electronic and thermal Free Energies=         -433.872331

                     E (Thermal)             CV                S
                      KCal/Mol        Cal/Mol-Kelvin    Cal/Mol-Kelvin
 Total                   71.567             36.908            110.309
 Electronic               0.000              0.000              0.000
 Translational            0.889              2.981             40.524
 Rotational               0.889              2.981             30.609
 Vibrational             69.790             30.947             39.177
 Vibration     1          0.593              1.985              6.418
 Vibration     2          0.596              1.974              4.490
 Vibration     3          0.599              1.965              3.986
 Vibration     4          0.603              1.952              3.528
 Vibration     5          0.605              1.945              3.352
 Vibration     6          0.606              1.941              3.263
 Vibration     7          0.612              1.922              2.922
 Vibration     8          0.621              1.893              2.564
 Vibration     9          0.662              1.764              1.738
 Vibration    10          0.671              1.739              1.635
 Vibration    11          0.741              1.538              1.088
 Vibration    12          0.768              1.464              0.953
 Vibration    13          0.897              1.157              0.561
 Vibration    14          0.902              1.146              0.550
 Vibration    15          0.927              1.095              0.503
 Vibration    16          0.947              1.054              0.468

 Optimization completed.
    -- Stationary point found.
 Normal termination of Gaussian 16 at Tue Dec  8 13:46:25 2020.

 ----------------------------------------------------------------------
 # B3LYP/6-311++G(d,p) empiricaldispersion=gd3bj scf=xqc pop=npa geom=c
 heck
 ----------------------------------------------------------------------

 -------------------------------------
 CID_21546557_JID_941_Energie_neutraal
 -------------------------------------
 Structure from the checkpoint file:  "JID_941.chk"
 Charge =  0 Multiplicity = 1

 SCF Done:  E(RB3LYP) =  -434.058159335     A.U. after   15 cycles
 Normal termination of Gaussian 16 at Tue Dec  8 13:47:41 2020.

 ----------------------------------------------------------------------
 # B3LYP/6-311++G(d,p) empiricaldispersion=gd3bj scf=xqc pop=npa geom=c
 heck
 ----------------------------------------------------------------------

 -----------------------------------
 CID_21546557_JID_941_Energie_kation
 -----------------------------------
 Structure from the checkpoint file:  "JID_941.chk"
 Charge =  1 Multiplicity = 2

 SCF Done:  E(UB3LYP) =  -433.687919986     A.U. after   22 cycles
 Normal termination of Gaussian 16 at Tue Dec  8 13:52:01 2020.
 Gaussian 16:  ES64L-G16RevA.03 25-Dec-2016

 ----------------------------------------------------------------------
 # B3LYP/6-311++G(d,p) empiricaldispersion=gd3bj scf=xqc pop=npa geom=c
 heck
 ----------------------------------------------------------------------

 ----------------------------------
 CID_21546557_JID_941_Energie_anion
 ----------------------------------
 Structure from the checkpoint file:  "JID_941.chk"
 Charge = -1 Multiplicity = 2

                         Standard orientation:
 ---------------------------------------------------------------------
 Center     Atomic      Atomic             Coordinates (Angstroms)
 Number     Number       Type             X           Y           Z
 ---------------------------------------------------------------------
      1          6           0       -3.740202    0.397480    0.000343
      2          6           0       -3.361829   -0.887035    0.000086
      3          6           0       -1.985827   -1.276039   -0.000234
      4          7           0       -0.874313   -1.616992   -0.000318
      5          6           0        1.968378   -0.122869   -0.000019
      6          6           0        1.651430    1.187061   -0.000185
      7          6           0        0.298749    1.637497   -0.000079
      8          7           0       -0.791135    2.042970   -0.000074
      9          6           0        3.326366   -0.555012    0.000011
     10          7           0        4.428421   -0.928239    0.000372
     11          1           0       -3.015157    1.205532    0.000283
     12          1           0       -4.795004    0.654043    0.000642
     13          1           0       -4.082942   -1.700415    0.000087
     14          1           0        1.192002   -0.886886   -0.000014
     15          1           0        2.417895    1.957050   -0.000402
 ---------------------------------------------------------------------

 SCF Done:  E(UB3LYP) =  -434.102924613     A.U. after   21 cycles

 The electronic state is 2-A.
 Alpha  occ. eigenvalues --  -14.19353 -14.15519 -14.15404 -10.09902 -10.09444
 Alpha  occ. eigenvalues --  -10.07624 -10.05992 -10.05711 -10.04857 -10.04193
 Alpha  occ. eigenvalues --   -0.79204  -0.75986  -0.75582  -0.69170  -0.66212
 Alpha  occ. eigenvalues --   -0.53367  -0.53091  -0.41415  -0.38503  -0.36113
 Alpha  occ. eigenvalues --   -0.35598  -0.29498  -0.28259  -0.26353  -0.24812
 Alpha  occ. eigenvalues --   -0.24389  -0.22788  -0.22114  -0.21730  -0.21319
 Alpha  occ. eigenvalues --   -0.19031  -0.17940  -0.17297  -0.13130   0.01910
 Alpha virt. eigenvalues --    0.04807   0.07411   0.09870   0.10773   0.12906
 Alpha virt. eigenvalues --    0.13404   0.13831   0.15607   0.15620   0.16426
 Alpha virt. eigenvalues --    0.17060   0.17302   0.17465   0.17836   0.17916

  Beta  occ. eigenvalues --  -14.19287 -14.15233 -14.15084 -10.09851 -10.09424
  Beta  occ. eigenvalues --  -10.07459 -10.06008 -10.05757 -10.04541 -10.03822
  Beta  occ. eigenvalues --   -0.79091  -0.75537  -0.75124  -0.68914  -0.65338
  Beta  occ. eigenvalues --   -0.52948  -0.51997  -0.41311  -0.38173  -0.35712
  Beta  occ. eigenvalues --   -0.35454  -0.29329  -0.28032  -0.25879  -0.24605
  Beta  occ. eigenvalues --   -0.22763  -0.22452  -0.21890  -0.21277  -0.20001
  Beta  occ. eigenvalues --   -0.18846  -0.17749  -0.16560  -0.10788
  Beta virt. eigenvalues --    0.06046   0.07378   0.08606   0.09842   0.10765
  Beta virt. eigenvalues --    0.12890   0.13404   0.13885   0.15604   0.15634
  Beta virt. eigenvalues --    0.16404   0.17148   0.17351   0.17545   0.17989

 Mulliken charges and spin densities:
               1          2
     1  C   -0.580424   0.173159
     2  C    0.044362   0.016298
     3  C    0.024927   0.010165
     4  N   -0.238524   0.044609
     5  C    0.486122   0.340585
     6  C    0.122194   0.236746
     7  C   -0.224794  -0.025325
     8  N   -0.343945   0.165972
     9  C   -0.793461  -0.070777
    10  N   -0.376208   0.169759
    11  H    0.218366  -0.010295
    12  H    0.111364  -0.006896
    13  H    0.175087  -0.003642
    14  H    0.205509  -0.023907
    15  H    0.169425  -0.016452
 Sum of Mulliken charges =  -1.00000   1.00000

 Dipole moment (field-independent basis, Debye):
    X=             -7.2332    Y=             -0.0189    Z=             -0.0003  Tot=              7.2332
 Quadrupole moment (field-independent basis, Debye-Ang):
   XX=           -105.2882   YY=            -74.2506   ZZ=            -65.4440
   XY=             14.5653   XZ=             -0.0051   YZ=             -0.0001

 Summary of Natural Population Analysis:

                                       Natural Population
                Natural  -----------------------------------------------
    Atom  No    Charge         Core      Valence    Rydberg      Total
 -----------------------------------------------------------------------
      C    1   -0.10612      0.99960     2.09933    0.00719     3.10612
      C    2   -0.16981      0.99949     2.16259    0.00772     3.16981
      C    3    0.15105      0.99965     1.83225    0.01705     2.84895
      N    4   -0.17841      0.99976     2.66723    0.01142     3.67841
      C    5   -0.07280      0.99943     2.06420    0.00916     3.07280
      C    6   -0.09452      0.99944     2.08656    0.00852     3.09452
      C    7    0.14716      0.99966     1.83574    0.01744     2.85284
      N    8   -0.17802      0.99976     2.66685    0.01140     3.67802
      C    9    0.12999      0.99966     1.85269    0.01766     2.87001
      N   10   -0.16087      0.99979     2.64980    0.01129     3.66087
      H   11    0.11799      0.00000     0.38084    0.00117     0.38201
      H   12    0.08381      0.00000     0.41533    0.00086     0.41619
      H   13    0.10288      0.00000     0.39603    0.00108     0.39712
      H   14    0.12585      0.00000     0.37225    0.00190     0.37415
      H   15    0.10179      0.00000     0.39725    0.00096     0.39821
 =======================================================================
   * Total *   -0.00000      9.99624    23.87894    0.12482    34.00000

 Normal termination of Gaussian 16 at Tue Dec  8 13:55:30 2020.
