 Gaussian 16, Revision A.03,

 -----------------------------------------------------------
 # opt freq B3LYP/6-31G(d) empiricaldispersion=gd3bj scf=xqc
 -----------------------------------------------------------

 --------------------------------
 CID_152496842_JID_10927_neutraal
 --------------------------------
 Symbolic Z-matrix:
 Charge =  0 Multiplicity = 1

 SCF Done:  E(RB3LYP) =  -835.885777461     A.U. after   18 cycles
 SCF Done:  E(RB3LYP) =  -835.890695931     A.U. after   15 cycles
 SCF Done:  E(RB3LYP) =  -835.892146466     A.U. after   14 cycles
 SCF Done:  E(RB3LYP) =  -835.892712054     A.U. after   14 cycles
 SCF Done:  E(RB3LYP) =  -835.892866658     A.U. after   14 cycles
 SCF Done:  E(RB3LYP) =  -835.892954940     A.U. after   13 cycles
 SCF Done:  E(RB3LYP) =  -835.893018407     A.U. after   13 cycles
 SCF Done:  E(RB3LYP) =  -835.893107903     A.U. after   16 cycles
 SCF Done:  E(RB3LYP) =  -835.893169776     A.U. after   13 cycles
 SCF Done:  E(RB3LYP) =  -835.893261065     A.U. after   16 cycles
 SCF Done:  E(RB3LYP) =  -835.893711745     A.U. after   10 cycles
 SCF Done:  E(RB3LYP) =  -835.893712107     A.U. after    9 cycles
 SCF Done:  E(RB3LYP) =  -835.893712252     A.U. after    8 cycles
 SCF Done:  E(RB3LYP) =  -835.893712283     A.U. after    8 cycles
 SCF Done:  E(RB3LYP) =  -835.893712292     A.U. after    7 cycles
 Optimization completed.
    -- Stationary point found.
 Normal termination of Gaussian 16 at Sat Dec 12 16:51:39 2020.

 --------------------------------------------------------------------
 #N Geom=AllCheck Guess=TCheck SCRF=Check GenChk RB3LYP/6-31G(d) Freq
 --------------------------------------------------------------------

 Structure from the checkpoint file:  "JID_10927.chk"
 --------------------------------
 CID_152496842_JID_10927_neutraal
 --------------------------------
 Charge =  0 Multiplicity = 1

 SCF Done:  E(RB3LYP) =  -835.893712292     A.U. after    1 cycles

  Exact polarizability: 251.306 -30.393 203.866 -10.537 -19.569 104.725
 Approx polarizability: 391.286 -66.011 362.772 -20.358 -36.944 185.414

                      1                      2                      3
                      A                      A                      A
 Frequencies --     23.3987                31.7742                44.7812
 Red. masses --      8.6697                 7.1932                 4.0601
 Frc consts  --      0.0028                 0.0043                 0.0048
 IR Inten    --      0.0591                 0.0220                 0.0205

                      4                      5                      6
                      A                      A                      A
 Frequencies --     58.9077                76.9771               100.6320
 Red. masses --      5.9255                 5.4322                 4.6801
 Frc consts  --      0.0121                 0.0190                 0.0279
 IR Inten    --      0.2880                 0.0468                 0.8171

                      7                      8                      9
                      A                      A                      A
 Frequencies --    108.0441               146.4596               221.2867
 Red. masses --      4.5209                 5.7963                 6.7239
 Frc consts  --      0.0311                 0.0733                 0.1940
 IR Inten    --      0.2027                 0.1454                 2.5076

                     10                     11                     12
                      A                      A                      A
 Frequencies --    256.3753               270.1636               281.3517
 Red. masses --      6.9058                 5.5595                 5.4481
 Frc consts  --      0.2674                 0.2391                 0.2541
 IR Inten    --      0.5209                 3.0628                 1.5424

                     13                     14                     15
                      A                      A                      A
 Frequencies --    338.5207               370.0867               395.7200
 Red. masses --      4.7558                 6.0372                 5.5297
 Frc consts  --      0.3211                 0.4872                 0.5102
 IR Inten    --      1.4188                 0.3223                 0.6142

                     16                     17                     18
                      A                      A                      A
 Frequencies --    417.7973               458.3980               510.4013
 Red. masses --      3.0135                 4.3005                11.0506
 Frc consts  --      0.3099                 0.5324                 1.6961
 IR Inten    --      0.1520                 2.6400                 7.1835

                     19                     20                     21
                      A                      A                      A
 Frequencies --    519.5965               544.9522               553.7630
 Red. masses --      4.2147                 5.0918                 4.7295
 Frc consts  --      0.6704                 0.8909                 0.8545
 IR Inten    --      1.5695                 1.1040                 0.4576

                     22                     23                     24
                      A                      A                      A
 Frequencies --    573.7849               593.6384               633.3460
 Red. masses --      3.5208                 5.4069                 6.8021
 Frc consts  --      0.6830                 1.1226                 1.6076
 IR Inten    --      1.8562                 6.1622                 3.1319

                     25                     26                     27
                      A                      A                      A
 Frequencies --    636.9066               664.1714               675.4083
 Red. masses --      6.3111                 1.3846                 2.4077
 Frc consts  --      1.5084                 0.3599                 0.6471
 IR Inten    --      0.5654                 3.2086                11.1310

                     28                     29                     30
                      A                      A                      A
 Frequencies --    684.2428               717.3918               754.9669
 Red. masses --      5.7020                 1.7809                 2.3450
 Frc consts  --      1.5729                 0.5400                 0.7875
 IR Inten    --      3.0322                28.0495                 8.1814

                     31                     32                     33
                      A                      A                      A
 Frequencies --    765.0354               770.8821               785.9314
 Red. masses --      1.7164                 2.8299                 1.7234
 Frc consts  --      0.5919                 0.9908                 0.6272
 IR Inten    --     66.8567                25.8330                 4.8513

                     34                     35                     36
                      A                      A                      A
 Frequencies --    789.6158               797.7612               827.9924
 Red. masses --      2.2041                 5.4755                 1.3279
 Frc consts  --      0.8097                 2.0531                 0.5364
 IR Inten    --     10.0600                21.7003                 2.6787

                     37                     38                     39
                      A                      A                      A
 Frequencies --    863.1530               891.5319               930.3734
 Red. masses --      1.2462                 1.4117                 1.4205
 Frc consts  --      0.5470                 0.6611                 0.7245
 IR Inten    --      0.0658                 0.3452                 1.9036

                     40                     41                     42
                      A                      A                      A
 Frequencies --    945.2284               951.4130               969.4226
 Red. masses --      5.9455                 1.3640                 1.3456
 Frc consts  --      3.1298                 0.7274                 0.7451
 IR Inten    --      7.6342                 1.2915                 0.1645

                     43                     44                     45
                      A                      A                      A
 Frequencies --    983.0748               994.6524              1016.1126
 Red. masses --      1.2559                 1.2456                 4.6346
 Frc consts  --      0.7151                 0.7261                 2.8193
 IR Inten    --      0.1296                 0.2247                10.3423

                     46                     47                     48
                      A                      A                      A
 Frequencies --   1022.5350              1030.7806              1064.9734
 Red. masses --      6.2123                 7.1812                 2.3497
 Frc consts  --      3.8270                 4.4955                 1.5702
 IR Inten    --      0.8033                 4.2973                 0.6591

                     49                     50                     51
                      A                      A                      A
 Frequencies --   1067.2644              1089.0307              1100.9518
 Red. masses --      2.3286                 1.6155                 1.3558
 Frc consts  --      1.5628                 1.1289                 0.9682
 IR Inten    --      0.8202                 5.6595                35.2231

                     52                     53                     54
                      A                      A                      A
 Frequencies --   1109.9207              1141.7022              1173.4104
 Red. masses --      1.5932                 1.8287                 3.7437
 Frc consts  --      1.1564                 1.4044                 3.0370
 IR Inten    --      3.6856                 7.0125                24.3225

                     55                     56                     57
                      A                      A                      A
 Frequencies --   1193.4849              1197.3995              1213.9361
 Red. masses --      1.0977                 1.0918                 1.1352
 Frc consts  --      0.9212                 0.9223                 0.9856
 IR Inten    --      0.0397                 0.3927                 0.4883

                     58                     59                     60
                      A                      A                      A
 Frequencies --   1246.7803              1268.3014              1290.7038
 Red. masses --      1.6883                 2.3327                 1.9400
 Frc consts  --      1.5462                 2.2108                 1.9042
 IR Inten    --      8.9133                 5.4180                 5.9774

                     61                     62                     63
                      A                      A                      A
 Frequencies --   1316.8247              1331.8508              1342.5114
 Red. masses --      2.7229                 3.1041                 4.2178
 Frc consts  --      2.7818                 3.2441                 4.4790
 IR Inten    --      2.0620                 0.1260                 0.6333

                     64                     65                     66
                      A                      A                      A
 Frequencies --   1365.4613              1376.8525              1395.3151
 Red. masses --      1.7553                 5.5007                 8.2728
 Frc consts  --      1.9282                 6.1439                 9.4896
 IR Inten    --      0.2215                11.4584                10.8284

                     67                     68                     69
                      A                      A                      A
 Frequencies --   1420.3023              1482.9494              1497.9429
 Red. masses --      4.5097                 2.1791                 2.3498
 Frc consts  --      5.3599                 2.8234                 3.1065
 IR Inten    --      4.4942                 8.7912                 2.8868

                     70                     71                     72
                      A                      A                      A
 Frequencies --   1512.6968              1535.9155              1553.0876
 Red. masses --      3.0920                 2.6695                 2.6944
 Frc consts  --      4.1687                 3.7103                 3.8292
 IR Inten    --      0.6039                41.4307                 3.7511

                     73                     74                     75
                      A                      A                      A
 Frequencies --   1602.1777              1624.0425              1638.3803
 Red. masses --      5.3855                 5.5422                 5.6062
 Frc consts  --      8.1451                 8.6125                 8.8664
 IR Inten    --     11.1234                 0.3202                 1.1658

                     76                     77                     78
                      A                      A                      A
 Frequencies --   1660.0679              1664.4197              2230.1280
 Red. masses --      5.7478                 5.6385                13.9922
 Frc consts  --      9.3327                 9.2032                41.0010
 IR Inten    --      6.7036                 5.4613               315.8068

                     79                     80                     81
                      A                      A                      A
 Frequencies --   3182.0735              3183.1659              3188.7044
 Red. masses --      1.0849                 1.0849                 1.0876
 Frc consts  --      6.4724                 6.4766                 6.5157
 IR Inten    --      3.1893                 0.9429                 2.9431

                     82                     83                     84
                      A                      A                      A
 Frequencies --   3191.4931              3198.6971              3201.7158
 Red. masses --      1.0887                 1.0918                 1.0926
 Frc consts  --      6.5333                 6.5816                 6.5992
 IR Inten    --      8.0958                17.2567                26.8862

                     85                     86                     87
                      A                      A                      A
 Frequencies --   3206.8904              3211.6427              3213.9875
 Red. masses --      1.0940                 1.0977                 1.0975
 Frc consts  --      6.6285                 6.6707                 6.6797
 IR Inten    --     30.9508                34.9036                 8.2801

                     88                     89                     90
                      A                      A                      A
 Frequencies --   3263.5318              3302.6159              3304.7570
 Red. masses --      1.0928                 1.0972                 1.1011
 Frc consts  --      6.8577                 7.0511                 7.0854
 IR Inten    --      2.2341                 1.1494                 1.3707

 - Thermochemistry -
 -------------------
 Temperature   298.150 Kelvin.  Pressure   1.00000 Atm.
 Atom     1 has atomic number  6 and mass  12.00000

 Molecular mass:   260.10620 amu.
 Principal axes and moments of inertia in atomic units:
                           1         2         3
     Eigenvalues --  3710.283035713.277258725.41761
           X            0.99965  -0.02587  -0.00579
           Y            0.02581   0.99962  -0.00983
           Z            0.00605   0.00968   0.99993
 This molecule is an asymmetric top.
 Rotational symmetry number  1.
 Warning -- assumption of classical behavior for rotation
           may cause significant error
 Rotational temperatures (Kelvin)      0.02334     0.01516     0.00993
 Rotational constants (GHZ):           0.48642     0.31589     0.20684
 Zero-point vibrational energy     648117.6 (Joules/Mol)
                                  154.90382 (Kcal/Mol)
 Warning -- explicit consideration of  23 degrees of freedom as
           vibrations may cause significant error
 Vibrational temperatures:     33.67    45.72    64.43    84.76   110.75
          (Kelvin)            144.79   155.45   210.72   318.38   368.87
                              388.71   404.80   487.06   532.47   569.35
                              601.12   659.53   734.35   747.58   784.06
                              796.74   825.55   854.11   911.24   916.37
                              955.59   971.76   984.47  1032.17  1086.23
                             1100.72  1109.13  1130.78  1136.08  1147.80
                             1191.30  1241.88  1282.72  1338.60  1359.97
                             1368.87  1394.78  1414.43  1431.08  1461.96
                             1471.20  1483.06  1532.26  1535.56  1566.87
                             1584.02  1596.93  1642.65  1688.28  1717.16
                             1722.79  1746.58  1793.84  1824.80  1857.03
                             1894.62  1916.24  1931.57  1964.59  1980.98
                             2007.55  2043.50  2133.63  2155.21  2176.43
                             2209.84  2234.55  2305.18  2336.63  2357.26
                             2388.47  2394.73  3208.66  4578.29  4579.87
                             4587.83  4591.85  4602.21  4606.55  4614.00
                             4620.84  4624.21  4695.49  4751.73  4754.81

 Zero-point correction=                           0.246855 (Hartree/Particle)
 Thermal correction to Energy=                    0.262802
 Thermal correction to Enthalpy=                  0.263746
 Thermal correction to Gibbs Free Energy=         0.201090
 Sum of electronic and zero-point Energies=           -835.646857
 Sum of electronic and thermal Energies=              -835.630910
 Sum of electronic and thermal Enthalpies=            -835.629966
 Sum of electronic and thermal Free Energies=         -835.692623

                     E (Thermal)             CV                S
                      KCal/Mol        Cal/Mol-Kelvin    Cal/Mol-Kelvin
 Total                  164.911             62.081            131.872
 Electronic               0.000              0.000              0.000
 Translational            0.889              2.981             42.567
 Rotational               0.889              2.981             33.580
 Vibrational            163.133             56.119             55.724
 Vibration     1          0.593              1.985              6.323
 Vibration     2          0.594              1.983              5.715
 Vibration     3          0.595              1.979              5.035
 Vibration     4          0.596              1.974              4.493
 Vibration     5          0.599              1.965              3.967
 Vibration     6          0.604              1.949              3.442
 Vibration     7          0.606              1.943              3.304
 Vibration     8          0.617              1.907              2.718
 Vibration     9          0.648              1.809              1.949
 Vibration    10          0.666              1.752              1.686
 Vibration    11          0.674              1.728              1.595
 Vibration    12          0.681              1.708              1.525
 Vibration    13          0.719              1.599              1.219
 Vibration    14          0.742              1.534              1.079
 Vibration    15          0.762              1.479              0.979
 Vibration    16          0.781              1.432              0.899
 Vibration    17          0.816              1.342              0.771
 Vibration    18          0.866              1.227              0.633
 Vibration    19          0.875              1.207              0.611
 Vibration    20          0.900              1.151              0.555
 Vibration    21          0.909              1.131              0.536
 Vibration    22          0.930              1.088              0.497
 Vibration    23          0.951              1.045              0.461

 Optimization completed.
    -- Stationary point found.
 Normal termination of Gaussian 16 at Sat Dec 12 17:07:35 2020.

 ----------------------------------------------------------------------
 # B3LYP/6-311++G(d,p) empiricaldispersion=gd3bj scf=xqc pop=npa geom=c
 heck
 ----------------------------------------------------------------------

 ----------------------------------------
 CID_152496842_JID_10927_Energie_neutraal
 ----------------------------------------
 Structure from the checkpoint file:  "JID_10927.chk"
 Charge =  0 Multiplicity = 1

 SCF Done:  E(RB3LYP) =  -836.104829686     A.U. after   19 cycles
 Normal termination of Gaussian 16 at Sat Dec 12 17:14:16 2020.

 ----------------------------------------------------------------------
 # B3LYP/6-311++G(d,p) empiricaldispersion=gd3bj scf=xqc pop=npa geom=c
 heck
 ----------------------------------------------------------------------

 --------------------------------------
 CID_152496842_JID_10927_Energie_kation
 --------------------------------------
 Structure from the checkpoint file:  "JID_10927.chk"
 Charge =  1 Multiplicity = 2

 SCF Done:  E(UB3LYP) =  -835.834426492     A.U. after   28 cycles
 Normal termination of Gaussian 16 at Sat Dec 12 17:27:37 2020.
 Gaussian 16:  ES64L-G16RevA.03 25-Dec-2016

 ----------------------------------------------------------------------
 # B3LYP/6-311++G(d,p) empiricaldispersion=gd3bj scf=xqc pop=npa geom=c
 heck
 ----------------------------------------------------------------------

 -------------------------------------
 CID_152496842_JID_10927_Energie_anion
 -------------------------------------
 Structure from the checkpoint file:  "JID_10927.chk"
 Charge = -1 Multiplicity = 2

                         Standard orientation:
 ---------------------------------------------------------------------
 Center     Atomic      Atomic             Coordinates (Angstroms)
 Number     Number       Type             X           Y           Z
 ---------------------------------------------------------------------
      1          6           0       -1.479254    3.231000    0.346610
      2          6           0       -0.634666    3.290177   -0.761384
      3          6           0        0.453348    2.419908   -0.860216
      4          6           0        0.706829    1.474866    0.141903
      5          6           0       -0.138906    1.437412    1.261092
      6          6           0       -1.221955    2.306158    1.362725
      7          6           0        1.842097    0.521174    0.008558
      8          6           0        3.142653    1.032186   -0.085050
      9          6           0        4.250354    0.191771   -0.175145
     10          6           0        4.062196   -1.189903   -0.177410
     11          6           0        2.774108   -1.712751   -0.106469
     12          6           0        1.645654   -0.881545   -0.018385
     13          6           0        0.309003   -1.498627    0.020672
     14          6           0       -0.858908   -0.998380   -0.532541
     15          7           0       -1.861428   -1.895816   -0.253330
     16          6           0       -1.374861   -2.972715    0.453472
     17          6           0       -0.027790   -2.753780    0.629135
     18          7           0       -3.212097   -1.777921   -0.618943
     19          7           0       -3.656271   -0.629017   -0.372182
     20          7           0       -4.191879    0.371136   -0.269776
     21          1           0       -2.330396    3.901612    0.421845
     22          1           0       -0.824338    4.008701   -1.554043
     23          1           0        1.100953    2.452321   -1.732082
     24          1           0        0.051600    0.707521    2.041679
     25          1           0       -1.869246    2.262146    2.234299
     26          1           0        3.278292    2.109890   -0.060243
     27          1           0        5.249676    0.612845   -0.237272
     28          1           0        4.914169   -1.860299   -0.248367
     29          1           0        2.626643   -2.787789   -0.150294
     30          1           0       -1.058869   -0.100046   -1.093521
     31          1           0       -2.036701   -3.764334    0.767391
     32          1           0        0.650531   -3.402942    1.164801
 ---------------------------------------------------------------------

 SCF Done:  E(UB3LYP) =  -836.116330384     A.U. after   33 cycles
 SCF Done:  E(UB3LYP) =  -836.116330384     a.u. after    1 cycles

 The electronic state is 2-A.
 Alpha  occ. eigenvalues --  -14.27524 -14.25932 -14.22562 -14.19546 -10.07387
 Alpha  occ. eigenvalues --  -10.07142 -10.06970 -10.06798 -10.06754 -10.06720
 Alpha  occ. eigenvalues --  -10.06688 -10.06622 -10.06446 -10.06405 -10.06363
 Alpha  occ. eigenvalues --  -10.06264 -10.06012 -10.05734 -10.04701 -10.04097
 Alpha  occ. eigenvalues --   -0.97408  -0.88702  -0.78858  -0.76074  -0.73877
 Alpha  occ. eigenvalues --   -0.67536  -0.66472  -0.63554  -0.62804  -0.61385
 Alpha  occ. eigenvalues --   -0.60483  -0.52696  -0.51198  -0.49575  -0.48675
 Alpha  occ. eigenvalues --   -0.46696  -0.44864  -0.43053  -0.41565  -0.39030
 Alpha  occ. eigenvalues --   -0.36198  -0.35842  -0.35358  -0.34031  -0.33793
 Alpha  occ. eigenvalues --   -0.33401  -0.32595  -0.31242  -0.31160  -0.30940
 Alpha  occ. eigenvalues --   -0.29372  -0.29261  -0.27661  -0.27258  -0.26293
 Alpha  occ. eigenvalues --   -0.25851  -0.25428  -0.23854  -0.23268  -0.22534
 Alpha  occ. eigenvalues --   -0.19448  -0.16402  -0.15998  -0.14644  -0.13721
 Alpha  occ. eigenvalues --   -0.12870  -0.09342  -0.07802   0.04779
 Alpha virt. eigenvalues --    0.07165   0.07417   0.08252   0.08470   0.08672
 Alpha virt. eigenvalues --    0.09518   0.09593   0.09968   0.10628   0.10723
 Alpha virt. eigenvalues --    0.11250   0.11730   0.12127   0.12983   0.13172

  Beta  occ. eigenvalues --  -14.26972 -14.25734 -14.22615 -14.18722 -10.07331
  Beta  occ. eigenvalues --  -10.07143 -10.06916 -10.06783 -10.06731 -10.06677
  Beta  occ. eigenvalues --  -10.06676 -10.06545 -10.06423 -10.06421 -10.06362
  Beta  occ. eigenvalues --  -10.06280 -10.05940 -10.05678 -10.04704 -10.04090
  Beta  occ. eigenvalues --   -0.96434  -0.88199  -0.78460  -0.75943  -0.73788
  Beta  occ. eigenvalues --   -0.67361  -0.66316  -0.63464  -0.62599  -0.61268
  Beta  occ. eigenvalues --   -0.60398  -0.52451  -0.51123  -0.49418  -0.48515
  Beta  occ. eigenvalues --   -0.46538  -0.44780  -0.42988  -0.41506  -0.38959
  Beta  occ. eigenvalues --   -0.35949  -0.35456  -0.34638  -0.33924  -0.33465
  Beta  occ. eigenvalues --   -0.32709  -0.32411  -0.31204  -0.31050  -0.30653
  Beta  occ. eigenvalues --   -0.29138  -0.28156  -0.27342  -0.26278  -0.25985
  Beta  occ. eigenvalues --   -0.25641  -0.25178  -0.23784  -0.23197  -0.22469
  Beta  occ. eigenvalues --   -0.18237  -0.15821  -0.15574  -0.14421  -0.13509
  Beta  occ. eigenvalues --   -0.12607  -0.09226  -0.07599
  Beta virt. eigenvalues --    0.07134   0.08050   0.08204   0.08558   0.08598
  Beta virt. eigenvalues --    0.09447   0.09585   0.09919   0.10626   0.11085
  Beta virt. eigenvalues --    0.11171   0.11682   0.12112   0.12714   0.13136

 Mulliken charges and spin densities:
               1          2
     1  C   -0.317140   0.051901
     2  C   -0.438126   0.030840
     3  C   -0.369457  -0.006052
     4  C    0.974028   0.050665
     5  C   -0.661432   0.052914
     6  C   -0.146178  -0.004011
     7  C    0.337239  -0.013227
     8  C   -0.539746   0.012395
     9  C   -0.310978   0.016091
    10  C   -0.426457   0.064383
    11  C   -0.344921  -0.022120
    12  C    0.442454  -0.015446
    13  C    0.261020  -0.229079
    14  C   -0.583742   0.054134
    15  N    0.519000  -0.016817
    16  C   -0.169223  -0.123474
    17  C   -0.289431   0.227455
    18  N   -0.530275  -0.033111
    19  N    0.282440   0.178045
    20  N   -0.307766   0.523055
    21  H    0.123664  -0.005274
    22  H    0.142731  -0.002200
    23  H    0.159198   0.001126
    24  H    0.174488  -0.004679
    25  H    0.159685   0.003363
    26  H    0.147289   0.001883
    27  H    0.123445   0.002881
    28  H    0.130102  -0.002889
    29  H    0.127342  -0.000876
    30  H    0.213736   0.037968
    31  H    0.006320   0.139733
    32  H    0.110691   0.030424
 Sum of Mulliken charges =  -1.00000   1.00000

 Dipole moment (field-independent basis, Debye):
    X=              6.7001    Y=              1.3988    Z=              0.8973  Tot=              6.9031
 Quadrupole moment (field-independent basis, Debye-Ang):
   XX=           -173.2705   YY=           -138.0986   ZZ=           -124.9861
   XY=             -4.3235   XZ=             -6.2254   YZ=             -5.4034

 Summary of Natural Population Analysis:

                                       Natural Population
                Natural  -----------------------------------------------
    Atom  No    Charge         Core      Valence    Rydberg      Total
 -----------------------------------------------------------------------
      C    1   -0.09007      0.99957     2.08172    0.00878     3.09007
      C    2   -0.10130      0.99957     2.09298    0.00875     3.10130
      C    3   -0.10481      0.99952     2.09776    0.00754     3.10481
      C    4   -0.01394      0.99949     2.00309    0.01135     3.01394
      C    5   -0.08116      0.99952     2.07237    0.00927     3.08116
      C    6   -0.09932      0.99957     2.09149    0.00827     3.09932
      C    7   -0.01187      0.99946     2.00147    0.01093     3.01187
      C    8   -0.09453      0.99953     2.08723    0.00778     3.09453
      C    9   -0.11450      0.99957     2.10560    0.00933     3.11450
      C   10   -0.09582      0.99957     2.08737    0.00888     3.09582
      C   11   -0.10130      0.99954     2.09403    0.00773     3.10130
      C   12    0.00004      0.99946     1.99105    0.00946     2.99996
      C   13   -0.07831      0.99951     2.06719    0.01160     3.07831
      C   14   -0.00781      0.99950     1.99715    0.01115     3.00781
      N   15   -0.08901      0.99960     2.57819    0.01122     3.58901
      C   16   -0.02234      0.99956     2.01112    0.01167     3.02234
      C   17   -0.14554      0.99954     2.13789    0.00811     3.14554
      N   18   -0.15405      0.99971     2.63796    0.01639     3.65405
      N   19    0.14399      0.99971     2.34153    0.01477     3.35601
      N   20    0.07453      0.99981     2.41176    0.01390     3.42547
      H   21    0.09688      0.00000     0.40219    0.00092     0.40312
      H   22    0.09472      0.00000     0.40434    0.00094     0.40528
      H   23    0.09822      0.00000     0.40060    0.00118     0.40178
      H   24    0.10290      0.00000     0.39610    0.00100     0.39710
      H   25    0.09811      0.00000     0.40059    0.00130     0.40189
      H   26    0.09819      0.00000     0.40060    0.00120     0.40181
      H   27    0.09385      0.00000     0.40518    0.00098     0.40615
      H   28    0.09330      0.00000     0.40577    0.00094     0.40670
      H   29    0.09892      0.00000     0.39970    0.00138     0.40108
      H   30    0.11103      0.00000     0.38746    0.00151     0.38897
      H   31    0.10145      0.00000     0.39725    0.00130     0.39855
      H   32    0.09953      0.00000     0.39941    0.00105     0.40047
 =======================================================================
   * Total *   -0.00000     19.99132    47.78813    0.22055    68.00000

 Normal termination of Gaussian 16 at Sat Dec 12 17:43:19 2020.
