 Gaussian 16, Revision A.03,

 -----------------------------------------------------------
 # opt freq B3LYP/6-31G(d) empiricaldispersion=gd3bj scf=xqc
 -----------------------------------------------------------

 -------------------------------
 CID_131308960_JID_5013_neutraal
 -------------------------------
 Symbolic Z-matrix:
 Charge =  0 Multiplicity = 1

 SCF Done:  E(RB3LYP) =  -670.332965404     A.U. after   15 cycles
 SCF Done:  E(RB3LYP) =  -670.336886615     A.U. after   14 cycles
 SCF Done:  E(RB3LYP) =  -670.338490665     A.U. after   12 cycles
 SCF Done:  E(RB3LYP) =  -670.338882518     A.U. after   13 cycles
 SCF Done:  E(RB3LYP) =  -670.338924933     A.U. after   12 cycles
 SCF Done:  E(RB3LYP) =  -670.339258499     A.U. after   12 cycles
 SCF Done:  E(RB3LYP) =  -670.339669419     A.U. after   12 cycles
 SCF Done:  E(RB3LYP) =  -670.340607612     A.U. after   15 cycles
 SCF Done:  E(RB3LYP) =  -670.340969343     A.U. after   12 cycles
 SCF Done:  E(RB3LYP) =  -670.341398002     A.U. after   13 cycles
 SCF Done:  E(RB3LYP) =  -670.343913891     A.U. after    9 cycles
 SCF Done:  E(RB3LYP) =  -670.343914493     A.U. after    9 cycles
 SCF Done:  E(RB3LYP) =  -670.343915720     A.U. after   10 cycles
 SCF Done:  E(RB3LYP) =  -670.343916567     A.U. after   10 cycles
 SCF Done:  E(RB3LYP) =  -670.343917462     A.U. after   11 cycles
 SCF Done:  E(RB3LYP) =  -670.343917829     A.U. after    9 cycles
 Optimization completed.
    -- Stationary point found.
 Normal termination of Gaussian 16 at Thu Dec 10 15:10:13 2020.

 --------------------------------------------------------------------
 #N Geom=AllCheck Guess=TCheck SCRF=Check GenChk RB3LYP/6-31G(d) Freq
 --------------------------------------------------------------------

 Structure from the checkpoint file:  "JID_5013.chk"
 -------------------------------
 CID_131308960_JID_5013_neutraal
 -------------------------------
 Charge =  0 Multiplicity = 1

 SCF Done:  E(RB3LYP) =  -670.343917829     A.U. after    1 cycles

  Exact polarizability: 181.349  -9.431 162.396  -6.094   0.269  71.782
 Approx polarizability: 274.100  -9.464 262.737 -15.056   0.193 108.070

                      1                      2                      3
                      A                      A                      A
 Frequencies --     19.4916                42.1718                78.0885
 Red. masses --      4.0176                 3.7855                 4.5508
 Frc consts  --      0.0009                 0.0040                 0.0163
 IR Inten    --      2.3049                 0.4174                 3.0817

                      4                      5                      6
                      A                      A                      A
 Frequencies --     91.4102               139.4565               153.0043
 Red. masses --      3.0778                 9.4229                 4.1391
 Frc consts  --      0.0152                 0.1080                 0.0571
 IR Inten    --      0.0381                 3.6011                 1.6467

                      7                      8                      9
                      A                      A                      A
 Frequencies --    162.2983               191.9479               211.7902
 Red. masses --      3.2771                 2.0780                 1.0765
 Frc consts  --      0.0509                 0.0451                 0.0284
 IR Inten    --      1.2771                 0.1119                 1.2648

                     10                     11                     12
                      A                      A                      A
 Frequencies --    217.3643               218.5327               299.8305
 Red. masses --      1.0848                 1.5151                 2.7469
 Frc consts  --      0.0302                 0.0426                 0.1455
 IR Inten    --      0.2672                 1.4736                 5.4912

                     13                     14                     15
                      A                      A                      A
 Frequencies --    323.8212               349.6534               366.9274
 Red. masses --      4.1357                 4.0829                 4.6085
 Frc consts  --      0.2555                 0.2941                 0.3656
 IR Inten    --      2.6342                 0.7556                 1.2457

                     16                     17                     18
                      A                      A                      A
 Frequencies --    387.5862               414.6210               435.4406
 Red. masses --      3.7345                 5.1576                 6.4645
 Frc consts  --      0.3305                 0.5224                 0.7222
 IR Inten    --      3.3127                 3.0180                 0.4933

                     19                     20                     21
                      A                      A                      A
 Frequencies --    454.8789               491.9117               506.4939
 Red. masses --      4.0129                 4.7068                 3.9312
 Frc consts  --      0.4892                 0.6710                 0.5942
 IR Inten    --      1.8257                 1.9770                 3.6764

                     22                     23                     24
                      A                      A                      A
 Frequencies --    554.8377               599.4657               630.8615
 Red. masses --      4.8576                 4.2122                 3.8627
 Frc consts  --      0.8810                 0.8918                 0.9057
 IR Inten    --      2.7825                21.1849                 0.5640

                     25                     26                     27
                      A                      A                      A
 Frequencies --    645.8900               673.9087               732.5645
 Red. masses --      3.6202                 4.1807                 3.3978
 Frc consts  --      0.8898                 1.1187                 1.0743
 IR Inten    --      0.0060                16.7114                 1.7369

                     28                     29                     30
                      A                      A                      A
 Frequencies --    762.6802               825.0148               872.3085
 Red. masses --      3.8601                 1.2021                 4.7474
 Frc consts  --      1.3229                 0.4821                 2.1284
 IR Inten    --      6.0382                 0.9659                 3.6541

                     31                     32                     33
                      A                      A                      A
 Frequencies --    884.2321               892.8162               909.1134
 Red. masses --      1.5446                 2.8777                 1.4040
 Frc consts  --      0.7116                 1.3515                 0.6837
 IR Inten    --     22.9328                 3.6246                 7.4706

                     34                     35                     36
                      A                      A                      A
 Frequencies --    977.5814               992.2570              1049.8072
 Red. masses --      1.9035                 3.3717                 1.7313
 Frc consts  --      1.0718                 1.9559                 1.1242
 IR Inten    --     32.7505                 7.2470                 0.4997

                     37                     38                     39
                      A                      A                      A
 Frequencies --   1060.8497              1072.3123              1088.8375
 Red. masses --      1.7108                 1.5905                 2.9262
 Frc consts  --      1.1343                 1.0775                 2.0440
 IR Inten    --      8.0648                 3.3133                41.4750

                     40                     41                     42
                      A                      A                      A
 Frequencies --   1126.6339              1153.1293              1204.6193
 Red. masses --      1.9896                 3.4323                 1.7114
 Frc consts  --      1.4879                 2.6890                 1.4632
 IR Inten    --     24.3178                47.7862                16.9402

                     43                     44                     45
                      A                      A                      A
 Frequencies --   1229.9124              1243.8100              1282.5457
 Red. masses --      1.8372                 4.3953                 1.6680
 Frc consts  --      1.6374                 4.0063                 1.6166
 IR Inten    --     44.7190               128.2757                80.8403

                     46                     47                     48
                      A                      A                      A
 Frequencies --   1323.5061              1331.7618              1363.0228
 Red. masses --      2.8657                 1.5958                 3.4305
 Frc consts  --      2.9576                 1.6675                 3.7551
 IR Inten    --    112.6247                18.8353               164.1492

                     49                     50                     51
                      A                      A                      A
 Frequencies --   1408.0647              1423.2012              1444.7561
 Red. masses --      1.2949                 1.3864                 1.3100
 Frc consts  --      1.5126                 1.6545                 1.6111
 IR Inten    --     17.4875                 6.6370                27.2886

                     52                     53                     54
                      A                      A                      A
 Frequencies --   1448.2064              1463.5242              1495.9610
 Red. masses --      1.2354                 2.7268                 2.0565
 Frc consts  --      1.5266                 3.4412                 2.7115
 IR Inten    --     11.3408                 0.9311                51.3463

                     55                     56                     57
                      A                      A                      A
 Frequencies --   1504.5809              1509.9080              1512.4405
 Red. masses --      1.1294                 1.0460                 1.0483
 Frc consts  --      1.5063                 1.4050                 1.4129
 IR Inten    --      7.0762                 5.1527                11.2876

                     58                     59                     60
                      A                      A                      A
 Frequencies --   1516.4295              1519.5099              1531.7491
 Red. masses --      1.0635                 1.4310                 1.0545
 Frc consts  --      1.4409                 1.9467                 1.4578
 IR Inten    --      6.4851                71.6288                 0.3883

                     61                     62                     63
                      A                      A                      A
 Frequencies --   1548.6702              1618.0005              1659.9675
 Red. masses --      1.0960                 6.5266                 5.2812
 Frc consts  --      1.5488                10.0669                 8.5740
 IR Inten    --      6.5702                11.6061               134.2345

                     64                     65                     66
                      A                      A                      A
 Frequencies --   1777.5010              2350.4532              3047.3775
 Red. masses --     10.6310                12.6844                 1.0691
 Frc consts  --     19.7899                41.2878                 5.8495
 IR Inten    --    150.8350                24.0022                38.5405

                     67                     68                     69
                      A                      A                      A
 Frequencies --   3055.0368              3063.8952              3078.3485
 Red. masses --      1.0386                 1.0358                 1.0357
 Frc consts  --      5.7114                 5.7292                 5.7825
 IR Inten    --      3.3140                11.5144                 7.5817

                     70                     71                     72
                      A                      A                      A
 Frequencies --   3116.0292              3120.1100              3134.6472
 Red. masses --      1.1004                 1.0980                 1.1007
 Frc consts  --      6.2949                 6.2976                 6.3721
 IR Inten    --      9.7663                 5.4806                33.0347

                     73                     74                     75
                      A                      A                      A
 Frequencies --   3137.1961              3146.5750              3159.1981
 Red. masses --      1.0996                 1.1035                 1.1042
 Frc consts  --      6.3762                 6.4370                 6.4933
 IR Inten    --      5.5348                41.9151                10.9809

                     76                     77                     78
                      A                      A                      A
 Frequencies --   3173.8692              3233.0042              3267.5691
 Red. masses --      1.1008                 1.0921                 1.0878
 Frc consts  --      6.5331                 6.7255                 6.8433
 IR Inten    --      9.4592                 0.5193                 5.3226

 - Thermochemistry -
 -------------------
 Temperature   298.150 Kelvin.  Pressure   1.00000 Atm.
 Atom     1 has atomic number  6 and mass  12.00000

 Molecular mass:   203.09463 amu.
 Principal axes and moments of inertia in atomic units:
                           1         2         3
     Eigenvalues --  2684.538173606.696686082.36630
           X            0.99984   0.01722   0.00554
           Y           -0.01723   0.99985   0.00098
           Z           -0.00552  -0.00107   0.99998
 This molecule is an asymmetric top.
 Rotational symmetry number  1.
 Warning -- assumption of classical behavior for rotation
           may cause significant error
 Rotational temperatures (Kelvin)      0.03226     0.02401     0.01424
 Rotational constants (GHZ):           0.67227     0.50039     0.29672
 Zero-point vibrational energy     595182.7 (Joules/Mol)
                                  142.25208 (Kcal/Mol)
 Warning -- explicit consideration of  23 degrees of freedom as
           vibrations may cause significant error
 Vibrational temperatures:     28.04    60.68   112.35   131.52   200.65
          (Kelvin)            220.14   233.51   276.17   304.72   312.74
                              314.42   431.39   465.91   503.07   527.93
                              557.65   596.55   626.50   654.47   707.75
                              728.73   798.29   862.50   907.67   929.29
                              969.60  1054.00  1097.33  1187.01  1255.06
                             1272.21  1284.56  1308.01  1406.52  1427.64
                             1510.44  1526.33  1542.82  1566.59  1620.97
                             1659.10  1733.18  1769.57  1789.57  1845.30
                             1904.23  1916.11  1961.09  2025.89  2047.67
                             2078.68  2083.65  2105.68  2152.35  2164.76
                             2172.42  2176.06  2181.80  2186.24  2203.85
                             2228.19  2327.94  2388.32  2557.43  3381.78
                             4384.50  4395.52  4408.26  4429.06  4483.27
                             4489.14  4510.06  4513.73  4527.22  4545.38
                             4566.49  4651.57  4701.30

 Zero-point correction=                           0.226693 (Hartree/Particle)
 Thermal correction to Energy=                    0.241662
 Thermal correction to Enthalpy=                  0.242607
 Thermal correction to Gibbs Free Energy=         0.183675
 Sum of electronic and zero-point Energies=           -670.117225
 Sum of electronic and thermal Energies=              -670.102255
 Sum of electronic and thermal Enthalpies=            -670.101311
 Sum of electronic and thermal Free Energies=         -670.160243

                     E (Thermal)             CV                S
                      KCal/Mol        Cal/Mol-Kelvin    Cal/Mol-Kelvin
 Total                  151.645             55.333            124.033
 Electronic               0.000              0.000              0.000
 Translational            0.889              2.981             41.830
 Rotational               0.889              2.981             32.443
 Vibrational            149.868             49.371             49.760
 Vibration     1          0.593              1.986              6.685
 Vibration     2          0.595              1.980              5.154
 Vibration     3          0.599              1.964              3.938
 Vibration     4          0.602              1.955              3.630
 Vibration     5          0.615              1.914              2.811
 Vibration     6          0.619              1.899              2.635
 Vibration     7          0.622              1.889              2.523
 Vibration     8          0.634              1.851              2.209
 Vibration     9          0.643              1.823              2.028
 Vibration    10          0.646              1.815              1.981
 Vibration    11          0.646              1.813              1.971
 Vibration    12          0.692              1.674              1.418
 Vibration    13          0.708              1.628              1.291
 Vibration    14          0.727              1.576              1.168
 Vibration    15          0.740              1.540              1.093
 Vibration    16          0.756              1.497              1.009
 Vibration    17          0.778              1.438              0.910
 Vibration    18          0.796              1.393              0.841
 Vibration    19          0.813              1.350              0.781
 Vibration    20          0.848              1.268              0.679
 Vibration    21          0.862              1.236              0.642
 Vibration    22          0.910              1.129              0.534
 Vibration    23          0.958              1.033              0.451

                           ! Non-Optimized Parameters !
 Normal termination of Gaussian 16 at Thu Dec 10 15:18:43 2020.

 ----------------------------------------------------------------------
 # B3LYP/6-311++G(d,p) empiricaldispersion=gd3bj scf=xqc pop=npa geom=c
 heck
 ----------------------------------------------------------------------

 ---------------------------------------
 CID_131308960_JID_5013_Energie_neutraal
 ---------------------------------------
 Structure from the checkpoint file:  "JID_5013.chk"
 Charge =  0 Multiplicity = 1

 SCF Done:  E(RB3LYP) =  -670.525288518     A.U. after   15 cycles
 Normal termination of Gaussian 16 at Thu Dec 10 15:22:35 2020.

 ----------------------------------------------------------------------
 # B3LYP/6-311++G(d,p) empiricaldispersion=gd3bj scf=xqc pop=npa geom=c
 heck
 ----------------------------------------------------------------------

 -------------------------------------
 CID_131308960_JID_5013_Energie_kation
 -------------------------------------
 Structure from the checkpoint file:  "JID_5013.chk"
 Charge =  1 Multiplicity = 2

 SCF Done:  E(UB3LYP) =  -670.211244566     A.U. after   27 cycles
 Normal termination of Gaussian 16 at Thu Dec 10 15:32:42 2020.
 Gaussian 16:  ES64L-G16RevA.03 25-Dec-2016

 ----------------------------------------------------------------------
 # B3LYP/6-311++G(d,p) empiricaldispersion=gd3bj scf=xqc pop=npa geom=c
 heck
 ----------------------------------------------------------------------

 ------------------------------------
 CID_131308960_JID_5013_Energie_anion
 ------------------------------------
 Structure from the checkpoint file:  "JID_5013.chk"
 Charge = -1 Multiplicity = 2

                         Standard orientation:
 ---------------------------------------------------------------------
 Center     Atomic      Atomic             Coordinates (Angstroms)
 Number     Number       Type             X           Y           Z
 ---------------------------------------------------------------------
      1          6           0        3.881637    0.360325    0.962420
      2          6           0        3.457760    0.827796   -0.424364
      3          8           0        2.260922    1.612295   -0.393848
      4          6           0        1.058185    0.994053   -0.247077
      5          6           0       -0.048562    1.836277   -0.142084
      6          6           0       -1.329885    1.293939   -0.008687
      7          6           0       -1.568046   -0.100213    0.027432
      8          6           0       -0.433191   -0.936806   -0.077815
      9          6           0        0.853685   -0.385077   -0.211002
     10          6           0       -0.559886   -2.432633   -0.048269
     11          8           0       -1.644829   -2.989211    0.019702
     12          6           0        0.706673   -3.277874   -0.104856
     13          6           0       -2.976957   -0.612736    0.175859
     14          6           0       -2.421346    2.221594    0.093605
     15          7           0       -3.287685    2.993165    0.175100
     16          1           0        4.012499    1.220962    1.625191
     17          1           0        4.833405   -0.178842    0.901219
     18          1           0        3.139566   -0.305511    1.413183
     19          1           0        4.206990    1.501761   -0.846628
     20          1           0        3.339988   -0.011877   -1.121646
     21          1           0        0.097194    2.910089   -0.167852
     22          1           0        1.700626   -1.050544   -0.287542
     23          1           0        1.256275   -3.112748   -1.038856
     24          1           0        1.383842   -3.045197    0.724919
     25          1           0        0.412158   -4.326329   -0.045725
     26          1           0       -3.263307   -1.231921   -0.678360
     27          1           0       -3.073534   -1.255773    1.054559
     28          1           0       -3.681060    0.217222    0.264030
 ---------------------------------------------------------------------

 SCF Done:  E(UB3LYP) =  -670.553096346     A.U. after   26 cycles

 The electronic state is 2-A.
 Alpha  occ. eigenvalues --  -19.03579 -18.93478 -14.17150 -10.13116 -10.09860
 Alpha  occ. eigenvalues --  -10.08724 -10.07643 -10.07400 -10.06021 -10.05550
 Alpha  occ. eigenvalues --  -10.04093 -10.02969 -10.02820 -10.02556 -10.02366
 Alpha  occ. eigenvalues --   -0.95183  -0.87859  -0.77338  -0.72639  -0.67671
 Alpha  occ. eigenvalues --   -0.64306  -0.63050  -0.59940  -0.56744  -0.52853
 Alpha  occ. eigenvalues --   -0.50890  -0.47308  -0.43583  -0.38783  -0.37830
 Alpha  occ. eigenvalues --   -0.36018  -0.34985  -0.33695  -0.32711  -0.31723
 Alpha  occ. eigenvalues --   -0.31130  -0.30260  -0.28737  -0.28562  -0.27516
 Alpha  occ. eigenvalues --   -0.26042  -0.25577  -0.25257  -0.23813  -0.23716
 Alpha  occ. eigenvalues --   -0.23270  -0.22520  -0.22085  -0.21147  -0.19737
 Alpha  occ. eigenvalues --   -0.18226  -0.12650  -0.09621  -0.09514   0.03180
 Alpha virt. eigenvalues --    0.06725   0.08763   0.09013   0.09917   0.10147
 Alpha virt. eigenvalues --    0.11217   0.11463   0.12078   0.12385   0.13821
 Alpha virt. eigenvalues --    0.14008   0.14760   0.14806   0.14994   0.15922

  Beta  occ. eigenvalues --  -19.03603 -18.92973 -14.17078 -10.13112 -10.09986
  Beta  occ. eigenvalues --  -10.08490 -10.07634 -10.07393 -10.05966 -10.05572
  Beta  occ. eigenvalues --  -10.04116 -10.02821 -10.02815 -10.02215 -10.01919
  Beta  occ. eigenvalues --   -0.95229  -0.86968  -0.77212  -0.72294  -0.67638
  Beta  occ. eigenvalues --   -0.63829  -0.62695  -0.59734  -0.56700  -0.52637
  Beta  occ. eigenvalues --   -0.50208  -0.46974  -0.43442  -0.38697  -0.37398
  Beta  occ. eigenvalues --   -0.35898  -0.34863  -0.33537  -0.32588  -0.31506
  Beta  occ. eigenvalues --   -0.30555  -0.30206  -0.28606  -0.28424  -0.27235
  Beta  occ. eigenvalues --   -0.25914  -0.25259  -0.25031  -0.23643  -0.23601
  Beta  occ. eigenvalues --   -0.22990  -0.22390  -0.20984  -0.20307  -0.19663
  Beta  occ. eigenvalues --   -0.17282  -0.10610  -0.09061  -0.08572
  Beta virt. eigenvalues --    0.06670   0.08684   0.08817   0.09644   0.10095
  Beta virt. eigenvalues --    0.10798   0.11195   0.11490   0.12101   0.12431
  Beta virt. eigenvalues --    0.13845   0.13977   0.14748   0.14789   0.14965

 Mulliken charges and spin densities:
               1          2
     1  C   -0.341549  -0.026230
     2  C   -0.201158  -0.010908
     3  O   -0.139278   0.001213
     4  C    0.227174  -0.087197
     5  C   -0.273655   0.356706
     6  C    1.523487   0.034169
     7  C   -0.222118  -0.028847
     8  C    0.771343   0.107545
     9  C   -0.202087   0.298829
    10  C   -0.368712   0.135459
    11  O   -0.361136   0.171715
    12  C   -0.531682  -0.011729
    13  C   -0.375014   0.003577
    14  C   -1.843894  -0.007625
    15  N   -0.267752   0.038168
    16  H    0.140919   0.000688
    17  H    0.090556   0.005578
    18  H    0.138582   0.016362
    19  H    0.164435  -0.000276
    20  H    0.122881   0.018191
    21  H    0.155702  -0.028832
    22  H   -0.043107  -0.022821
    23  H    0.110525   0.024423
    24  H    0.106490   0.014124
    25  H    0.160286  -0.001656
    26  H    0.162487   0.000001
    27  H    0.161830  -0.000349
    28  H    0.134446  -0.000277
 Sum of Mulliken charges =  -1.00000   1.00000

 Dipole moment (field-independent basis, Debye):
    X=              8.3367    Y=             -1.2151    Z=              0.0094  Tot=              8.4248
 Quadrupole moment (field-independent basis, Debye-Ang):
   XX=           -120.2292   YY=           -135.6479   ZZ=            -96.3853
   XY=              6.7178   XZ=              0.9852   YZ=             -0.3359

 Summary of Natural Population Analysis:

                                       Natural Population
                Natural  -----------------------------------------------
    Atom  No    Charge         Core      Valence    Rydberg      Total
 -----------------------------------------------------------------------
      C    1   -0.30230      0.99968     2.29850    0.00412     3.30230
      C    2   -0.00914      0.99959     1.99934    0.01021     3.00914
      O    3   -0.28617      0.99985     3.27575    0.01056     4.28617
      C    4    0.12894      0.99936     1.85950    0.01220     2.87106
      C    5   -0.02212      0.99955     2.00814    0.01443     3.02212
      C    6   -0.04005      0.99938     2.02928    0.01139     3.04005
      C    7   -0.00351      0.99953     1.98833    0.01566     3.00351
      C    8   -0.06572      0.99948     2.04739    0.01885     3.06572
      C    9   -0.06110      0.99950     2.05405    0.00755     3.06110
      C   10    0.37453      0.99969     1.60325    0.02253     2.62547
      O   11   -0.27907      0.99990     3.25529    0.02388     4.27907
      C   12   -0.34082      0.99969     2.33276    0.00838     3.34082
      C   13   -0.29655      0.99963     2.29119    0.00572     3.29655
      C   14    0.15107      0.99970     1.82928    0.01995     2.84893
      N   15   -0.20296      0.99979     2.69232    0.01085     3.70296
      H   16    0.09863      0.00000     0.40033    0.00104     0.40137
      H   17    0.09408      0.00000     0.40493    0.00099     0.40592
      H   18    0.10875      0.00000     0.39031    0.00094     0.39125
      H   19    0.08446      0.00000     0.41439    0.00115     0.41554
      H   20    0.08261      0.00000     0.41579    0.00160     0.41739
      H   21    0.09634      0.00000     0.40220    0.00146     0.40366
      H   22    0.09219      0.00000     0.40628    0.00153     0.40781
      H   23    0.09792      0.00000     0.39940    0.00268     0.40208
      H   24    0.09835      0.00000     0.40031    0.00133     0.40165
      H   25    0.10167      0.00000     0.39665    0.00168     0.39833
      H   26    0.11000      0.00000     0.38880    0.00121     0.39000
      H   27    0.10979      0.00000     0.38898    0.00123     0.39021
      H   28    0.09727      0.00000     0.40159    0.00114     0.40273
 =======================================================================
   * Total *    0.01708     14.99433    38.77433    0.21426    53.98292

 Normal termination of Gaussian 16 at Thu Dec 10 15:42:56 2020.
