 Gaussian 16, Revision A.03,

 -----------------------------------------------------------
 # opt freq B3LYP/6-31G(d) empiricaldispersion=gd3bj scf=xqc
 -----------------------------------------------------------

 ------------------------------
 CID_81874136_JID_7092_neutraal
 ------------------------------
 Symbolic Z-matrix:
 Charge =  0 Multiplicity = 1

 SCF Done:  E(RB3LYP) =  -788.477123146     A.U. after   14 cycles
 SCF Done:  E(RB3LYP) =  -788.483213697     A.U. after   12 cycles
 SCF Done:  E(RB3LYP) =  -788.483222273     A.U. after   12 cycles
 SCF Done:  E(RB3LYP) =  -788.483854278     A.U. after   11 cycles
 SCF Done:  E(RB3LYP) =  -788.484999867     A.U. after   11 cycles
 SCF Done:  E(RB3LYP) =  -788.485241596     A.U. after   10 cycles
 SCF Done:  E(RB3LYP) =  -788.485312487     A.U. after   10 cycles
 SCF Done:  E(RB3LYP) =  -788.485330272     A.U. after    9 cycles
 SCF Done:  E(RB3LYP) =  -788.485337510     A.U. after    9 cycles
 SCF Done:  E(RB3LYP) =  -788.485338999     A.U. after    8 cycles
 SCF Done:  E(RB3LYP) =  -788.485339591     A.U. after    7 cycles
 SCF Done:  E(RB3LYP) =  -788.485339753     A.U. after    7 cycles
 SCF Done:  E(RB3LYP) =  -788.485339820     A.U. after    6 cycles
 Optimization completed.
    -- Stationary point found.
 Normal termination of Gaussian 16 at Sun Dec 13 20:07:24 2020.

 --------------------------------------------------------------------
 #N Geom=AllCheck Guess=TCheck SCRF=Check GenChk RB3LYP/6-31G(d) Freq
 --------------------------------------------------------------------

 Structure from the checkpoint file:  "JID_7092.chk"
 ------------------------------
 CID_81874136_JID_7092_neutraal
 ------------------------------
 Charge =  0 Multiplicity = 1

 SCF Done:  E(RB3LYP) =  -788.485339819     A.U. after    1 cycles

  Exact polarizability: 184.826   1.002 170.893  -2.755  -3.392 109.047
 Approx polarizability: 251.131  -0.404 261.431  -7.334 -12.939 157.483

                      1                      2                      3
                      A                      A                      A
 Frequencies --     29.6243                61.1816                80.6473
 Red. masses --      4.0335                 3.2391                 2.6146
 Frc consts  --      0.0021                 0.0071                 0.0100
 IR Inten    --      0.6417                 3.0594                 2.2264

                      4                      5                      6
                      A                      A                      A
 Frequencies --     89.7024               102.6977               133.0416
 Red. masses --      3.1264                 3.4799                 4.0555
 Frc consts  --      0.0148                 0.0216                 0.0423
 IR Inten    --      0.2919                 2.2608                 2.1553

                      7                      8                      9
                      A                      A                      A
 Frequencies --    154.6524               182.5199               203.3581
 Red. masses --      3.4490                 3.1391                 1.5792
 Frc consts  --      0.0486                 0.0616                 0.0385
 IR Inten    --      2.3860                 1.2849                 0.8876

                     10                     11                     12
                      A                      A                      A
 Frequencies --    211.7634               217.4989               233.2458
 Red. masses --      1.6186                 1.6611                 1.7033
 Frc consts  --      0.0428                 0.0463                 0.0546
 IR Inten    --      3.0560                 3.7365                 3.9181

                     13                     14                     15
                      A                      A                      A
 Frequencies --    236.0907               251.2348               262.0661
 Red. masses --      1.2276                 1.9431                 1.9232
 Frc consts  --      0.0403                 0.0723                 0.0778
 IR Inten    --     12.9086                 6.0296                21.9393

                     16                     17                     18
                      A                      A                      A
 Frequencies --    281.8040               285.7748               288.0091
 Red. masses --      2.5418                 1.6283                 1.6874
 Frc consts  --      0.1189                 0.0783                 0.0825
 IR Inten    --      7.5420                 0.6260                 5.9358

                     19                     20                     21
                      A                      A                      A
 Frequencies --    313.0209               329.5714               346.8865
 Red. masses --      2.9701                 2.6405                 1.8949
 Frc consts  --      0.1715                 0.1690                 0.1343
 IR Inten    --      1.8267                 4.1213                40.6645

                     22                     23                     24
                      A                      A                      A
 Frequencies --    349.2621               379.4977               421.1109
 Red. masses --      1.9035                 2.7606                 2.2985
 Frc consts  --      0.1368                 0.2342                 0.2402
 IR Inten    --     38.2202                72.5890                 1.3402

                     25                     26                     27
                      A                      A                      A
 Frequencies --    450.0234               471.2960               500.1178
 Red. masses --      5.0860                 4.3817                 4.4179
 Frc consts  --      0.6069                 0.5734                 0.6510
 IR Inten    --      5.7420                 7.9915                 0.8055

                     28                     29                     30
                      A                      A                      A
 Frequencies --    551.0953               580.0194               624.0067
 Red. masses --      5.1191                 4.3694                 3.1428
 Frc consts  --      0.9160                 0.8661                 0.7210
 IR Inten    --     13.5370                 1.9756                 5.6727

                     31                     32                     33
                      A                      A                      A
 Frequencies --    635.2572               640.5499               659.0883
 Red. masses --      4.8983                 3.9893                 3.6251
 Frc consts  --      1.1647                 0.9644                 0.9278
 IR Inten    --      0.6391                 4.7915                 2.5882

                     34                     35                     36
                      A                      A                      A
 Frequencies --    719.8953               772.6579               838.6537
 Red. masses --      2.9235                 2.9127                 1.5238
 Frc consts  --      0.8927                 1.0245                 0.6315
 IR Inten    --      3.0387                 7.5844                24.7367

                     37                     38                     39
                      A                      A                      A
 Frequencies --    857.7593               870.1936               903.2640
 Red. masses --      1.5270                 1.3502                 2.0043
 Frc consts  --      0.6619                 0.6024                 0.9635
 IR Inten    --    110.1285                20.8494                 1.0742

                     40                     41                     42
                      A                      A                      A
 Frequencies --    916.5029               942.9905               948.0410
 Red. masses --      1.4563                 2.4848                 1.1639
 Frc consts  --      0.7207                 1.3018                 0.6164
 IR Inten    --     20.5711                 4.7311                 5.2580

                     43                     44                     45
                      A                      A                      A
 Frequencies --    963.0739               979.0637              1011.7363
 Red. masses --      4.5144                 1.4605                 2.1012
 Frc consts  --      2.4670                 0.8249                 1.2672
 IR Inten    --     27.6643                 0.0504                53.3384

                     46                     47                     48
                      A                      A                      A
 Frequencies --   1017.7341              1033.8915              1074.3464
 Red. masses --      4.8956                 2.4393                 3.5122
 Frc consts  --      2.9876                 1.5363                 2.3884
 IR Inten    --      2.3920                12.4721                17.3791

                     49                     50                     51
                      A                      A                      A
 Frequencies --   1101.1171              1109.8969              1117.5299
 Red. masses --      3.5352                 2.2509                 2.6433
 Frc consts  --      2.5254                 1.6337                 1.9450
 IR Inten    --     46.8513                41.5021                19.6694

                     52                     53                     54
                      A                      A                      A
 Frequencies --   1156.1847              1171.4956              1186.7261
 Red. masses --      1.8029                 1.8579                 1.2719
 Frc consts  --      1.4200                 1.5023                 1.0554
 IR Inten    --     10.2147                 3.5800                 0.0079

                     55                     56                     57
                      A                      A                      A
 Frequencies --   1187.0376              1200.5892              1207.7972
 Red. masses --      1.2724                 1.7854                 1.5624
 Frc consts  --      1.0564                 1.5163                 1.3429
 IR Inten    --      1.4746                83.0590                99.1753

                     58                     59                     60
                      A                      A                      A
 Frequencies --   1209.9424              1221.3518              1237.1034
 Red. masses --      1.8557                 1.4012                 1.9816
 Frc consts  --      1.6006                 1.2315                 1.7868
 IR Inten    --     10.2381                 0.8292                 2.1317

                     61                     62                     63
                      A                      A                      A
 Frequencies --   1248.4677              1302.7823              1330.5784
 Red. masses --      2.0764                 1.4345                 1.6133
 Frc consts  --      1.9068                 1.4345                 1.6829
 IR Inten    --    238.0285                 0.2719                 9.0116

                     64                     65                     66
                      A                      A                      A
 Frequencies --   1344.6922              1355.1664              1377.7073
 Red. masses --      2.1710                 1.5251                 1.3393
 Frc consts  --      2.3129                 1.6501                 1.4977
 IR Inten    --     86.7689                49.8712                 0.0141

                     67                     68                     69
                      A                      A                      A
 Frequencies --   1396.6750              1402.5154              1426.9159
 Red. masses --      2.3714                 2.7565                 1.2565
 Frc consts  --      2.7255                 3.1946                 1.5074
 IR Inten    --     25.8676                80.1202                 1.1431

                     70                     71                     72
                      A                      A                      A
 Frequencies --   1437.9492              1449.1386              1481.1028
 Red. masses --      1.3557                 1.2454                 1.6871
 Frc consts  --      1.6516                 1.5409                 2.1805
 IR Inten    --     18.6845                20.3108                91.2640

                     73                     74                     75
                      A                      A                      A
 Frequencies --   1497.8943              1513.8163              1516.9049
 Red. masses --      1.6278                 1.7758                 1.0610
 Frc consts  --      2.1519                 2.3976                 1.4384
 IR Inten    --     15.4582                24.6912                 1.2427

                     76                     77                     78
                      A                      A                      A
 Frequencies --   1519.4446              1520.2172              1520.9774
 Red. masses --      1.0507                 1.0478                 1.7829
 Frc consts  --      1.4292                 1.4268                 2.4300
 IR Inten    --      4.9952                 5.3867                22.7323

                     79                     80                     81
                      A                      A                      A
 Frequencies --   1525.8351              1532.7057              1537.9603
 Red. masses --      1.0509                 1.0568                 1.0668
 Frc consts  --      1.4415                 1.4627                 1.4867
 IR Inten    --      2.1215                 4.1475                15.0621

                     82                     83                     84
                      A                      A                      A
 Frequencies --   1538.8569              1540.7089              1549.0076
 Red. masses --      1.1062                 1.1118                 1.0599
 Frc consts  --      1.5434                 1.5550                 1.4984
 IR Inten    --     31.5371                 2.7598                 4.2497

                     85                     86                     87
                      A                      A                      A
 Frequencies --   1652.3414              1661.6001              1695.8087
 Red. masses --      5.7732                 6.5863                 1.0881
 Frc consts  --      9.2868                10.7138                 1.8437
 IR Inten    --    217.9888               166.2113                37.5414

                     88                     89                     90
                      A                      A                      A
 Frequencies --   3004.4884              3023.3436              3024.8087
 Red. masses --      1.0675                 1.0347                 1.0347
 Frc consts  --      5.6776                 5.5726                 5.5779
 IR Inten    --     59.7108                59.1432                50.4903

                     91                     92                     93
                      A                      A                      A
 Frequencies --   3051.6670              3057.6041              3059.0517
 Red. masses --      1.0393                 1.0699                 1.0477
 Frc consts  --      5.7023                 5.8931                 5.7766
 IR Inten    --     36.3084                18.1334                18.5989

                     94                     95                     96
                      A                      A                      A
 Frequencies --   3073.9656              3080.5975              3082.4617
 Red. masses --      1.0956                 1.1064                 1.1062
 Frc consts  --      6.0998                 6.1862                 6.1926
 IR Inten    --     38.4067                40.2761                48.0118

                     97                     98                     99
                      A                      A                      A
 Frequencies --   3109.3641              3121.2091              3136.7314
 Red. masses --      1.1012                 1.1005                 1.1009
 Frc consts  --      6.2728                 6.3164                 6.3818
 IR Inten    --     41.6704                29.3764                22.3838

                    100                    101                    102
                      A                      A                      A
 Frequencies --   3144.5650              3154.9641              3155.1503
 Red. masses --      1.1015                 1.0997                 1.0999
 Frc consts  --      6.4176                 6.4494                 6.4512
 IR Inten    --     26.5392                36.5240                25.4582

                    103                    104                    105
                      A                      A                      A
 Frequencies --   3239.5496              3243.8054              3256.6175
 Red. masses --      1.0913                 1.0900                 1.0883
 Frc consts  --      6.7480                 6.7574                 6.8001
 IR Inten    --     16.6035                 2.2235                 4.4449

                    106                    107                    108
                      A                      A                      A
 Frequencies --   3483.7731              3567.5827              3726.0224
 Red. masses --      1.0496                 1.0931                 1.0659
 Frc consts  --      7.5052                 8.1970                 8.7191
 IR Inten    --      0.5693                 0.1058                 7.5123

 - Thermochemistry -
 -------------------
 Temperature   298.150 Kelvin.  Pressure   1.00000 Atm.
 Atom     1 has atomic number  6 and mass  12.00000

 Molecular mass:   239.15214 amu.
 Principal axes and moments of inertia in atomic units:
                           1         2         3
     Eigenvalues --  3132.180355359.858497302.56729
           X            0.99999  -0.00046   0.00406
           Y            0.00044   0.99998   0.00655
           Z           -0.00407  -0.00655   0.99997
 This molecule is an asymmetric top.
 Rotational symmetry number  1.
 Warning -- assumption of classical behavior for rotation
           may cause significant error
 Rotational temperatures (Kelvin)      0.02765     0.01616     0.01186
 Rotational constants (GHZ):           0.57619     0.33671     0.24714
 Zero-point vibrational energy     868413.4 (Joules/Mol)
                                  207.55579 (Kcal/Mol)
 Warning -- explicit consideration of  29 degrees of freedom as
           vibrations may cause significant error
 Vibrational temperatures:     42.62    88.03   116.03   129.06   147.76
          (Kelvin)            191.42   222.51   262.61   292.59   304.68
                              312.93   335.59   339.68   361.47   377.05
                              405.45   411.17   414.38   450.37   474.18
                              499.09   502.51   546.01   605.88   647.48
                              678.09   719.56   792.90   834.52   897.81
                              913.99   921.61   948.28  1035.77  1111.68
                             1206.64  1234.12  1252.01  1299.60  1318.64
                             1356.75  1364.02  1385.65  1408.65  1455.66
                             1464.29  1487.54  1545.74  1584.26  1596.89
                             1607.88  1663.49  1685.52  1707.43  1707.88
                             1727.38  1737.75  1740.84  1757.25  1779.92
                             1796.27  1874.41  1914.41  1934.71  1949.78
                             1982.21  2009.50  2017.91  2053.01  2068.89
                             2084.99  2130.98  2155.14  2178.04  2182.49
                             2186.14  2187.25  2188.35  2195.34  2205.22
                             2212.78  2214.07  2216.74  2228.68  2377.35
                             2390.67  2439.89  4322.79  4349.92  4352.03
                             4390.67  4399.21  4401.29  4422.75  4432.29
                             4434.97  4473.68  4490.72  4513.06  4524.33
                             4539.29  4539.56  4660.99  4667.11  4685.55
                             5012.37  5132.96  5360.92

 Zero-point correction=                           0.330761 (Hartree/Particle)
 Thermal correction to Energy=                    0.349320
 Thermal correction to Enthalpy=                  0.350264
 Thermal correction to Gibbs Free Energy=         0.285245
 Sum of electronic and zero-point Energies=           -788.154579
 Sum of electronic and thermal Energies=              -788.136020
 Sum of electronic and thermal Enthalpies=            -788.135076
 Sum of electronic and thermal Free Energies=         -788.200095

                     E (Thermal)             CV                S
                      KCal/Mol        Cal/Mol-Kelvin    Cal/Mol-Kelvin
 Total                  219.202             70.652            136.845
 Electronic               0.000              0.000              0.000
 Translational            0.889              2.981             42.317
 Rotational               0.889              2.981             33.172
 Vibrational            217.424             64.690             61.356
 Vibration     1          0.593              1.984              5.854
 Vibration     2          0.597              1.973              4.419
 Vibration     3          0.600              1.962              3.875
 Vibration     4          0.602              1.956              3.667
 Vibration     5          0.605              1.947              3.402
 Vibration     6          0.613              1.920              2.902
 Vibration     7          0.620              1.897              2.614
 Vibration     8          0.630              1.864              2.302
 Vibration     9          0.639              1.835              2.102
 Vibration    10          0.643              1.823              2.028
 Vibration    11          0.646              1.814              1.980
 Vibration    12          0.654              1.790              1.854
 Vibration    13          0.655              1.786              1.832
 Vibration    14          0.663              1.761              1.722
 Vibration    15          0.669              1.742              1.648
 Vibration    16          0.681              1.707              1.523
 Vibration    17          0.684              1.700              1.499
 Vibration    18          0.685              1.696              1.486
 Vibration    19          0.701              1.649              1.346
 Vibration    20          0.712              1.616              1.262
 Vibration    21          0.725              1.582              1.180
 Vibration    22          0.727              1.577              1.170
 Vibration    23          0.750              1.514              1.041
 Vibration    24          0.784              1.424              0.888
 Vibration    25          0.809              1.361              0.796
 Vibration    26          0.828              1.314              0.734
 Vibration    27          0.856              1.250              0.658
 Vibration    28          0.906              1.137              0.542
 Vibration    29          0.937              1.075              0.485

                           ! Non-Optimized Parameters !
 Normal termination of Gaussian 16 at Sun Dec 13 20:22:31 2020.

 ----------------------------------------------------------------------
 # B3LYP/6-311++G(d,p) empiricaldispersion=gd3bj scf=xqc pop=npa geom=c
 heck
 ----------------------------------------------------------------------

 --------------------------------------
 CID_81874136_JID_7092_Energie_neutraal
 --------------------------------------
 Structure from the checkpoint file:  "JID_7092.chk"
 Charge =  0 Multiplicity = 1

 SCF Done:  E(RB3LYP) =  -788.721529194     A.U. after   14 cycles
 Normal termination of Gaussian 16 at Sun Dec 13 20:29:48 2020.

 ----------------------------------------------------------------------
 # B3LYP/6-311++G(d,p) empiricaldispersion=gd3bj scf=xqc pop=npa geom=c
 heck
 ----------------------------------------------------------------------

 ------------------------------------
 CID_81874136_JID_7092_Energie_kation
 ------------------------------------
 Structure from the checkpoint file:  "JID_7092.chk"
 Charge =  1 Multiplicity = 2

 SCF Done:  E(UB3LYP) =  -788.443173987     A.U. after   26 cycles
 Normal termination of Gaussian 16 at Sun Dec 13 20:49:39 2020.
 Gaussian 16:  ES64L-G16RevA.03 25-Dec-2016

 ----------------------------------------------------------------------
 # B3LYP/6-311++G(d,p) empiricaldispersion=gd3bj scf=xqc pop=npa geom=c
 heck
 ----------------------------------------------------------------------

 -----------------------------------
 CID_81874136_JID_7092_Energie_anion
 -----------------------------------
 Structure from the checkpoint file:  "JID_7092.chk"
 Charge = -1 Multiplicity = 2

                         Standard orientation:
 ---------------------------------------------------------------------
 Center     Atomic      Atomic             Coordinates (Angstroms)
 Number     Number       Type             X           Y           Z
 ---------------------------------------------------------------------
      1          6           0        3.974100    0.111054    0.851447
      2          6           0        2.446270   -0.003257    0.972430
      3          6           0        1.924397    1.034327    1.974862
      4          6           0        1.740320    0.112051   -0.406168
      5          6           0        2.275399   -0.942302   -1.415260
      6          7           0        2.328582   -2.306855   -0.882493
      7          6           0        0.218269    0.021995   -0.247303
      8          6           0       -0.407297   -1.202606   -0.033352
      9          6           0       -1.801034   -1.256478    0.119298
     10          6           0       -2.571514   -0.097209    0.065133
     11          6           0       -1.930084    1.131519   -0.141442
     12          6           0       -0.546677    1.200648   -0.299581
     13          8           0       -2.760937    2.217806   -0.167973
     14          6           0       -2.171846    3.494044   -0.343934
     15          8           0       -2.319236   -2.505228    0.317157
     16          6           0       -3.721083   -2.621296    0.481612
     17          8           0        2.111596    1.397796   -0.930894
     18          1           0        4.252740    1.081349    0.430042
     19          1           0        4.410834   -0.665102    0.212866
     20          1           0        4.437345    0.020862    1.840246
     21          1           0        2.191576   -1.000474    1.352086
     22          1           0        2.102968    2.049179    1.605168
     23          1           0        0.852045    0.920257    2.152523
     24          1           0        2.443131    0.924733    2.933925
     25          1           0        1.598472   -0.950216   -2.278012
     26          1           0        3.247003   -0.566149   -1.769860
     27          1           0        2.458836   -2.967373   -1.645256
     28          1           0        3.135078   -2.409610   -0.270540
     29          1           0        0.167644   -2.119478   -0.000452
     30          1           0       -3.647436   -0.099924    0.181708
     31          1           0       -0.042228    2.147750   -0.426771
     32          1           0       -1.466121    3.727397    0.464010
     33          1           0       -1.647853    3.567683   -1.306292
     34          1           0       -2.995276    4.210346   -0.325090
     35          1           0       -4.071999   -2.063751    1.360272
     36          1           0       -4.262502   -2.266087   -0.405441
     37          1           0       -3.920355   -3.684884    0.625034
     38          1           0        1.629321    1.513528   -1.765484
 ---------------------------------------------------------------------

 SCF Done:  E(UB3LYP) =  -788.708166086     A.U. after   32 cycles

 The electronic state is 2-A.
 Alpha  occ. eigenvalues --  -19.06209 -19.05998 -19.02788 -14.20175 -10.14014
 Alpha  occ. eigenvalues --  -10.13956 -10.13754 -10.13530 -10.12825 -10.09717
 Alpha  occ. eigenvalues --  -10.08597 -10.08182 -10.07199 -10.06647 -10.06355
 Alpha  occ. eigenvalues --  -10.05927 -10.05904  -0.97837  -0.97530  -0.93441
 Alpha  occ. eigenvalues --   -0.79337  -0.75805  -0.70868  -0.67014  -0.66433
 Alpha  occ. eigenvalues --   -0.61864  -0.61012  -0.59378  -0.58739  -0.53895
 Alpha  occ. eigenvalues --   -0.50593  -0.49673  -0.46255  -0.45432  -0.41391
 Alpha  occ. eigenvalues --   -0.40827  -0.39488  -0.39233  -0.39099  -0.38229
 Alpha  occ. eigenvalues --   -0.37535  -0.36692  -0.35033  -0.34694  -0.33994
 Alpha  occ. eigenvalues --   -0.32578  -0.32023  -0.30040  -0.29487  -0.29189
 Alpha  occ. eigenvalues --   -0.28885  -0.28551  -0.27911  -0.26899  -0.25436
 Alpha  occ. eigenvalues --   -0.24967  -0.24831  -0.23800  -0.23675  -0.22147
 Alpha  occ. eigenvalues --   -0.20482  -0.18820  -0.15289  -0.13830  -0.12218
 Alpha  occ. eigenvalues --    0.04060
 Alpha virt. eigenvalues --    0.05611   0.05746   0.07108   0.07387   0.08467
 Alpha virt. eigenvalues --    0.08663   0.08722   0.09179   0.09639   0.09754
 Alpha virt. eigenvalues --    0.10243   0.10904   0.11163   0.11391   0.11664

  Beta  occ. eigenvalues --  -19.06204 -19.05992 -19.02770 -14.20141 -10.14014
  Beta  occ. eigenvalues --  -10.13957 -10.13754 -10.13505 -10.12787 -10.09694
  Beta  occ. eigenvalues --  -10.08598 -10.08177 -10.07192 -10.06636 -10.06332
  Beta  occ. eigenvalues --  -10.05922 -10.05895  -0.97828  -0.97518  -0.93406
  Beta  occ. eigenvalues --   -0.79279  -0.75794  -0.70846  -0.66995  -0.66415
  Beta  occ. eigenvalues --   -0.61816  -0.60973  -0.59337  -0.58702  -0.53842
  Beta  occ. eigenvalues --   -0.50567  -0.49641  -0.46215  -0.45404  -0.41364
  Beta  occ. eigenvalues --   -0.40796  -0.39465  -0.39216  -0.39076  -0.38211
  Beta  occ. eigenvalues --   -0.37509  -0.36641  -0.34991  -0.34660  -0.33962
  Beta  occ. eigenvalues --   -0.32548  -0.31992  -0.30021  -0.29465  -0.29169
  Beta  occ. eigenvalues --   -0.28862  -0.28532  -0.27891  -0.26878  -0.25417
  Beta  occ. eigenvalues --   -0.24942  -0.24806  -0.23780  -0.23653  -0.22129
  Beta  occ. eigenvalues --   -0.20467  -0.18797  -0.15257  -0.13812  -0.12201
  Beta virt. eigenvalues --    0.05978   0.06432   0.06696   0.07513   0.08074
  Beta virt. eigenvalues --    0.08674   0.08792   0.08966   0.09460   0.09870
  Beta virt. eigenvalues --    0.10167   0.10456   0.10925   0.11375   0.11549

 Mulliken charges and spin densities:
               1          2
     1  C    0.370547  -0.920824
     2  C   -0.831317   0.958810
     3  C   -0.380107  -0.429092
     4  C    0.996024  -0.282595
     5  C    0.859034  -1.611747
     6  N   -0.541012   0.166583
     7  C    1.389943  -0.321685
     8  C   -1.017143   0.114834
     9  C   -0.579752   0.199607
    10  C   -0.580977   0.341056
    11  C   -1.708387   0.868021
    12  C    1.247854  -0.896684
    13  O   -0.192155   0.042348
    14  C    0.613819  -0.975918
    15  O   -0.175041   0.025623
    16  C    0.274227  -0.645997
    17  O   -0.252608   0.052623
    18  H    0.133338   0.051776
    19  H   -0.198942   0.314427
    20  H   -0.085234   0.223745
    21  H   -0.034873   0.212467
    22  H   -0.029966   0.197638
    23  H    0.171520  -0.012012
    24  H    0.096336   0.036056
    25  H   -0.180792   0.365265
    26  H   -0.070759   0.260211
    27  H   -0.125512   0.370114
    28  H    0.027322   0.192651
    29  H    0.429196  -0.107502
    30  H    0.052629   0.152593
    31  H    0.614895  -0.444462
    32  H   -0.073151   0.227797
    33  H   -0.368794   0.529449
    34  H   -0.495910   0.670583
    35  H   -0.031340   0.178516
    36  H   -0.092424   0.244498
    37  H   -0.234965   0.403674
    38  H    0.004479   0.247553
 Sum of Mulliken charges =  -1.00000   1.00000

 Dipole moment (field-independent basis, Debye):
    X=             -0.1835    Y=             -0.5432    Z=              2.3222  Tot=              2.3919
 Quadrupole moment (field-independent basis, Debye-Ang):
   XX=           -176.5373   YY=           -168.4631   ZZ=           -138.2376
   XY=              9.0619   XZ=              3.1407   YZ=              1.9004

 Summary of Natural Population Analysis:

                                       Natural Population
                Natural  -----------------------------------------------
    Atom  No    Charge         Core      Valence    Rydberg      Total
 -----------------------------------------------------------------------
      C    1   -0.28796      0.99965     2.28183    0.00649     3.28796
      C    2   -0.11830      0.99956     2.10797    0.01076     3.11830
      C    3   -0.28567      0.99965     2.28093    0.00509     3.28567
      C    4    0.13220      0.99946     1.85000    0.01834     2.86780
      C    5   -0.09803      0.99957     2.08493    0.01353     3.09803
      N    6   -0.42532      0.99976     2.91457    0.01098     3.92532
      C    7   -0.00909      0.99949     1.99708    0.01252     3.00909
      C    8   -0.13957      0.99946     2.13130    0.00881     3.13957
      C    9    0.17155      0.99939     1.81687    0.01219     2.82845
      C   10   -0.17081      0.99947     2.16165    0.00969     3.17081
      C   11    0.17228      0.99939     1.81436    0.01397     2.82772
      C   12   -0.16655      0.99945     2.15783    0.00926     3.16655
      O   13   -0.27433      0.99986     3.26445    0.01002     4.27433
      C   14   -0.10032      0.99960     2.09168    0.00904     3.10032
      O   15   -0.27146      0.99986     3.26235    0.00925     4.27146
      C   16   -0.09925      0.99960     2.09156    0.00808     3.09925
      O   17   -0.37775      0.99989     3.37095    0.00691     4.37775
      H   18    0.10579      0.00000     0.39311    0.00110     0.39421
      H   19    0.09698      0.00000     0.40200    0.00102     0.40302
      H   20    0.09724      0.00000     0.40200    0.00076     0.40276
      H   21    0.10217      0.00000     0.39591    0.00191     0.39783
      H   22    0.10263      0.00000     0.39629    0.00109     0.39737
      H   23    0.10534      0.00000     0.39382    0.00085     0.39466
      H   24    0.09531      0.00000     0.40394    0.00075     0.40469
      H   25    0.09539      0.00000     0.40323    0.00138     0.40461
      H   26    0.08972      0.00000     0.40843    0.00186     0.41028
      H   27    0.17965      0.00000     0.31840    0.00195     0.32035
      H   28    0.17537      0.00000     0.32262    0.00200     0.32463
      H   29    0.12461      0.00000     0.37320    0.00219     0.37539
      H   30    0.10934      0.00000     0.38899    0.00167     0.39066
      H   31    0.11356      0.00000     0.38442    0.00202     0.38644
      H   32    0.08474      0.00000     0.41384    0.00142     0.41526
      H   33    0.08634      0.00000     0.41179    0.00187     0.41366
      H   34    0.09337      0.00000     0.40536    0.00127     0.40663
      H   35    0.08310      0.00000     0.41514    0.00176     0.41690
      H   36    0.08408      0.00000     0.41408    0.00184     0.41592
      H   37    0.09267      0.00000     0.40615    0.00117     0.40733
      H   38    0.23100      0.00000     0.26554    0.00346     0.26900
 =======================================================================
   * Total *    0.00000     16.99311    47.79860    0.20829    65.00000

 Normal termination of Gaussian 16 at Sun Dec 13 21:13:04 2020.
