 Gaussian 16, Revision A.03,

 -----------------------------------------------------------
 # opt freq B3LYP/6-31G(d) empiricaldispersion=gd3bj scf=xqc
 -----------------------------------------------------------

 -------------------------------
 CID_151075128_JID_1209_neutraal
 -------------------------------
 Symbolic Z-matrix:
 Charge =  0 Multiplicity = 1

 SCF Done:  E(RB3LYP) =  -502.926576873     A.U. after   14 cycles
 SCF Done:  E(RB3LYP) =  -502.947951033     A.U. after   14 cycles
 SCF Done:  E(RB3LYP) =  -502.950772167     A.U. after   14 cycles
 SCF Done:  E(RB3LYP) =  -502.963163183     A.U. after   13 cycles
 SCF Done:  E(RB3LYP) =  -502.966999775     A.U. after   12 cycles
 SCF Done:  E(RB3LYP) =  -502.971220740     A.U. after   12 cycles
 SCF Done:  E(RB3LYP) =  -502.973524251     A.U. after   12 cycles
 SCF Done:  E(RB3LYP) =  -502.973373540     A.U. after   12 cycles
 SCF Done:  E(RB3LYP) =  -502.975048791     A.U. after   12 cycles
 SCF Done:  E(RB3LYP) =  -502.975293104     A.U. after   11 cycles
 SCF Done:  E(RB3LYP) =  -502.975566881     A.U. after   10 cycles
 SCF Done:  E(RB3LYP) =  -502.975581544     A.U. after    9 cycles
 SCF Done:  E(RB3LYP) =  -502.975586300     A.U. after    9 cycles
 SCF Done:  E(RB3LYP) =  -502.975588118     A.U. after    9 cycles
 SCF Done:  E(RB3LYP) =  -502.975589100     A.U. after    7 cycles
 SCF Done:  E(RB3LYP) =  -502.975589486     A.U. after    7 cycles
 Optimization completed.
    -- Stationary point found.

 1\1\GINC-NODE308\FOpt\RB3LYP\6-31G(d)\C9H16O2\VSC10255\08-Dec-2020\0\\
 # opt freq B3LYP/6-31G(d) empiricaldispersion=gd3bj scf=xqc\\CID_15107
 5128_JID_1209_neutraal\\0,1\C,1.667185887,-0.1713817912,0.273107801\C,
 1.0124776078,-0.5387095383,1.6108755828\C,0.3849663016,0.6925315545,2.
 2754036388\C,-0.0122042424,-1.6703318975,1.4563183814\O,-1.0858902786,
 -1.3111742868,0.5896186481\C,-1.0573342161,-1.9312951221,-0.6856417714
 \C,-2.0099156835,-1.2007353184,-1.6142109836\O,-1.5624866818,0.1204418
 472,-1.9014761045\C,-2.105379336,1.1174430652,-1.0396149286\C,-3.53288

 Normal termination of Gaussian 16 at Tue Dec  8 19:28:57 2020.

 --------------------------------------------------------------------
 #N Geom=AllCheck Guess=TCheck SCRF=Check GenChk RB3LYP/6-31G(d) Freq
 --------------------------------------------------------------------

 Structure from the checkpoint file:  "JID_1209.chk"
 -------------------------------
 CID_151075128_JID_1209_neutraal
 -------------------------------
 Charge =  0 Multiplicity = 1

 SCF Done:  E(RB3LYP) =  -502.975589486     A.U. after    1 cycles

  Exact polarizability: 120.243   1.825  93.284   8.732   0.276  83.175
 Approx polarizability: 157.677   3.994 123.037  18.348   2.191 122.711

                      1                      2                      3
                      A                      A                      A
 Frequencies --     32.9466                40.9262                58.7452
 Red. masses --      3.8572                 3.6017                 4.3950
 Frc consts  --      0.0025                 0.0036                 0.0089
 IR Inten    --      0.7390                 0.1110                 0.1355

                      4                      5                      6
                      A                      A                      A
 Frequencies --     81.4563               116.5453               150.5888
 Red. masses --      3.0153                 2.6145                 3.2914
 Frc consts  --      0.0118                 0.0209                 0.0440
 IR Inten    --      1.7398                 3.5452                 3.6133

                      7                      8                      9
                      A                      A                      A
 Frequencies --    207.6118               218.6077               245.9665
 Red. masses --      3.3600                 1.2877                 2.6785
 Frc consts  --      0.0853                 0.0363                 0.0955
 IR Inten    --      5.5590                 1.3668                 2.5632

                     10                     11                     12
                      A                      A                      A
 Frequencies --    259.9466               297.7868               318.5124
 Red. masses --      2.8736                 1.1912                 2.4042
 Frc consts  --      0.1144                 0.0622                 0.1437
 IR Inten    --      2.5639                 0.0335                 0.2233

                     13                     14                     15
                      A                      A                      A
 Frequencies --    329.0156               376.9551               379.7027
 Red. masses --      3.2567                 2.4243                 2.1663
 Frc consts  --      0.2077                 0.2030                 0.1840
 IR Inten    --      4.1104                 1.0056                 1.2503

                     16                     17                     18
                      A                      A                      A
 Frequencies --    415.2467               522.0427               585.0400
 Red. masses --      1.8884                 2.2956                 2.5656
 Frc consts  --      0.1918                 0.3686                 0.5174
 IR Inten    --      3.1254                 9.4034                16.4910

                     19                     20                     21
                      A                      A                      A
 Frequencies --    588.8032               620.3197               649.0696
 Red. masses --      1.5347                 2.7816                 1.2291
 Frc consts  --      0.3135                 0.6306                 0.3051
 IR Inten    --     38.5187                 4.5925                38.6868

                     22                     23                     24
                      A                      A                      A
 Frequencies --    794.9199               848.8736               870.1794
 Red. masses --      3.1177                 2.7925                 2.2081
 Frc consts  --      1.1607                 1.1856                 0.9851
 IR Inten    --      1.6819                 5.5637                13.5488

                     25                     26                     27
                      A                      A                      A
 Frequencies --    927.3165               938.2686               962.3583
 Red. masses --      1.3330                 4.1550                 1.3055
 Frc consts  --      0.6753                 2.1551                 0.7123
 IR Inten    --      0.9257                22.9156                 0.7894

                     28                     29                     30
                      A                      A                      A
 Frequencies --    969.0620               982.2836              1005.1161
 Red. masses --      2.0599                 1.6785                 2.6979
 Frc consts  --      1.1397                 0.9542                 1.6059
 IR Inten    --     10.0565                 1.0732                42.3053

                     31                     32                     33
                      A                      A                      A
 Frequencies --   1028.8411              1052.7317              1114.7721
 Red. masses --      2.3659                 1.7869                 2.1495
 Frc consts  --      1.4755                 1.1668                 1.5738
 IR Inten    --     48.3959                12.7688                50.5151

                     34                     35                     36
                      A                      A                      A
 Frequencies --   1135.9934              1147.6244              1177.5120
 Red. masses --      3.2043                 2.1424                 3.0514
 Frc consts  --      2.4363                 1.6625                 2.4928
 IR Inten    --    141.4607                47.1424                71.2913

                     37                     38                     39
                      A                      A                      A
 Frequencies --   1199.1687              1222.6264              1276.8072
 Red. masses --      2.0975                 1.9202                 1.0985
 Frc consts  --      1.7771                 1.6912                 1.0551
 IR Inten    --      9.8796                17.0052                 3.0834

                     40                     41                     42
                      A                      A                      A
 Frequencies --   1299.1220              1314.0215              1343.2599
 Red. masses --      1.1221                 1.1765                 1.1661
 Frc consts  --      1.1158                 1.1968                 1.2397
 IR Inten    --      2.6831                13.5965                 4.0845

                     43                     44                     45
                      A                      A                      A
 Frequencies --   1371.5229              1384.8457              1389.1003
 Red. masses --      1.6468                 1.3684                 1.2245
 Frc consts  --      1.8252                 1.5462                 1.3922
 IR Inten    --      0.1065                 8.3414                34.7014

                     46                     47                     48
                      A                      A                      A
 Frequencies --   1410.6889              1429.6955              1433.2652
 Red. masses --      1.2194                 1.2896                 1.2784
 Frc consts  --      1.4297                 1.5530                 1.5473
 IR Inten    --     22.6307                 7.0618                 3.3290

                     49                     50                     51
                      A                      A                      A
 Frequencies --   1448.0815              1461.1390              1511.9981
 Red. masses --      1.3426                 1.3242                 1.0802
 Frc consts  --      1.6588                 1.6657                 1.4550
 IR Inten    --     12.6234                 4.3840                 1.8234

                     52                     53                     54
                      A                      A                      A
 Frequencies --   1517.4934              1523.2507              1524.1570
 Red. masses --      1.0483                 1.0732                 1.0808
 Frc consts  --      1.4224                 1.4672                 1.4793
 IR Inten    --      1.4313                 3.5811                 3.1565

                     55                     56                     57
                      A                      A                      A
 Frequencies --   1528.5955              1537.4756              1542.6725
 Red. masses --      1.0592                 1.0641                 1.0683
 Frc consts  --      1.4583                 1.4820                 1.4980
 IR Inten    --      0.1048                 1.8739                 4.8318

                     58                     59                     60
                      A                      A                      A
 Frequencies --   1553.3599              2236.4133              2979.3841
 Red. masses --      1.0644                 5.9379                 1.0670
 Frc consts  --      1.5131                17.4980                 5.5803
 IR Inten    --     10.7086                 1.3587                58.4712

                     61                     62                     63
                      A                      A                      A
 Frequencies --   3007.1378              3022.8897              3043.6043
 Red. masses --      1.0759                 1.0674                 1.0462
 Frc consts  --      5.7324                 5.7469                 5.7101
 IR Inten    --     13.8037                94.4912                14.9482

                     64                     65                     66
                      A                      A                      A
 Frequencies --   3046.0514              3050.7951              3058.5849
 Red. masses --      1.0543                 1.0389                 1.0827
 Frc consts  --      5.7635                 5.6970                 5.9675
 IR Inten    --     49.9223                 2.9626                56.2979

                     67                     68                     69
                      A                      A                      A
 Frequencies --   3061.5359              3066.9300              3099.3030
 Red. masses --      1.0602                 1.1049                 1.1060
 Frc consts  --      5.8548                 6.1231                 6.2597
 IR Inten    --      3.6916                54.1651                27.4806

                     70                     71                     72
                      A                      A                      A
 Frequencies --   3103.9303              3106.8968              3112.4035
 Red. masses --      1.1065                 1.1017                 1.1019
 Frc consts  --      6.2811                 6.2656                 6.2889
 IR Inten    --     15.4581                31.5655                43.5004

                     73                     74                     75
                      A                      A                      A
 Frequencies --   3124.4889              3129.1728              3495.0913
 Red. masses --      1.1017                 1.1007                 1.1604
 Frc consts  --      6.3367                 6.3501                 8.3517
 IR Inten    --      2.9063                56.0760                52.4416

 - Thermochemistry -
 -------------------
 Temperature   298.150 Kelvin.  Pressure   1.00000 Atm.
 Atom     1 has atomic number  6 and mass  12.00000

 Molecular mass:   156.11503 amu.
 Principal axes and moments of inertia in atomic units:
                           1         2         3
     Eigenvalues --  1074.465493097.073543451.42681
           X            0.99986  -0.01411   0.00900
           Y            0.01417   0.99988  -0.00586
           Z           -0.00892   0.00599   0.99994
 This molecule is an asymmetric top.
 Rotational symmetry number  1.
 Warning -- assumption of classical behavior for rotation
           may cause significant error
 Rotational temperatures (Kelvin)      0.08061     0.02797     0.02510
 Rotational constants (GHZ):           1.67966     0.58272     0.52290
 Zero-point vibrational energy     624562.2 (Joules/Mol)
                                  149.27395 (Kcal/Mol)
 Warning -- explicit consideration of  20 degrees of freedom as
           vibrations may cause significant error
 Vibrational temperatures:     47.40    58.88    84.52   117.20   167.68
          (Kelvin)            216.66   298.71   314.53   353.89   374.01
                              428.45   458.27   473.38   542.35   546.31
                              597.45   751.10   841.74   847.16   892.50
                              933.87  1143.71  1221.34  1251.99  1334.20
                             1349.96  1384.62  1394.26  1413.29  1446.14
                             1480.27  1514.65  1603.91  1634.44  1651.18
                             1694.18  1725.34  1759.09  1837.04  1869.15
                             1890.58  1932.65  1973.32  1992.48  1998.61
                             2029.67  2057.01  2062.15  2083.47  2102.25
                             2175.43  2183.33  2191.62  2192.92  2199.31
                             2212.08  2219.56  2234.94  3217.70  4286.67
                             4326.60  4349.26  4379.07  4382.59  4389.41
                             4400.62  4404.87  4412.63  4459.21  4465.86
                             4470.13  4478.05  4495.44  4502.18  5028.66

 Zero-point correction=                           0.237883 (Hartree/Particle)
 Thermal correction to Energy=                    0.251184
 Thermal correction to Enthalpy=                  0.252128
 Thermal correction to Gibbs Free Energy=         0.197170
 Sum of electronic and zero-point Energies=           -502.737706
 Sum of electronic and thermal Energies=              -502.724406
 Sum of electronic and thermal Enthalpies=            -502.723461
 Sum of electronic and thermal Free Energies=         -502.778420

                     E (Thermal)             CV                S
                      KCal/Mol        Cal/Mol-Kelvin    Cal/Mol-Kelvin
 Total                  157.620             47.764            115.670
 Electronic               0.000              0.000              0.000
 Translational            0.889              2.981             41.046
 Rotational               0.889              2.981             30.819
 Vibrational            155.843             41.803             43.805
 Vibration     1          0.594              1.983              5.644
 Vibration     2          0.594              1.981              5.214
 Vibration     3          0.596              1.974              4.499
 Vibration     4          0.600              1.962              3.855
 Vibration     5          0.608              1.936              3.157
 Vibration     6          0.618              1.902              2.665
 Vibration     7          0.641              1.829              2.065
 Vibration     8          0.646              1.813              1.971
 Vibration     9          0.660              1.769              1.759
 Vibration    10          0.668              1.746              1.662
 Vibration    11          0.691              1.678              1.429
 Vibration    12          0.705              1.638              1.318
 Vibration    13          0.712              1.618              1.265
 Vibration    14          0.748              1.519              1.051
 Vibration    15          0.750              1.513              1.040
 Vibration    16          0.779              1.437              0.908
 Vibration    17          0.877              1.201              0.605
 Vibration    18          0.942              1.064              0.476
 Vibration    19          0.946              1.056              0.469
 Vibration    20          0.980              0.989              0.416

                           ! Non-Optimized Parameters !

 1\1\GINC-NODE308\Freq\RB3LYP\6-31G(d)\C9H16O2\VSC10255\08-Dec-2020\0\\
 #N Geom=AllCheck Guess=TCheck SCRF=Check GenChk RB3LYP/6-31G(d) Freq\\
 CID_151075128_JID_1209_neutraal\\0,1\C,1.667185887,-0.1713817912,0.273
 107801\C,1.0124776078,-0.5387095383,1.6108755828\C,0.3849663016,0.6925
 315545,2.2754036388\C,-0.0122042424,-1.6703318975,1.4563183814\O,-1.08
 58902786,-1.3111742868,0.5896186481\C,-1.0573342161,-1.9312951221,-0.6
 856417714\C,-2.0099156835,-1.2007353184,-1.6142109836\O,-1.5624866818,
 0.1204418472,-1.9014761045\C,-2.105379336,1.1174430652,-1.0396149286\C

 Normal termination of Gaussian 16 at Tue Dec  8 19:34:26 2020.

 ----------------------------------------------------------------------
 # B3LYP/6-311++G(d,p) empiricaldispersion=gd3bj scf=xqc pop=npa geom=c
 heck
 ----------------------------------------------------------------------

 ---------------------------------------
 CID_151075128_JID_1209_Energie_neutraal
 ---------------------------------------
 Structure from the checkpoint file:  "JID_1209.chk"
 Charge =  0 Multiplicity = 1

 SCF Done:  E(RB3LYP) =  -503.127123534     A.U. after   13 cycles
 Normal termination of Gaussian 16 at Tue Dec  8 19:36:22 2020.

 ----------------------------------------------------------------------
 # B3LYP/6-311++G(d,p) empiricaldispersion=gd3bj scf=xqc pop=npa geom=c
 heck
 ----------------------------------------------------------------------

 -------------------------------------
 CID_151075128_JID_1209_Energie_kation
 -------------------------------------
 Structure from the checkpoint file:  "JID_1209.chk"
 Charge =  1 Multiplicity = 2

 SCF Done:  E(UB3LYP) =  -502.800022163     A.U. after   24 cycles
 Normal termination of Gaussian 16 at Tue Dec  8 19:40:53 2020.
 Gaussian 16:  ES64L-G16RevA.03 25-Dec-2016

 ------------------------------------
 CID_151075128_JID_1209_Energie_anion
 ------------------------------------
 Structure from the checkpoint file:  "JID_1209.chk"
 Charge = -1 Multiplicity = 2

                         Standard orientation:
 ---------------------------------------------------------------------
 Center     Atomic      Atomic             Coordinates (Angstroms)
 Number     Number       Type             X           Y           Z
 ---------------------------------------------------------------------
      1          6           0        2.348245   -0.195445    1.422853
      2          6           0        2.660624   -0.486847   -0.050477
      3          6           0        2.193777   -1.892696   -0.446666
      4          6           0        2.070501    0.578817   -0.983507
      5          8           0        0.648672    0.642823   -0.898245
      6          6           0        0.141610    1.777046   -0.214080
      7          6           0       -1.318611    1.540264    0.125124
      8          8           0       -1.478750    0.501139    1.085747
      9          6           0       -1.707248   -0.785458    0.516532
     10          6           0       -3.037257   -0.913928   -0.093801
     11          6           0       -4.124109   -1.004051   -0.612210
     12          1           0        1.267559   -0.202359    1.600587
     13          1           0        2.735777    0.783686    1.729791
     14          1           0        2.802002   -0.951860    2.073020
     15          1           0        3.751454   -0.436905   -0.191519
     16          1           0        1.109394   -1.988326   -0.329625
     17          1           0        2.439827   -2.116293   -1.491439
     18          1           0        2.667773   -2.653837    0.183185
     19          1           0        2.506787    1.562842   -0.759240
     20          1           0        2.319379    0.337029   -2.025087
     21          1           0        0.697759    1.955028    0.715910
     22          1           0        0.230808    2.680813   -0.841767
     23          1           0       -1.728851    2.451897    0.574685
     24          1           0       -1.894815    1.322486   -0.783415
     25          1           0       -0.934665   -1.017994   -0.225443
     26          1           0       -1.606264   -1.493162    1.346377
     27          1           0       -5.088499   -1.090948   -1.058637
 ---------------------------------------------------------------------

 SCF Done:  E(UB3LYP) =  -503.110378069     A.U. after   32 cycles

 The electronic state is 2-A.
 Alpha  occ. eigenvalues --  -19.03806 -19.02643 -10.14729 -10.12425 -10.12049
 Alpha  occ. eigenvalues --  -10.11282 -10.08689 -10.07861 -10.07349 -10.05666
 Alpha  occ. eigenvalues --  -10.05466  -0.95345  -0.93409  -0.70648  -0.69017
 Alpha  occ. eigenvalues --   -0.65634  -0.60767  -0.58392  -0.56814  -0.51675
 Alpha  occ. eigenvalues --   -0.46510  -0.44821  -0.41674  -0.40748  -0.40074
 Alpha  occ. eigenvalues --   -0.38128  -0.36855  -0.35873  -0.33678  -0.32710
 Alpha  occ. eigenvalues --   -0.30852  -0.30034  -0.28271  -0.27425  -0.25313
 Alpha  occ. eigenvalues --   -0.24359  -0.24107  -0.23267  -0.22030  -0.19767
 Alpha  occ. eigenvalues --   -0.18609  -0.17696  -0.15962   0.04450
 Alpha virt. eigenvalues --    0.05848   0.06952   0.07883   0.08255   0.09104
 Alpha virt. eigenvalues --    0.09841   0.10028   0.10159   0.10384   0.11004
 Alpha virt. eigenvalues --    0.12045   0.12801   0.13082   0.13527   0.14166

  Beta  occ. eigenvalues --  -19.03804 -19.02633 -10.14720 -10.12414 -10.12028
  Beta  occ. eigenvalues --  -10.11258 -10.08691 -10.07835 -10.07334 -10.05641
  Beta  occ. eigenvalues --  -10.05439  -0.95336  -0.93396  -0.70612  -0.68998
  Beta  occ. eigenvalues --   -0.65609  -0.60737  -0.58339  -0.56762  -0.51623
  Beta  occ. eigenvalues --   -0.46456  -0.44767  -0.41648  -0.40709  -0.40048
  Beta  occ. eigenvalues --   -0.38081  -0.36823  -0.35846  -0.33635  -0.32677
  Beta  occ. eigenvalues --   -0.30822  -0.30011  -0.28244  -0.27394  -0.25274
  Beta  occ. eigenvalues --   -0.24323  -0.24083  -0.23227  -0.21983  -0.19746
  Beta  occ. eigenvalues --   -0.18591  -0.17680  -0.15928
  Beta virt. eigenvalues --    0.06628   0.07150   0.07710   0.08403   0.08898
  Beta virt. eigenvalues --    0.09397   0.10157   0.10362   0.10622   0.10752
  Beta virt. eigenvalues --    0.11319   0.12372   0.13120   0.13180   0.13819

 Mulliken charges and spin densities:
               1          2
     1  C    0.840767  -1.454815
     2  C   -1.449174   1.757281
     3  C    0.908822  -1.455776
     4  C    1.212283  -1.599133
     5  O   -0.106985   0.029449
     6  C    0.083048  -0.285831
     7  C    0.071094  -0.497562
     8  O   -0.063002   0.020151
     9  C   -1.472273   0.934700
    10  C    2.848554  -2.290200
    11  C   -0.695847   0.233270
    12  H   -0.166520   0.305485
    13  H   -0.267797   0.404172
    14  H   -0.028450   0.174315
    15  H   -0.639186   0.816842
    16  H   -0.274214   0.400169
    17  H    0.002313   0.130342
    18  H   -0.265894   0.394625
    19  H   -0.273993   0.424025
    20  H   -0.274293   0.444595
    21  H    0.092900   0.084972
    22  H   -0.389550   0.523297
    23  H   -0.129781   0.298693
    24  H    0.192549  -0.032960
    25  H    0.350444  -0.234469
    26  H    0.025130   0.152511
    27  H   -1.130942   1.321852
 Sum of Mulliken charges =  -1.00000   1.00000

 Dipole moment (field-independent basis, Debye):
    X=             -0.7400    Y=              0.4165    Z=              1.0628  Tot=              1.3604
 Quadrupole moment (field-independent basis, Debye-Ang):
   XX=           -161.0081   YY=           -109.5075   ZZ=           -104.3441
   XY=             -5.8163   XZ=             -5.0352   YZ=             -0.5876

 Summary of Natural Population Analysis:

                                       Natural Population
                Natural  -----------------------------------------------
    Atom  No    Charge         Core      Valence    Rydberg      Total
 -----------------------------------------------------------------------
      C    1   -0.28981      0.99964     2.28316    0.00700     3.28981
      C    2   -0.12544      0.99961     2.11500    0.01082     3.12544
      C    3   -0.28408      0.99964     2.27783    0.00660     3.28408
      C    4   -0.00240      0.99954     1.98957    0.01329     3.00240
      O    5   -0.31374      0.99988     3.30315    0.01071     4.31374
      C    6   -0.01850      0.99957     2.00667    0.01227     3.01850
      C    7   -0.02064      0.99956     2.00796    0.01312     3.02064
      O    8   -0.29487      0.99989     3.28544    0.00954     4.29487
      C    9   -0.05343      0.99949     2.04101    0.01293     3.05343
      C   10   -0.01816      0.99936     2.01214    0.00666     3.01816
      C   11   -0.11369      0.99927     2.11062    0.00379     3.11369
      H   12    0.10085      0.00000     0.39700    0.00215     0.39915
      H   13    0.09896      0.00000     0.39977    0.00127     0.40104
      H   14    0.09956      0.00000     0.39942    0.00102     0.40044
      H   15    0.09659      0.00000     0.40087    0.00254     0.40341
      H   16    0.09654      0.00000     0.40182    0.00165     0.40346
      H   17    0.09855      0.00000     0.40052    0.00094     0.40145
      H   18    0.09889      0.00000     0.40010    0.00102     0.40111
      H   19    0.08441      0.00000     0.41337    0.00222     0.41559
      H   20    0.08829      0.00000     0.41033    0.00138     0.41171
      H   21    0.08558      0.00000     0.41265    0.00177     0.41442
      H   22    0.08169      0.00000     0.41671    0.00160     0.41831
      H   23    0.09136      0.00000     0.40749    0.00115     0.40864
      H   24    0.08915      0.00000     0.40929    0.00156     0.41085
      H   25    0.10824      0.00000     0.38940    0.00236     0.39176
      H   26    0.10347      0.00000     0.39504    0.00149     0.39653
      H   27    0.11265      0.00000     0.38485    0.00250     0.38735
 =======================================================================
   * Total *   -0.00000     10.99547    31.87117    0.13336    43.00000

 Normal termination of Gaussian 16 at Tue Dec  8 19:47:07 2020.
