 Gaussian 16, Revision A.03,

 -----------------------------------------------------------
 # opt freq B3LYP/6-31G(d) empiricaldispersion=gd3bj scf=xqc
 -----------------------------------------------------------

 -------------------------------
 CID_130150784_JID_3074_neutraal
 -------------------------------
 Symbolic Z-matrix:
 Charge =  0 Multiplicity = 1

 SCF Done:  E(RB3LYP) =  -615.168206069     A.U. after   15 cycles
 SCF Done:  E(RB3LYP) =  -615.178150817     A.U. after   12 cycles
 SCF Done:  E(RB3LYP) =  -615.178793483     A.U. after   11 cycles
 SCF Done:  E(RB3LYP) =  -615.178897659     A.U. after   11 cycles
 SCF Done:  E(RB3LYP) =  -615.178923997     A.U. after   10 cycles
 SCF Done:  E(RB3LYP) =  -615.178942314     A.U. after   10 cycles
 SCF Done:  E(RB3LYP) =  -615.178954343     A.U. after   10 cycles
 SCF Done:  E(RB3LYP) =  -615.178956798     A.U. after    8 cycles
 SCF Done:  E(RB3LYP) =  -615.178957499     A.U. after    8 cycles
 Optimization completed.
    -- Stationary point found.
 Normal termination of Gaussian 16 at Wed Dec  9 22:20:43 2020.

 --------------------------------------------------------------------
 #N Geom=AllCheck Guess=TCheck SCRF=Check GenChk RB3LYP/6-31G(d) Freq
 --------------------------------------------------------------------

 Structure from the checkpoint file:  "JID_3074.chk"
 -------------------------------
 CID_130150784_JID_3074_neutraal
 -------------------------------
 Charge =  0 Multiplicity = 1

 SCF Done:  E(RB3LYP) =  -615.178957499     A.U. after    1 cycles

  Exact polarizability: 130.963   0.957 105.618   2.603   2.719  81.665
 Approx polarizability: 171.569   2.144 150.574   3.161  10.951 131.931

                      1                      2                      3
                      A                      A                      A
 Frequencies --     46.1977                48.8540                80.1340
 Red. masses --      2.7922                 1.5703                 3.1917
 Frc consts  --      0.0035                 0.0022                 0.0121
 IR Inten    --      0.6484                 3.0821                 1.5311

                      4                      5                      6
                      A                      A                      A
 Frequencies --     85.8108               125.3760               174.1736
 Red. masses --      3.1820                 2.7850                 3.3119
 Frc consts  --      0.0138                 0.0258                 0.0592
 IR Inten    --      0.5308                 1.6500                 4.1376

                      7                      8                      9
                      A                      A                      A
 Frequencies --    215.3244               248.7951               292.8409
 Red. masses --      3.4128                 4.2297                 4.0838
 Frc consts  --      0.0932                 0.1543                 0.2063
 IR Inten    --      0.1677                 6.5073                 5.9406

                     10                     11                     12
                      A                      A                      A
 Frequencies --    311.0084               333.9204               352.2097
 Red. masses --      2.5373                 2.4486                 1.5607
 Frc consts  --      0.1446                 0.1609                 0.1141
 IR Inten    --      2.4486                20.8786                71.0696

                     13                     14                     15
                      A                      A                      A
 Frequencies --    452.0369               493.1773               531.0452
 Red. masses --      2.7329                 3.5101                 3.2816
 Frc consts  --      0.3290                 0.5030                 0.5453
 IR Inten    --      7.5441                 3.5035                 4.4264

                     16                     17                     18
                      A                      A                      A
 Frequencies --    559.3000               575.0726               609.4792
 Red. masses --      4.0062                 4.0014                 2.8786
 Frc consts  --      0.7384                 0.7797                 0.6300
 IR Inten    --      7.2247                 4.6064                 7.3507

                     19                     20                     21
                      A                      A                      A
 Frequencies --    620.0199               679.4049               753.3583
 Red. masses --      2.6806                 3.8794                 1.9258
 Frc consts  --      0.6072                 1.0550                 0.6440
 IR Inten    --      0.5812                 2.9311                14.2889

                     22                     23                     24
                      A                      A                      A
 Frequencies --    762.6553               789.8537               899.4474
 Red. masses --      2.5606                 1.5605                 4.1030
 Frc consts  --      0.8775                 0.5736                 1.9557
 IR Inten    --     21.7717                 2.7782                13.2742

                     25                     26                     27
                      A                      A                      A
 Frequencies --    921.6609               956.7459               963.8671
 Red. masses --      2.2557                 2.2366                 3.0935
 Frc consts  --      1.1289                 1.2063                 1.6933
 IR Inten    --      3.3824                15.6308                13.4174

                     28                     29                     30
                      A                      A                      A
 Frequencies --    970.3842               986.7837               999.5882
 Red. masses --      1.2762                 2.5294                 3.6584
 Frc consts  --      0.7080                 1.4512                 2.1537
 IR Inten    --      1.6403                32.3760                 8.9525

                     31                     32                     33
                      A                      A                      A
 Frequencies --   1020.7455              1050.3677              1067.6389
 Red. masses --      1.6822                 2.5391                 2.0947
 Frc consts  --      1.0327                 1.6505                 1.4068
 IR Inten    --      1.9348                38.6341                83.9517

                     34                     35                     36
                      A                      A                      A
 Frequencies --   1074.7771              1076.8300              1127.4904
 Red. masses --      2.2717                 1.9101                 2.3155
 Frc consts  --      1.5461                 1.3050                 1.7343
 IR Inten    --     17.8039                18.9761                16.6498

                     37                     38                     39
                      A                      A                      A
 Frequencies --   1137.3342              1165.6155              1166.7191
 Red. masses --      2.1728                 1.7919                 1.8143
 Frc consts  --      1.6559                 1.4344                 1.4551
 IR Inten    --     57.1896                36.0973                33.2237

                     40                     41                     42
                      A                      A                      A
 Frequencies --   1188.9036              1221.3697              1254.0066
 Red. masses --      1.6517                 1.4749                 1.2446
 Frc consts  --      1.3756                 1.2963                 1.1532
 IR Inten    --      4.4985                 6.3678                21.4519

                     43                     44                     45
                      A                      A                      A
 Frequencies --   1264.0999              1271.6930              1289.6909
 Red. masses --      1.4704                 1.4039                 3.0482
 Frc consts  --      1.3844                 1.3376                 2.9872
 IR Inten    --      7.3474                11.6909               389.3773

                     46                     47                     48
                      A                      A                      A
 Frequencies --   1305.6280              1327.6859              1335.7301
 Red. masses --      1.3683                 1.3580                 1.3255
 Frc consts  --      1.3743                 1.4104                 1.3934
 IR Inten    --      0.7507                 3.9297                 9.0306

                     49                     50                     51
                      A                      A                      A
 Frequencies --   1341.8103              1366.7205              1376.0733
 Red. masses --      1.4025                 1.5087                 1.5499
 Frc consts  --      1.4878                 1.6603                 1.7292
 IR Inten    --      7.8525                 4.5205                 5.3193

                     52                     53                     54
                      A                      A                      A
 Frequencies --   1421.0865              1433.6791              1437.7809
 Red. masses --      1.3392                 1.3633                 1.3846
 Frc consts  --      1.5935                 1.6509                 1.6864
 IR Inten    --     39.1777                55.1333                58.6051

                     55                     56                     57
                      A                      A                      A
 Frequencies --   1440.6469              1500.5779              1505.2939
 Red. masses --      1.4353                 1.0524                 1.0466
 Frc consts  --      1.7551                 1.3961                 1.3973
 IR Inten    --      7.3569                13.2302                 8.1942

                     58                     59                     60
                      A                      A                      A
 Frequencies --   1514.7444              1537.2943              1657.0777
 Red. masses --      1.0815                 1.1039                 6.5960
 Frc consts  --      1.4620                 1.5371                10.6713
 IR Inten    --      1.1694                 2.6278                 3.4006

                     61                     62                     63
                      A                      A                      A
 Frequencies --   1823.5838              2960.4061              2978.0770
 Red. masses --     10.9810                 1.0792                 1.0823
 Frc consts  --     21.5151                 5.5726                 5.6553
 IR Inten    --    198.8373                 6.9149                35.9504

                     64                     65                     66
                      A                      A                      A
 Frequencies --   3039.9645              3064.5857              3072.0742
 Red. masses --      1.0841                 1.0646                 1.0371
 Frc consts  --      5.9026                 5.8910                 5.7665
 IR Inten    --     31.6637                38.4930                 2.4828

                     67                     68                     69
                      A                      A                      A
 Frequencies --   3082.2175              3102.5158              3115.5248
 Red. masses --      1.0641                 1.0867                 1.1001
 Frc consts  --      5.9562                 6.1627                 6.2913
 IR Inten    --     24.2344                12.1518                14.7874

                     70                     71                     72
                      A                      A                      A
 Frequencies --   3133.8678              3134.5458              3184.0893
 Red. masses --      1.1047                 1.1005                 1.1033
 Frc consts  --      6.3924                 6.3709                 6.5907
 IR Inten    --     39.3098                 7.8367                 7.7747

                     73                     74                     75
                      A                      A                      A
 Frequencies --   3201.2682              3244.3582              3721.5070
 Red. masses --      1.0901                 1.0994                 1.0658
 Frc consts  --      6.5822                 6.8182                 8.6967
 IR Inten    --     12.6361                 8.9033                 7.5008

 - Thermochemistry -
 -------------------
 Temperature   298.150 Kelvin.  Pressure   1.00000 Atm.
 Atom     1 has atomic number  6 and mass  12.00000

 Molecular mass:   182.09429 amu.
 Principal axes and moments of inertia in atomic units:
                           1         2         3
     Eigenvalues --  1088.793923746.481334565.88173
           X            0.99997  -0.00027   0.00825
           Y            0.00033   0.99997  -0.00754
           Z           -0.00825   0.00755   0.99994
 This molecule is an asymmetric top.
 Rotational symmetry number  1.
 Warning -- assumption of classical behavior for rotation
           may cause significant error
 Rotational temperatures (Kelvin)      0.07955     0.02312     0.01897
 Rotational constants (GHZ):           1.65756     0.48172     0.39527
 Zero-point vibrational energy     601579.4 (Joules/Mol)
                                  143.78093 (Kcal/Mol)
 Warning -- explicit consideration of  19 degrees of freedom as
           vibrations may cause significant error
 Vibrational temperatures:     66.47    70.29   115.30   123.46   180.39
          (Kelvin)            250.60   309.80   357.96   421.33   447.47
                              480.44   506.75   650.38   709.57   764.06
                              804.71   827.40   876.90   892.07   977.51
                             1083.91  1097.29  1136.42  1294.10  1326.06
                             1376.54  1386.79  1396.17  1419.76  1438.18
                             1468.63  1511.24  1536.09  1546.36  1549.32
                             1622.21  1636.37  1677.06  1678.65  1710.57
                             1757.28  1804.24  1818.76  1829.68  1855.58
                             1878.51  1910.24  1921.82  1930.57  1966.41
                             1979.86  2044.63  2062.74  2068.65  2072.77
                             2159.00  2165.78  2179.38  2211.82  2384.17
                             2623.73  4259.36  4284.79  4373.83  4409.26
                             4420.03  4434.62  4463.83  4482.55  4508.94
                             4509.91  4581.19  4605.91  4667.91  5354.42

 Zero-point correction=                           0.229129 (Hartree/Particle)
 Thermal correction to Energy=                    0.241532
 Thermal correction to Enthalpy=                  0.242477
 Thermal correction to Gibbs Free Energy=         0.189541
 Sum of electronic and zero-point Energies=           -614.949828
 Sum of electronic and thermal Energies=              -614.937425
 Sum of electronic and thermal Enthalpies=            -614.936481
 Sum of electronic and thermal Free Energies=         -614.989416

                     E (Thermal)             CV                S
                      KCal/Mol        Cal/Mol-Kelvin    Cal/Mol-Kelvin
 Total                  151.564             46.849            111.412
 Electronic               0.000              0.000              0.000
 Translational            0.889              2.981             41.505
 Rotational               0.889              2.981             31.299
 Vibrational            149.786             40.887             38.608
 Vibration     1          0.595              1.979              4.974
 Vibration     2          0.595              1.978              4.863
 Vibration     3          0.600              1.963              3.888
 Vibration     4          0.601              1.959              3.753
 Vibration     5          0.610              1.928              3.016
 Vibration     6          0.627              1.874              2.390
 Vibration     7          0.645              1.818              1.998
 Vibration     8          0.662              1.765              1.739
 Vibration     9          0.688              1.687              1.457
 Vibration    10          0.700              1.653              1.357
 Vibration    11          0.715              1.608              1.241
 Vibration    12          0.729              1.571              1.156
 Vibration    13          0.811              1.356              0.790
 Vibration    14          0.849              1.265              0.675
 Vibration    15          0.886              1.181              0.585
 Vibration    16          0.915              1.119              0.525
 Vibration    17          0.931              1.085              0.495
 Vibration    18          0.968              1.012              0.434
 Vibration    19          0.980              0.990              0.416

                           ! Non-Optimized Parameters !
 Normal termination of Gaussian 16 at Wed Dec  9 22:27:08 2020.

 ----------------------------------------------------------------------
 # B3LYP/6-311++G(d,p) empiricaldispersion=gd3bj scf=xqc pop=npa geom=c
 heck
 ----------------------------------------------------------------------

 ---------------------------------------
 CID_130150784_JID_3074_Energie_neutraal
 ---------------------------------------
 Structure from the checkpoint file:  "JID_3074.chk"
 Charge =  0 Multiplicity = 1

 SCF Done:  E(RB3LYP) =  -615.364141523     A.U. after   14 cycles
 Normal termination of Gaussian 16 at Wed Dec  9 22:29:24 2020.

 ----------------------------------------------------------------------
 # B3LYP/6-311++G(d,p) empiricaldispersion=gd3bj scf=xqc pop=npa geom=c
 heck
 ----------------------------------------------------------------------

 -------------------------------------
 CID_130150784_JID_3074_Energie_kation
 -------------------------------------
 Structure from the checkpoint file:  "JID_3074.chk"
 Charge =  1 Multiplicity = 2

 SCF Done:  E(UB3LYP) =  -615.036074715     A.U. after   24 cycles
 Normal termination of Gaussian 16 at Wed Dec  9 22:34:27 2020.
 Gaussian 16:  ES64L-G16RevA.03 25-Dec-2016

 ----------------------------------------------------------------------
 # B3LYP/6-311++G(d,p) empiricaldispersion=gd3bj scf=xqc pop=npa geom=c
 heck
 ----------------------------------------------------------------------

 ------------------------------------
 CID_130150784_JID_3074_Energie_anion
 ------------------------------------
 Structure from the checkpoint file:  "JID_3074.chk"
 Charge = -1 Multiplicity = 2

                         Standard orientation:
 ---------------------------------------------------------------------
 Center     Atomic      Atomic             Coordinates (Angstroms)
 Number     Number       Type             X           Y           Z
 ---------------------------------------------------------------------
      1          6           0        4.142569   -0.288792    0.558980
      2          6           0        2.793677   -0.408993   -0.108958
      3          8           0        2.427150   -1.347112   -0.784390
      4          8           0        2.036050    0.680224    0.146320
      5          6           0        0.717046    0.700527   -0.447181
      6          6           0        0.132571    2.139935   -0.270526
      7          6           0       -1.344362    1.981272    0.228228
      8          6           0       -1.618471    0.519428   -0.110664
      9          6           0       -0.303986   -0.172245    0.271837
     10          6           0       -0.646358   -1.627494    0.064995
     11          6           0       -1.971813   -1.777472    0.208332
     12          6           0       -2.686329   -0.441494    0.428739
     13          8           0       -3.966388   -0.344442   -0.180083
     14          1           0        4.745093   -1.166084    0.322418
     15          1           0        4.015548   -0.205924    1.643400
     16          1           0        4.651948    0.618821    0.219945
     17          1           0        0.814168    0.414343   -1.497615
     18          1           0        0.747935    2.689339    0.447109
     19          1           0        0.175751    2.686045   -1.217473
     20          1           0       -1.409680    2.150206    1.309319
     21          1           0       -2.025420    2.684160   -0.259223
     22          1           0       -1.694698    0.441886   -1.209044
     23          1           0       -0.128612   -0.003071    1.349667
     24          1           0        0.085483   -2.412278   -0.086653
     25          1           0       -2.517667   -2.717073    0.199950
     26          1           0       -2.872756   -0.268775    1.498134
     27          1           0       -3.848846   -0.568985   -1.117411
 ---------------------------------------------------------------------

 SCF Done:  E(UB3LYP) =  -615.348349883     A.U. after   33 cycles
 SCF Done:  E(UB3LYP) =  -615.348349883     a.u. after    1 cycles

 The electronic state is 2-A.
 Alpha  occ. eigenvalues --  -19.06866 -19.02802 -19.01455 -10.20639 -10.13673
 Alpha  occ. eigenvalues --  -10.13304 -10.08357 -10.07987 -10.07913 -10.07774
 Alpha  occ. eigenvalues --  -10.07691 -10.07656 -10.07590  -1.00972  -0.93108
 Alpha  occ. eigenvalues --   -0.92416  -0.77950  -0.70709  -0.66393  -0.62462
 Alpha  occ. eigenvalues --   -0.59853  -0.57624  -0.50426  -0.49113  -0.47218
 Alpha  occ. eigenvalues --   -0.45866  -0.41755  -0.39809  -0.38625  -0.37183
 Alpha  occ. eigenvalues --   -0.36633  -0.35519  -0.34952  -0.33091  -0.32003
 Alpha  occ. eigenvalues --   -0.31266  -0.31185  -0.28384  -0.28063  -0.26804
 Alpha  occ. eigenvalues --   -0.25405  -0.24848  -0.24207  -0.23607  -0.22694
 Alpha  occ. eigenvalues --   -0.20439  -0.18363  -0.18093  -0.15887   0.04562
 Alpha virt. eigenvalues --    0.06031   0.07300   0.07670   0.08246   0.08792
 Alpha virt. eigenvalues --    0.09533   0.09705   0.10097   0.10438   0.10740
 Alpha virt. eigenvalues --    0.11546   0.12079   0.12699   0.13069   0.13723

  Beta  occ. eigenvalues --  -19.06857 -19.02768 -19.01446 -10.20636 -10.13666
  Beta  occ. eigenvalues --  -10.13300 -10.08354 -10.07956 -10.07899 -10.07717
  Beta  occ. eigenvalues --  -10.07670 -10.07642 -10.07590  -1.00956  -0.93037
  Beta  occ. eigenvalues --   -0.92398  -0.77922  -0.70677  -0.66344  -0.62409
  Beta  occ. eigenvalues --   -0.59818  -0.57571  -0.50377  -0.49059  -0.47188
  Beta  occ. eigenvalues --   -0.45814  -0.41709  -0.39762  -0.38595  -0.37145
  Beta  occ. eigenvalues --   -0.36593  -0.35480  -0.34914  -0.33045  -0.31966
  Beta  occ. eigenvalues --   -0.31230  -0.31140  -0.28344  -0.28024  -0.26765
  Beta  occ. eigenvalues --   -0.25364  -0.24817  -0.24168  -0.23580  -0.22668
  Beta  occ. eigenvalues --   -0.20423  -0.18337  -0.18060  -0.15814
  Beta virt. eigenvalues --    0.06888   0.07294   0.07884   0.07999   0.08393
  Beta virt. eigenvalues --    0.09271   0.09813   0.10209   0.10386   0.10691
  Beta virt. eigenvalues --    0.11225   0.12023   0.12484   0.12970   0.13194

 Mulliken charges and spin densities:
               1          2
     1  C    1.639778  -2.191751
     2  C   -0.742499   0.925610
     3  O   -0.262515   0.007494
     4  O    0.048496   0.042147
     5  C   -0.713568   0.017141
     6  C    0.647421  -1.102487
     7  C    0.321047  -0.878759
     8  C   -0.649691   0.791458
     9  C    0.558795   0.076964
    10  C    0.460723  -0.780961
    11  C   -0.649932   0.585901
    12  C    0.592172  -1.185807
    13  O   -0.169235   0.000392
    14  H   -0.095284   0.258093
    15  H   -0.577545   0.753355
    16  H   -0.579967   0.757304
    17  H    0.021279   0.234803
    18  H    0.036056   0.134936
    19  H   -0.304318   0.475853
    20  H    0.093448   0.031457
    21  H   -0.231398   0.409587
    22  H   -0.286675   0.474604
    23  H    0.018362   0.193335
    24  H    0.093833   0.111319
    25  H   -0.249997   0.423345
    26  H    0.103786   0.063541
    27  H   -0.122573   0.371125
 Sum of Mulliken charges =  -1.00000   1.00000

 Dipole moment (field-independent basis, Debye):
    X=             -2.5142    Y=             -1.0427    Z=              1.7135  Tot=              3.2163
 Quadrupole moment (field-independent basis, Debye-Ang):
   XX=           -168.4130   YY=           -115.9273   ZZ=           -109.9621
   XY=             -1.1240   XZ=            -12.1763   YZ=              2.4672

 Summary of Natural Population Analysis:

                                       Natural Population
                Natural  -----------------------------------------------
    Atom  No    Charge         Core      Valence    Rydberg      Total
 -----------------------------------------------------------------------
      C    1   -0.33159      0.99962     2.32666    0.00530     3.33159
      C    2    0.41035      0.99971     1.56538    0.02456     2.58965
      O    3   -0.30906      0.99987     3.30321    0.00597     4.30906
      O    4   -0.28471      0.99986     3.27475    0.01010     4.28471
      C    5    0.06371      0.99947     1.92202    0.01480     2.93629
      C    6   -0.19378      0.99963     2.18570    0.00846     3.19378
      C    7   -0.18832      0.99961     2.17981    0.00890     3.18832
      C    8   -0.10983      0.99955     2.09686    0.01342     3.10983
      C    9   -0.13392      0.99952     2.12446    0.00993     3.13392
      C   10   -0.07206      0.99950     2.06298    0.00958     3.07206
      C   11   -0.11091      0.99952     2.10110    0.01029     3.11091
      C   12    0.05233      0.99949     1.93303    0.01515     2.94767
      O   13   -0.36821      0.99990     3.36171    0.00660     4.36821
      H   14    0.10924      0.00000     0.38971    0.00105     0.39076
      H   15    0.11600      0.00000     0.38150    0.00250     0.38400
      H   16    0.11564      0.00000     0.38228    0.00208     0.38436
      H   17    0.09759      0.00000     0.40060    0.00181     0.40241
      H   18    0.10737      0.00000     0.39122    0.00141     0.39263
      H   19    0.10397      0.00000     0.39438    0.00165     0.39603
      H   20    0.09520      0.00000     0.40352    0.00128     0.40480
      H   21    0.10471      0.00000     0.39424    0.00105     0.39529
      H   22    0.09611      0.00000     0.40120    0.00269     0.40389
      H   23    0.10163      0.00000     0.39634    0.00203     0.39837
      H   24    0.11013      0.00000     0.38888    0.00099     0.38987
      H   25    0.10029      0.00000     0.39882    0.00089     0.39971
      H   26    0.08895      0.00000     0.40971    0.00133     0.41105
      H   27    0.22914      0.00000     0.26573    0.00513     0.27086
 =======================================================================
   * Total *    0.00000     12.99524    35.83582    0.16894    49.00000

 Normal termination of Gaussian 16 at Wed Dec  9 22:41:26 2020.
