 Gaussian 16, Revision A.03,

 -----------------------------------------------------------
 # opt freq B3LYP/6-31G(d) empiricaldispersion=gd3bj scf=xqc
 -----------------------------------------------------------

 ------------------------------
 CID_24702144_JID_3895_neutraal
 ------------------------------
 Symbolic Z-matrix:
 Charge =  0 Multiplicity = 1

 SCF Done:  E(RB3LYP) =  -917.107686675     A.U. after   14 cycles
 SCF Done:  E(RB3LYP) =  -917.112226446     A.U. after   12 cycles
 SCF Done:  E(RB3LYP) =  -917.112471166     A.U. after   11 cycles
 SCF Done:  E(RB3LYP) =  -917.112529558     A.U. after   11 cycles
 SCF Done:  E(RB3LYP) =  -917.112551683     A.U. after   10 cycles
 SCF Done:  E(RB3LYP) =  -917.112573817     A.U. after   10 cycles
 SCF Done:  E(RB3LYP) =  -917.112613636     A.U. after   11 cycles
 SCF Done:  E(RB3LYP) =  -917.112627254     A.U. after   11 cycles
 SCF Done:  E(RB3LYP) =  -917.112652187     A.U. after   10 cycles
 SCF Done:  E(RB3LYP) =  -917.112688721     A.U. after   12 cycles
 SCF Done:  E(RB3LYP) =  -917.112714496     A.U. after    8 cycles
 SCF Done:  E(RB3LYP) =  -917.112714868     A.U. after    8 cycles
 SCF Done:  E(RB3LYP) =  -917.112715131     A.U. after    8 cycles
 SCF Done:  E(RB3LYP) =  -917.112715320     A.U. after    8 cycles
 SCF Done:  E(RB3LYP) =  -917.112715374     A.U. after    7 cycles
 Optimization completed.
    -- Stationary point found.
 Normal termination of Gaussian 16 at Sun Dec 13 12:24:23 2020.

 --------------------------------------------------------------------
 #N Geom=AllCheck Guess=TCheck SCRF=Check GenChk RB3LYP/6-31G(d) Freq
 --------------------------------------------------------------------

 Structure from the checkpoint file:  "JID_3895.chk"
 ------------------------------
 CID_24702144_JID_3895_neutraal
 ------------------------------
 Charge =  0 Multiplicity = 1

 SCF Done:  E(RB3LYP) =  -917.112715374     A.U. after    1 cycles

  Exact polarizability: 170.954   0.824 128.975  -0.219  -4.062  87.809
 Approx polarizability: 240.169   5.582 199.919  -5.893 -10.338 152.126

                      1                      2                      3
                      A                      A                      A
 Frequencies --     19.8111                33.5932                62.8926
 Red. masses --      5.7287                 3.4942                 5.2458
 Frc consts  --      0.0013                 0.0023                 0.0122
 IR Inten    --      2.2175                 1.2042                 2.1758

                      4                      5                      6
                      A                      A                      A
 Frequencies --    100.6084               117.1521               129.6398
 Red. masses --      1.7485                 1.3350                 1.1151
 Frc consts  --      0.0104                 0.0108                 0.0110
 IR Inten    --      0.9886                 0.3746                 0.6436

                      7                      8                      9
                      A                      A                      A
 Frequencies --    156.4907               215.6773               233.0087
 Red. masses --      2.8665                 4.2191                 2.9028
 Frc consts  --      0.0414                 0.1156                 0.0929
 IR Inten    --      2.3743                 2.6497                 0.0249

                     10                     11                     12
                      A                      A                      A
 Frequencies --    265.0797               304.0599               335.4395
 Red. masses --      4.0965                 3.4651                 3.8183
 Frc consts  --      0.1696                 0.1888                 0.2531
 IR Inten    --      9.2000                 3.0507                 6.0030

                     13                     14                     15
                      A                      A                      A
 Frequencies --    389.9374               436.0272               448.5786
 Red. masses --      4.3477                 1.2536                 3.2229
 Frc consts  --      0.3895                 0.1404                 0.3821
 IR Inten    --      6.9299               158.9102                 8.8753

                     16                     17                     18
                      A                      A                      A
 Frequencies --    481.5797               501.1841               519.4726
 Red. masses --      3.2152                 3.2994                 3.2202
 Frc consts  --      0.4393                 0.4883                 0.5120
 IR Inten    --      3.6713                40.9492                 0.3817

                     19                     20                     21
                      A                      A                      A
 Frequencies --    535.6051               562.0251               583.3938
 Red. masses --      5.6755                 5.4668                 3.8451
 Frc consts  --      0.9593                 1.0174                 0.7711
 IR Inten    --      1.6520                 0.2830                 1.2670

                     22                     23                     24
                      A                      A                      A
 Frequencies --    680.0746               693.4802               759.8454
 Red. masses --      1.0713                 5.4434                 5.2432
 Frc consts  --      0.2919                 1.5424                 1.7836
 IR Inten    --      0.4634                 2.6227                 1.4153

                     25                     26                     27
                      A                      A                      A
 Frequencies --    787.8030               812.8334               873.7493
 Red. masses --      1.2126                 5.0297                 4.4287
 Frc consts  --      0.4434                 1.9579                 1.9921
 IR Inten    --     29.1754                 4.3056                 9.9701

                     28                     29                     30
                      A                      A                      A
 Frequencies --    904.4106               939.6941               969.1601
 Red. masses --      1.3022                 2.6191                 1.2990
 Frc consts  --      0.6276                 1.3626                 0.7188
 IR Inten    --      0.0402                 3.3747                 1.5817

                     31                     32                     33
                      A                      A                      A
 Frequencies --    983.1116              1016.6461              1020.4704
 Red. masses --      2.2767                 1.6066                 1.8422
 Frc consts  --      1.2965                 0.9783                 1.1303
 IR Inten    --     38.1967                 9.6600                 6.1121

                     34                     35                     36
                      A                      A                      A
 Frequencies --   1047.4401              1065.8030              1074.2096
 Red. masses --      4.5375                 1.7797                 1.5479
 Frc consts  --      2.9331                 1.1911                 1.0524
 IR Inten    --    121.4725                 1.8100                 2.5447

                     37                     38                     39
                      A                      A                      A
 Frequencies --   1077.2734              1126.6739              1201.1969
 Red. masses --      1.4994                 1.7018                 1.2023
 Frc consts  --      1.0252                 1.2728                 1.0221
 IR Inten    --      1.5914                38.5399                 0.3846

                     40                     41                     42
                      A                      A                      A
 Frequencies --   1224.2853              1266.8255              1293.0629
 Red. masses --      3.6355                 1.1996                 1.6055
 Frc consts  --      3.2105                 1.1342                 1.5816
 IR Inten    --    187.1988                18.9675                 0.7698

                     43                     44                     45
                      A                      A                      A
 Frequencies --   1301.8941              1312.3748              1349.9299
 Red. masses --      2.7002                 2.0938                 7.1430
 Frc consts  --      2.6965                 2.1248                 7.6692
 IR Inten    --    117.3622                47.3117                 0.5753

                     46                     47                     48
                      A                      A                      A
 Frequencies --   1400.4572              1441.3789              1444.0064
 Red. masses --      2.0166                 1.2875                 1.9930
 Frc consts  --      2.3303                 1.5759                 2.4485
 IR Inten    --     30.9760                10.3395               108.6604

                     49                     50                     51
                      A                      A                      A
 Frequencies --   1446.7045              1486.0794              1506.6819
 Red. masses --      1.2873                 1.9544                 1.1406
 Frc consts  --      1.5874                 2.5430                 1.5256
 IR Inten    --      5.5373                57.2748                 8.8046

                     52                     53                     54
                      A                      A                      A
 Frequencies --   1512.2661              1513.2941              1520.1283
 Red. masses --      1.1741                 1.2456                 1.0810
 Frc consts  --      1.5820                 1.6806                 1.4718
 IR Inten    --     11.6150                 1.3654                 6.2181

                     55                     56                     57
                      A                      A                      A
 Frequencies --   1534.2695              1538.5107              1639.8020
 Red. masses --      1.4824                 1.3511                 1.5638
 Frc consts  --      2.0559                 1.8842                 2.4775
 IR Inten    --     14.8812                50.6758               184.8085

                     58                     59                     60
                      A                      A                      A
 Frequencies --   1652.9174              1659.5130              3045.9507
 Red. masses --      4.2373                 7.2520                 1.0435
 Frc consts  --      6.8209                11.7671                 5.7043
 IR Inten    --     25.1772                 0.6064                22.2658

                     61                     62                     63
                      A                      A                      A
 Frequencies --   3050.4147              3067.8567              3101.3728
 Red. masses --      1.0377                 1.0564                 1.1001
 Frc consts  --      5.6890                 5.8577                 6.2345
 IR Inten    --     25.0189                14.5462                16.1470

                     64                     65                     66
                      A                      A                      A
 Frequencies --   3106.3130              3111.3408              3134.4002
 Red. masses --      1.0928                 1.1071                 1.1013
 Frc consts  --      6.2125                 6.3144                 6.3748
 IR Inten    --     24.0959                 6.8984                20.4192

                     67                     68                     69
                      A                      A                      A
 Frequencies --   3140.0747              3181.4987              3188.7057
 Red. masses --      1.1033                 1.0860                 1.0908
 Frc consts  --      6.4095                 6.4766                 6.5345
 IR Inten    --     14.1794                 0.4139                23.4047

                     70                     71                     72
                      A                      A                      A
 Frequencies --   3207.8444              3556.7480              3694.6363
 Red. masses --      1.0963                 1.0445                 1.1049
 Frc consts  --      6.6468                 7.7852                 8.8864
 IR Inten    --     27.5039                80.2490                85.5360

 - Thermochemistry -
 -------------------
 Temperature   298.150 Kelvin.  Pressure   1.00000 Atm.
 Atom     1 has atomic number  6 and mass  12.00000

 Molecular mass:   195.07179 amu.
 Principal axes and moments of inertia in atomic units:
                           1         2         3
     Eigenvalues --  1338.261254722.832015492.02769
           X            0.99991  -0.00822   0.01033
           Y            0.00821   0.99997   0.00090
           Z           -0.01034  -0.00081   0.99995
 This molecule is an asymmetric top.
 Rotational symmetry number  1.
 Warning -- assumption of classical behavior for rotation
           may cause significant error
 Rotational temperatures (Kelvin)      0.06472     0.01834     0.01577
 Rotational constants (GHZ):           1.34857     0.38213     0.32861
 Zero-point vibrational energy     562823.1 (Joules/Mol)
                                  134.51794 (Kcal/Mol)
 Warning -- explicit consideration of  21 degrees of freedom as
           vibrations may cause significant error
 Vibrational temperatures:     28.50    48.33    90.49   144.75   168.56
          (Kelvin)            186.52   225.16   310.31   335.25   381.39
                              437.47   482.62   561.03   627.35   645.40
                              692.89   721.09   747.41   770.62   808.63
                              839.37   978.48   997.76  1093.25  1133.47
                             1169.49  1257.13  1301.25  1352.01  1394.41
                             1414.48  1462.73  1468.23  1507.03  1533.45
                             1545.55  1549.96  1621.03  1728.25  1761.47
                             1822.68  1860.43  1873.14  1888.21  1942.25
                             2014.95  2073.82  2077.60  2081.49  2138.14
                             2167.78  2175.81  2177.29  2187.13  2207.47
                             2213.57  2359.31  2378.18  2387.67  4382.44
                             4388.87  4413.96  4462.18  4469.29  4476.53
                             4509.70  4517.87  4577.47  4587.84  4615.37
                             5117.37  5315.76

 Zero-point correction=                           0.214368 (Hartree/Particle)
 Thermal correction to Energy=                    0.227996
 Thermal correction to Enthalpy=                  0.228940
 Thermal correction to Gibbs Free Energy=         0.172170
 Sum of electronic and zero-point Energies=           -916.898347
 Sum of electronic and thermal Energies=              -916.884720
 Sum of electronic and thermal Enthalpies=            -916.883776
 Sum of electronic and thermal Free Energies=         -916.940545

                     E (Thermal)             CV                S
                      KCal/Mol        Cal/Mol-Kelvin    Cal/Mol-Kelvin
 Total                  143.069             49.929            119.482
 Electronic               0.000              0.000              0.000
 Translational            0.889              2.981             41.710
 Rotational               0.889              2.981             31.918
 Vibrational            141.292             43.967             45.854
 Vibration     1          0.593              1.986              6.653
 Vibration     2          0.594              1.983              5.605
 Vibration     3          0.597              1.972              4.364
 Vibration     4          0.604              1.949              3.442
 Vibration     5          0.608              1.935              3.147
 Vibration     6          0.612              1.924              2.951
 Vibration     7          0.620              1.895              2.592
 Vibration     8          0.645              1.817              1.995
 Vibration     9          0.654              1.790              1.856
 Vibration    10          0.671              1.737              1.628
 Vibration    11          0.695              1.666              1.394
 Vibration    12          0.717              1.605              1.234
 Vibration    13          0.758              1.492              1.000
 Vibration    14          0.796              1.392              0.839
 Vibration    15          0.808              1.364              0.800
 Vibration    16          0.838              1.291              0.706
 Vibration    17          0.857              1.247              0.655
 Vibration    18          0.874              1.207              0.611
 Vibration    19          0.891              1.171              0.575
 Vibration    20          0.918              1.113              0.520
 Vibration    21          0.940              1.067              0.479

 Optimization completed.
    -- Stationary point found.
 Normal termination of Gaussian 16 at Sun Dec 13 12:30:41 2020.

 ----------------------------------------------------------------------
 # B3LYP/6-311++G(d,p) empiricaldispersion=gd3bj scf=xqc pop=npa geom=c
 heck
 ----------------------------------------------------------------------

 --------------------------------------
 CID_24702144_JID_3895_Energie_neutraal
 --------------------------------------
 Structure from the checkpoint file:  "JID_3895.chk"
 Charge =  0 Multiplicity = 1

 SCF Done:  E(RB3LYP) =  -917.284783593     A.U. after   14 cycles
 Normal termination of Gaussian 16 at Sun Dec 13 12:33:03 2020.

 ----------------------------------------------------------------------
 # B3LYP/6-311++G(d,p) empiricaldispersion=gd3bj scf=xqc pop=npa geom=c
 heck
 ----------------------------------------------------------------------

 ------------------------------------
 CID_24702144_JID_3895_Energie_kation
 ------------------------------------
 Structure from the checkpoint file:  "JID_3895.chk"
 Charge =  1 Multiplicity = 2

 SCF Done:  E(UB3LYP) =  -916.991958622     A.U. after   32 cycles
 Normal termination of Gaussian 16 at Sun Dec 13 12:40:29 2020.
 Gaussian 16:  ES64L-G16RevA.03 25-Dec-2016

 ----------------------------------------------------------------------
 # B3LYP/6-311++G(d,p) empiricaldispersion=gd3bj scf=xqc pop=npa geom=c
 heck
 ----------------------------------------------------------------------

 -----------------------------------
 CID_24702144_JID_3895_Energie_anion
 -----------------------------------
 Structure from the checkpoint file:  "JID_3895.chk"
 Charge = -1 Multiplicity = 2

                         Standard orientation:
 ---------------------------------------------------------------------
 Center     Atomic      Atomic             Coordinates (Angstroms)
 Number     Number       Type             X           Y           Z
 ---------------------------------------------------------------------
      1          6           0       -0.549611   -2.419511    0.164212
      2          6           0       -1.488474   -1.252673   -0.010302
      3          6           0       -1.058013    0.052472    0.263484
      4          6           0       -1.895724    1.167390    0.140105
      5          6           0       -3.212515    0.947798   -0.279412
      6          6           0       -3.667376   -0.337311   -0.567248
      7          6           0       -2.810275   -1.428514   -0.430628
      8          6           0       -1.385030    2.550957    0.452327
      9          8           0        0.245691    0.233148    0.716091
     10          6           0        1.208601    0.509926   -0.306906
     11          6           0        2.582272    0.013255    0.106203
     12         16           0        3.905070    0.282755   -0.862599
     13          7           0        2.599353   -0.643698    1.269559
     14          1           0        0.349809   -2.321957   -0.454491
     15          1           0       -0.209875   -2.505208    1.203238
     16          1           0       -1.043168   -3.356852   -0.107156
     17          1           0       -3.883169    1.797560   -0.377322
     18          1           0       -4.692483   -0.490127   -0.891980
     19          1           0       -3.166524   -2.431949   -0.648431
     20          1           0       -0.733286    2.541718    1.331011
     21          1           0       -0.799274    2.961287   -0.380607
     22          1           0       -2.214307    3.239738    0.637930
     23          1           0        0.926977    0.015313   -1.242690
     24          1           0        1.268076    1.586510   -0.499427
     25          1           0        1.739354   -0.738606    1.796302
     26          1           0        3.472614   -1.003528    1.628560
 ---------------------------------------------------------------------

 SCF Done:  E(UB3LYP) =  -917.276503397     A.U. after   33 cycles
 SCF Done:  E(UB3LYP) =  -917.276503397     a.u. after    1 cycles

 The electronic state is 2-A.
 Alpha  occ. eigenvalues --  -88.67323 -19.04610 -14.23028 -10.12896 -10.12881
 Alpha  occ. eigenvalues --  -10.12712 -10.08964 -10.08707 -10.07986 -10.07804
 Alpha  occ. eigenvalues --  -10.07727 -10.07539 -10.06624  -7.76081  -5.72438
 Alpha  occ. eigenvalues --   -5.71950  -5.71646  -0.96326  -0.83258  -0.76425
 Alpha  occ. eigenvalues --   -0.69271  -0.67075  -0.64770  -0.60632  -0.58800
 Alpha  occ. eigenvalues --   -0.56960  -0.49470  -0.49054  -0.47866  -0.43916
 Alpha  occ. eigenvalues --   -0.42441  -0.39895  -0.37949  -0.36877  -0.34689
 Alpha  occ. eigenvalues --   -0.33213  -0.32799  -0.31632  -0.31418  -0.31257
 Alpha  occ. eigenvalues --   -0.28525  -0.28251  -0.26283  -0.25773  -0.24730
 Alpha  occ. eigenvalues --   -0.24644  -0.23960  -0.18988  -0.15015  -0.14620
 Alpha  occ. eigenvalues --   -0.11620  -0.09777   0.04392
 Alpha virt. eigenvalues --    0.05980   0.07018   0.07059   0.08071   0.08315
 Alpha virt. eigenvalues --    0.08502   0.09393   0.09904   0.10657   0.11619
 Alpha virt. eigenvalues --    0.12031   0.12322   0.12881   0.13880   0.14379

  Beta  occ. eigenvalues --  -88.67318 -19.04607 -14.22934 -10.12918 -10.12878
  Beta  occ. eigenvalues --  -10.12303 -10.08957 -10.08706 -10.07978 -10.07793
  Beta  occ. eigenvalues --  -10.07716 -10.07519 -10.06584  -7.76076  -5.72450
  Beta  occ. eigenvalues --   -5.71919  -5.71642  -0.96317  -0.82899  -0.76400
  Beta  occ. eigenvalues --   -0.69248  -0.66955  -0.64514  -0.60533  -0.58753
  Beta  occ. eigenvalues --   -0.56884  -0.49429  -0.49008  -0.47579  -0.43813
  Beta  occ. eigenvalues --   -0.42370  -0.39827  -0.37886  -0.36725  -0.34497
  Beta  occ. eigenvalues --   -0.33171  -0.32708  -0.31573  -0.31373  -0.31222
  Beta  occ. eigenvalues --   -0.28369  -0.28168  -0.26127  -0.25670  -0.24589
  Beta  occ. eigenvalues --   -0.24046  -0.23613  -0.18915  -0.14969  -0.14597
  Beta  occ. eigenvalues --   -0.11123  -0.09743
  Beta virt. eigenvalues --    0.06439   0.07465   0.07480   0.08110   0.08362
  Beta virt. eigenvalues --    0.08887   0.08980   0.09911   0.10078   0.10974
  Beta virt. eigenvalues --    0.11959   0.12222   0.12589   0.13021   0.13903

 Mulliken charges and spin densities:
               1          2
     1  C    2.603870  -3.084427
     2  C   -1.781834   2.339788
     3  C   -2.012254   1.964824
     4  C   -0.050704   0.293203
     5  C    0.654726  -0.966451
     6  C    0.321911  -0.624505
     7  C    1.204788  -1.694334
     8  C    0.168450  -0.637351
     9  O   -0.125928   0.012331
    10  C    0.111615  -0.409400
    11  C    0.240836   0.195548
    12  S   -0.831735   0.055701
    13  N   -0.283246   0.075049
    14  H   -0.027175   0.190665
    15  H   -0.378913   0.545440
    16  H   -0.410430   0.571913
    17  H   -0.245434   0.376920
    18  H   -0.605270   0.775799
    19  H   -0.270080   0.399929
    20  H    0.118550   0.061121
    21  H    0.133568   0.029818
    22  H   -0.038379   0.186313
    23  H   -0.001292   0.178338
    24  H    0.163195  -0.050652
    25  H    0.254425   0.030054
    26  H    0.086740   0.184363
 Sum of Mulliken charges =  -1.00000   1.00000

 Dipole moment (field-independent basis, Debye):
    X=             -1.2729    Y=              3.5493    Z=              2.1202  Tot=              4.3258
 Quadrupole moment (field-independent basis, Debye-Ang):
   XX=           -168.6125   YY=           -122.0738   ZZ=           -110.1757
   XY=             -3.9321   XZ=              5.6496   YZ=              2.3680

 Summary of Natural Population Analysis:

                                       Natural Population
                Natural  -----------------------------------------------
    Atom  No    Charge         Core      Valence    Rydberg      Total
 -----------------------------------------------------------------------
      C    1   -0.29385      0.99963     2.28729    0.00693     3.29385
      C    2   -0.02568      0.99946     2.01647    0.00975     3.02568
      C    3    0.15347      0.99926     1.83340    0.01386     2.84653
      C    4   -0.03052      0.99946     2.02174    0.00932     3.03052
      C    5   -0.10207      0.99952     2.09265    0.00990     3.10207
      C    6   -0.10038      0.99956     2.09037    0.01044     3.10038
      C    7   -0.09761      0.99952     2.08853    0.00956     3.09761
      C    8   -0.29324      0.99964     2.28892    0.00468     3.29324
      O    9   -0.30745      0.99986     3.29808    0.00951     4.30745
      C   10   -0.04074      0.99947     2.02969    0.01158     3.04074
      C   11    0.11353      0.99967     1.86775    0.01905     2.88647
      S   12   -0.14294      4.99955     3.12944    0.01395     8.14294
      N   13   -0.36638      0.99965     2.85555    0.01118     3.86638
      H   14    0.10794      0.00000     0.39058    0.00148     0.39206
      H   15    0.10819      0.00000     0.38977    0.00204     0.39181
      H   16    0.10273      0.00000     0.39601    0.00127     0.39727
      H   17    0.09854      0.00000     0.40036    0.00110     0.40146
      H   18    0.10099      0.00000     0.39777    0.00124     0.39901
      H   19    0.10096      0.00000     0.39783    0.00121     0.39904
      H   20    0.10894      0.00000     0.38999    0.00107     0.39106
      H   21    0.10379      0.00000     0.39510    0.00112     0.39621
      H   22    0.10103      0.00000     0.39816    0.00080     0.39897
      H   23    0.10471      0.00000     0.39418    0.00112     0.39529
      H   24    0.09783      0.00000     0.40105    0.00112     0.40217
      H   25    0.20228      0.00000     0.29527    0.00246     0.29772
      H   26    0.19594      0.00000     0.30231    0.00176     0.30406
 =======================================================================
   * Total *   -0.00000     16.99426    34.84826    0.15748    52.00000

 Normal termination of Gaussian 16 at Sun Dec 13 12:47:28 2020.
