 Gaussian 16, Revision A.03,

 -----------------------------------------------------------
 # opt freq B3LYP/6-31G(d) empiricaldispersion=gd3bj scf=xqc
 -----------------------------------------------------------

 -------------------------------
 CID_130644261_JID_2113_neutraal
 -------------------------------
 Symbolic Z-matrix:
 Charge =  0 Multiplicity = 1

 SCF Done:  E(RB3LYP) =  -586.839886071     A.U. after   15 cycles
 SCF Done:  E(RB3LYP) =  -586.845055690     A.U. after   13 cycles
 SCF Done:  E(RB3LYP) =  -586.847207462     A.U. after   13 cycles
 SCF Done:  E(RB3LYP) =  -586.849013605     A.U. after   15 cycles
 SCF Done:  E(RB3LYP) =  -586.849867564     A.U. after   12 cycles
 SCF Done:  E(RB3LYP) =  -586.850156953     A.U. after   11 cycles
 SCF Done:  E(RB3LYP) =  -586.850299968     A.U. after   11 cycles
 SCF Done:  E(RB3LYP) =  -586.850410422     A.U. after   11 cycles
 SCF Done:  E(RB3LYP) =  -586.850499336     A.U. after   10 cycles
 SCF Done:  E(RB3LYP) =  -586.850529523     A.U. after   10 cycles
 SCF Done:  E(RB3LYP) =  -586.850543191     A.U. after    9 cycles
 SCF Done:  E(RB3LYP) =  -586.850543494     A.U. after    8 cycles
 SCF Done:  E(RB3LYP) =  -586.850543721     A.U. after    8 cycles
 SCF Done:  E(RB3LYP) =  -586.850543818     A.U. after    7 cycles
 SCF Done:  E(RB3LYP) =  -586.850543859     A.U. after    7 cycles
 SCF Done:  E(RB3LYP) =  -586.850543879     A.U. after    7 cycles
 Optimization completed.
    -- Stationary point found.
 Normal termination of Gaussian 16 at Wed Dec  9 16:51:08 2020.

 --------------------------------------------------------------------
 #N Geom=AllCheck Guess=TCheck SCRF=Check GenChk RB3LYP/6-31G(d) Freq
 --------------------------------------------------------------------

 Structure from the checkpoint file:  "JID_2113.chk"
 -------------------------------
 CID_130644261_JID_2113_neutraal
 -------------------------------
 Charge =  0 Multiplicity = 1

 SCF Done:  E(RB3LYP) =  -586.850543879     A.U. after    1 cycles

  Exact polarizability: 166.164   6.154 101.887   3.085  -5.788  46.874
 Approx polarizability: 241.486  12.437 180.060   8.957 -11.799  72.480

                      1                      2                      3
                      A                      A                      A
 Frequencies --     34.9683                45.1771                92.1330
 Red. masses --      3.4891                 4.3527                 3.7786
 Frc consts  --      0.0025                 0.0052                 0.0189
 IR Inten    --      5.6587                 3.5723                 4.6524

                      4                      5                      6
                      A                      A                      A
 Frequencies --    143.3312               160.2420               177.2621
 Red. masses --      3.3023                 1.9180                 2.6899
 Frc consts  --      0.0400                 0.0290                 0.0498
 IR Inten    --      1.3549                 4.2926                 6.2325

                      7                      8                      9
                      A                      A                      A
 Frequencies --    226.5277               258.7287               291.0504
 Red. masses --      5.0239                 4.4500                 6.2670
 Frc consts  --      0.1519                 0.1755                 0.3128
 IR Inten    --      1.0466                 1.8252                 4.2992

                     10                     11                     12
                      A                      A                      A
 Frequencies --    376.3221               388.4363               408.7814
 Red. masses --      6.3176                 1.3751                 1.1462
 Frc consts  --      0.5271                 0.1222                 0.1128
 IR Inten    --      4.6201                54.0291                83.2022

                     13                     14                     15
                      A                      A                      A
 Frequencies --    444.5826               499.6175               528.5601
 Red. masses --      2.2403                 4.8898                 2.6853
 Frc consts  --      0.2609                 0.7191                 0.4420
 IR Inten    --     41.1781                 2.5136                 3.7395

                     16                     17                     18
                      A                      A                      A
 Frequencies --    561.4313               587.7844               659.7825
 Red. masses --      4.0885                 4.4093                 7.9198
 Frc consts  --      0.7593                 0.8975                 2.0313
 IR Inten    --     32.0321                61.1049                 2.0205

                     19                     20                     21
                      A                      A                      A
 Frequencies --    698.2854               724.3722               783.5265
 Red. masses --      5.4990                 3.3104                 3.9609
 Frc consts  --      1.5798                 1.0234                 1.4327
 IR Inten    --     14.2030                56.7425                57.1225

                     22                     23                     24
                      A                      A                      A
 Frequencies --    815.9536               828.6208               859.5049
 Red. masses --      2.1677                 2.0987                 4.0600
 Frc consts  --      0.8503                 0.8490                 1.7672
 IR Inten    --    183.5552                48.3627                39.4594

                     25                     26                     27
                      A                      A                      A
 Frequencies --    968.1700               990.8238              1031.6946
 Red. masses --      1.3359                 1.4329                 3.4758
 Frc consts  --      0.7378                 0.8288                 2.1798
 IR Inten    --      0.8760                 3.6146                13.7605

                     28                     29                     30
                      A                      A                      A
 Frequencies --   1081.8549              1105.1501              1143.4566
 Red. masses --      3.8854                 2.0772                 2.4353
 Frc consts  --      2.6793                 1.4947                 1.8761
 IR Inten    --     40.5459                12.0074                 4.9881

                     31                     32                     33
                      A                      A                      A
 Frequencies --   1168.0159              1182.7720              1208.5904
 Red. masses --      1.2683                 1.8774                 1.5966
 Frc consts  --      1.0195                 1.5474                 1.3741
 IR Inten    --      2.3187                 2.3024                37.5062

                     34                     35                     36
                      A                      A                      A
 Frequencies --   1300.9756              1342.5099              1357.6193
 Red. masses --      2.3349                 1.8384                 2.3132
 Frc consts  --      2.3284                 1.9522                 2.5120
 IR Inten    --      1.1713               204.6255               190.4840

                     37                     38                     39
                      A                      A                      A
 Frequencies --   1387.8889              1418.4774              1446.9842
 Red. masses --      2.5901                 1.3749                 1.1803
 Frc consts  --      2.9395                 1.6299                 1.4560
 IR Inten    --     79.1647               143.4403                 9.1231

                     40                     41                     42
                      A                      A                      A
 Frequencies --   1456.0465              1484.2173              1497.2642
 Red. masses --      2.7425                 2.1367                 1.3535
 Frc consts  --      3.4256                 2.7732                 1.7877
 IR Inten    --     23.3335                35.9577                13.5882

                     43                     44                     45
                      A                      A                      A
 Frequencies --   1512.5253              1550.1974              1598.8311
 Red. masses --      1.0418                 1.0745                 3.0798
 Frc consts  --      1.4042                 1.5213                 4.6385
 IR Inten    --      7.3835                21.6426               234.4594

                     46                     47                     48
                      A                      A                      A
 Frequencies --   1614.3848              1666.3615              1761.8991
 Red. masses --      4.7632                 5.9940                 8.8358
 Frc consts  --      7.3141                 9.8064                16.1606
 IR Inten    --     46.2720               618.2400               224.6307

                     49                     50                     51
                      A                      A                      A
 Frequencies --   3020.8924              3067.9889              3152.0223
 Red. masses --      1.0410                 1.1021                 1.0973
 Frc consts  --      5.5973                 6.1118                 6.4233
 IR Inten    --     74.8042                39.4267                18.3910

                     52                     53                     54
                      A                      A                      A
 Frequencies --   3204.6459              3219.7606              3250.3359
 Red. masses --      1.0908                 1.0890                 1.0923
 Frc consts  --      6.6000                 6.6517                 6.7989
 IR Inten    --      5.3728                10.0608                12.8925

                     55                     56                     57
                      A                      A                      A
 Frequencies --   3517.4554              3634.5184              3709.0641
 Red. masses --      1.0763                 1.0769                 1.0687
 Frc consts  --      7.8456                 8.3814                 8.6624
 IR Inten    --     14.7043                64.4856                28.7330

 - Thermochemistry -
 -------------------
 Temperature   298.150 Kelvin.  Pressure   1.00000 Atm.
 Atom     1 has atomic number  6 and mass  12.00000

 Molecular mass:   167.06948 amu.
 Principal axes and moments of inertia in atomic units:
                           1         2         3
     Eigenvalues --   785.832003657.169764342.62048
           X            0.99998   0.00561  -0.00175
           Y           -0.00564   0.99983  -0.01734
           Z            0.00165   0.01735   0.99985
 This molecule is an asymmetric top.
 Rotational symmetry number  1.
 Warning -- assumption of classical behavior for rotation
           may cause significant error
 Rotational temperatures (Kelvin)      0.11022     0.02368     0.01995
 Rotational constants (GHZ):           2.29660     0.49348     0.41559
 Zero-point vibrational energy     434533.8 (Joules/Mol)
                                  103.85607 (Kcal/Mol)
 Warning -- explicit consideration of  17 degrees of freedom as
           vibrations may cause significant error
 Vibrational temperatures:     50.31    65.00   132.56   206.22   230.55
          (Kelvin)            255.04   325.92   372.25   418.76   541.44
                              558.87   588.15   639.66   718.84   760.48
                              807.77   845.69   949.28  1004.68  1042.21
                             1127.32  1173.98  1192.20  1236.64  1392.98
                             1425.57  1484.38  1556.55  1590.06  1645.18
                             1680.51  1701.75  1738.89  1871.81  1931.57
                             1953.31  1996.86  2040.87  2081.89  2094.93
                             2135.46  2154.23  2176.19  2230.39  2300.36
                             2322.74  2397.52  2534.98  4346.39  4414.15
                             4535.06  4610.77  4632.52  4676.51  5060.83
                             5229.26  5336.52

 Zero-point correction=                           0.165505 (Hartree/Particle)
 Thermal correction to Energy=                    0.177064
 Thermal correction to Enthalpy=                  0.178009
 Thermal correction to Gibbs Free Energy=         0.126898
 Sum of electronic and zero-point Energies=           -586.685039
 Sum of electronic and thermal Energies=              -586.673479
 Sum of electronic and thermal Enthalpies=            -586.672535
 Sum of electronic and thermal Free Energies=         -586.723646

                     E (Thermal)             CV                S
                      KCal/Mol        Cal/Mol-Kelvin    Cal/Mol-Kelvin
 Total                  111.110             42.079            107.572
 Electronic               0.000              0.000              0.000
 Translational            0.889              2.981             41.248
 Rotational               0.889              2.981             30.902
 Vibrational            109.332             36.118             35.423
 Vibration     1          0.594              1.982              5.526
 Vibration     2          0.595              1.979              5.018
 Vibration     3          0.602              1.955              3.614
 Vibration     4          0.616              1.910              2.759
 Vibration     5          0.622              1.891              2.547
 Vibration     6          0.628              1.870              2.357
 Vibration     7          0.650              1.801              1.906
 Vibration     8          0.668              1.748              1.670
 Vibration     9          0.687              1.690              1.468
 Vibration    10          0.747              1.521              1.054
 Vibration    11          0.757              1.495              1.006
 Vibration    12          0.773              1.451              0.931
 Vibration    13          0.804              1.373              0.812
 Vibration    14          0.855              1.251              0.659
 Vibration    15          0.884              1.187              0.590
 Vibration    16          0.917              1.115              0.521
 Vibration    17          0.945              1.058              0.471

                           ! Non-Optimized Parameters !
 Normal termination of Gaussian 16 at Wed Dec  9 16:55:12 2020.

 ----------------------------------------------------------------------
 # B3LYP/6-311++G(d,p) empiricaldispersion=gd3bj scf=xqc pop=npa geom=c
 heck
 ----------------------------------------------------------------------

 ---------------------------------------
 CID_130644261_JID_2113_Energie_neutraal
 ---------------------------------------
 Structure from the checkpoint file:  "JID_2113.chk"
 Charge =  0 Multiplicity = 1

 SCF Done:  E(RB3LYP) =  -587.029525526     A.U. after   15 cycles
 Normal termination of Gaussian 16 at Wed Dec  9 16:56:57 2020.

 ----------------------------------------------------------------------
 # B3LYP/6-311++G(d,p) empiricaldispersion=gd3bj scf=xqc pop=npa geom=c
 heck
 ----------------------------------------------------------------------

 -------------------------------------
 CID_130644261_JID_2113_Energie_kation
 -------------------------------------
 Structure from the checkpoint file:  "JID_2113.chk"
 Charge =  1 Multiplicity = 2

 SCF Done:  E(UB3LYP) =  -586.736554578     A.U. after   23 cycles
 Normal termination of Gaussian 16 at Wed Dec  9 17:00:20 2020.
 Gaussian 16:  ES64L-G16RevA.03 25-Dec-2016

 ----------------------------------------------------------------------
 # B3LYP/6-311++G(d,p) empiricaldispersion=gd3bj scf=xqc pop=npa geom=c
 heck
 ----------------------------------------------------------------------

 ------------------------------------
 CID_130644261_JID_2113_Energie_anion
 ------------------------------------
 Structure from the checkpoint file:  "JID_2113.chk"
 Charge = -1 Multiplicity = 2

                         Standard orientation:
 ---------------------------------------------------------------------
 Center     Atomic      Atomic             Coordinates (Angstroms)
 Number     Number       Type             X           Y           Z
 ---------------------------------------------------------------------
      1          6           0       -4.177671   -0.792163    0.106089
      2          7           0       -3.284775    0.310903   -0.161020
      3          6           0       -1.928318    0.255412   -0.061430
      4          7           0       -1.287459    1.426797   -0.270914
      5          6           0        0.037540    1.429087   -0.194570
      6          6           0        0.826269    0.297584    0.073710
      7          6           0        0.141933   -0.908503    0.295650
      8          6           0       -1.239042   -0.942093    0.237304
      9          6           0        2.286792    0.503405    0.154379
     10          8           0        2.797739    1.612683    0.262977
     11          7           0        3.146464   -0.607119    0.200256
     12          8           0        2.809595   -1.723232   -0.614068
     13          1           0       -4.084434   -1.160622    1.137767
     14          1           0       -3.991523   -1.632395   -0.575619
     15          1           0       -5.205178   -0.455921   -0.045690
     16          1           0       -3.656501    1.236530   -0.317343
     17          1           0        0.533158    2.383102   -0.353686
     18          1           0        0.686220   -1.816153    0.520916
     19          1           0       -1.777772   -1.864975    0.417723
     20          1           0        4.092314   -0.305556   -0.027319
     21          1           0        2.840411   -2.470067    0.006927
 ---------------------------------------------------------------------

 SCF Done:  E(UB3LYP) =  -587.028508074     A.U. after   31 cycles

 The electronic state is 2-A.
 Alpha  occ. eigenvalues --  -19.04822 -18.96300 -14.25259 -14.22170 -14.18701
 Alpha  occ. eigenvalues --  -10.13985 -10.12471 -10.10487 -10.08665 -10.06490
 Alpha  occ. eigenvalues --  -10.05768 -10.05302  -0.96885  -0.90744  -0.86051
 Alpha  occ. eigenvalues --   -0.79543  -0.72234  -0.68664  -0.64723  -0.59783
 Alpha  occ. eigenvalues --   -0.52232  -0.51829  -0.46511  -0.42880  -0.42774
 Alpha  occ. eigenvalues --   -0.40629  -0.36795  -0.35368  -0.34894  -0.33627
 Alpha  occ. eigenvalues --   -0.33243  -0.31328  -0.29564  -0.29487  -0.28400
 Alpha  occ. eigenvalues --   -0.26979  -0.26235  -0.20766  -0.19308  -0.16929
 Alpha  occ. eigenvalues --   -0.15914  -0.14795  -0.13237  -0.10138   0.04089
 Alpha virt. eigenvalues --    0.05771   0.07192   0.08420   0.08987   0.10016
 Alpha virt. eigenvalues --    0.10429   0.10582   0.12132   0.12380   0.13804
 Alpha virt. eigenvalues --    0.14788   0.15580   0.16115   0.16617   0.16858

  Beta  occ. eigenvalues --  -19.04718 -18.96105 -14.25244 -14.22120 -14.18744
  Beta  occ. eigenvalues --  -10.13816 -10.12315 -10.10455 -10.08614 -10.06332
  Beta  occ. eigenvalues --  -10.05814 -10.05289  -0.96650  -0.90384  -0.85923
  Beta  occ. eigenvalues --   -0.79479  -0.72038  -0.68509  -0.64567  -0.59678
  Beta  occ. eigenvalues --   -0.51970  -0.51652  -0.46363  -0.42764  -0.42648
  Beta  occ. eigenvalues --   -0.40543  -0.36664  -0.35099  -0.34725  -0.33547
  Beta  occ. eigenvalues --   -0.33151  -0.31135  -0.29474  -0.29071  -0.28274
  Beta  occ. eigenvalues --   -0.26249  -0.26126  -0.20623  -0.18845  -0.16609
  Beta  occ. eigenvalues --   -0.15725  -0.14563  -0.13048  -0.09769
  Beta virt. eigenvalues --    0.06566   0.07648   0.08541   0.08948   0.09235
  Beta virt. eigenvalues --    0.10258   0.10605   0.10860   0.12254   0.12847
  Beta virt. eigenvalues --    0.13925   0.14930   0.15876   0.16540   0.16712

 Mulliken charges and spin densities:
               1          2
     1  C    0.791706  -1.106056
     2  N   -0.284621   0.097770
     3  C   -0.609738   0.241223
     4  N   -0.186832   0.012972
     5  C   -0.701541   0.262572
     6  C    1.619322  -0.474530
     7  C    0.423807  -0.413623
     8  C   -0.301786  -0.004988
     9  C   -0.129705  -0.208570
    10  O   -0.403167   0.068788
    11  N   -0.286899  -0.017248
    12  O   -0.108628  -0.022750
    13  H    0.024953   0.120883
    14  H   -0.185809   0.342112
    15  H   -0.615899   0.760528
    16  H    0.244378   0.043150
    17  H    0.213480  -0.000894
    18  H   -0.587613   0.671655
    19  H   -0.050036   0.222952
    20  H    0.233682   0.051060
    21  H   -0.099055   0.352992
 Sum of Mulliken charges =  -1.00000   1.00000

 Dipole moment (field-independent basis, Debye):
    X=             -0.2925    Y=              1.0860    Z=             -0.2524  Tot=              1.1526
 Quadrupole moment (field-independent basis, Debye-Ang):
   XX=           -132.3824   YY=           -103.9468   ZZ=            -87.6717
   XY=             -4.3088   XZ=             -2.9240   YZ=             -1.4700

 Summary of Natural Population Analysis:

                                       Natural Population
                Natural  -----------------------------------------------
    Atom  No    Charge         Core      Valence    Rydberg      Total
 -----------------------------------------------------------------------
      C    1   -0.17959      0.99966     2.17194    0.00800     3.17959
      N    2   -0.30148      0.99967     2.79113    0.01069     3.80148
      C    3    0.22949      0.99954     1.75504    0.01593     2.77051
      N    4   -0.27469      0.99968     2.76503    0.00997     3.77469
      C    5    0.07288      0.99957     1.91490    0.01265     2.92712
      C    6   -0.11925      0.99946     2.10957    0.01022     3.11925
      C    7   -0.02370      0.99955     2.01436    0.00979     3.02370
      C    8   -0.17130      0.99953     2.16309    0.00868     3.17130
      C    9    0.34876      0.99963     1.62833    0.02329     2.65124
      O   10   -0.30535      0.99988     3.30012    0.00535     4.30535
      N   11   -0.18218      0.99966     2.66736    0.01516     3.68218
      O   12   -0.28152      0.99990     3.27392    0.00770     4.28152
      H   13    0.08884      0.00000     0.40985    0.00131     0.41116
      H   14    0.09489      0.00000     0.40328    0.00183     0.40511
      H   15    0.09970      0.00000     0.39896    0.00134     0.40030
      H   16    0.19174      0.00000     0.30516    0.00310     0.30826
      H   17    0.09720      0.00000     0.40159    0.00121     0.40280
      H   18    0.10238      0.00000     0.39588    0.00174     0.39762
      H   19    0.10394      0.00000     0.39481    0.00125     0.39606
      H   20    0.17665      0.00000     0.32082    0.00253     0.32335
      H   21    0.23258      0.00000     0.25730    0.01012     0.26742
 =======================================================================
   * Total *   -0.00000     11.99572    31.84243    0.16185    44.00000

 Normal termination of Gaussian 16 at Wed Dec  9 17:05:31 2020.
