 Gaussian 16, Revision A.03,

 -----------------------------------------------------------
 # opt freq B3LYP/6-31G(d) empiricaldispersion=gd3bj scf=xqc
 -----------------------------------------------------------

 -------------------------------
 CID_130121616_JID_3336_neutraal
 -------------------------------
 Symbolic Z-matrix:
 Charge =  0 Multiplicity = 1

 SCF Done:  E(RB3LYP) =  -1039.29753253     A.U. after   15 cycles
 SCF Done:  E(RB3LYP) =  -1039.31575440     A.U. after   13 cycles
 SCF Done:  E(RB3LYP) =  -1039.32083017     A.U. after   13 cycles
 SCF Done:  E(RB3LYP) =  -1039.32391713     A.U. after   13 cycles
 SCF Done:  E(RB3LYP) =  -1039.32738176     A.U. after   14 cycles
 SCF Done:  E(RB3LYP) =  -1039.33075179     A.U. after   13 cycles
 SCF Done:  E(RB3LYP) =  -1039.33399920     A.U. after   13 cycles
 SCF Done:  E(RB3LYP) =  -1039.33774601     A.U. after   13 cycles
 SCF Done:  E(RB3LYP) =  -1039.34315081     A.U. after   13 cycles
 SCF Done:  E(RB3LYP) =  -1039.34621586     A.U. after   13 cycles
 SCF Done:  E(RB3LYP) =  -1039.35451373     A.U. after   11 cycles
 SCF Done:  E(RB3LYP) =  -1039.35451934     A.U. after   12 cycles
 SCF Done:  E(RB3LYP) =  -1039.35452434     A.U. after   11 cycles
 SCF Done:  E(RB3LYP) =  -1039.35452550     A.U. after    9 cycles
 SCF Done:  E(RB3LYP) =  -1039.35452578     A.U. after    9 cycles
 SCF Done:  E(RB3LYP) =  -1039.35452584     A.U. after    8 cycles
 Optimization completed.
    -- Stationary point found.
 Normal termination of Gaussian 16 at Wed Dec  9 23:02:51 2020.

 --------------------------------------------------------------------
 #N Geom=AllCheck Guess=TCheck SCRF=Check GenChk RB3LYP/6-31G(d) Freq
 --------------------------------------------------------------------

 Structure from the checkpoint file:  "JID_3336.chk"
 -------------------------------
 CID_130121616_JID_3336_neutraal
 -------------------------------
 Charge =  0 Multiplicity = 1

 SCF Done:  E(RB3LYP) =  -1039.35452584     A.U. after    1 cycles

  Exact polarizability: 127.663   4.231  95.808   6.825  -0.791  81.034
 Approx polarizability: 184.043  16.536 151.578  13.091  -0.243 135.614

                      1                      2                      3
                      A                      A                      A
 Frequencies --     33.9103                82.7713                90.7560
 Red. masses --      8.2988                 8.1939                10.4486
 Frc consts  --      0.0056                 0.0331                 0.0507
 IR Inten    --      0.5196                 8.2840                 5.0017

                      4                      5                      6
                      A                      A                      A
 Frequencies --    117.9869               203.8645               238.5736
 Red. masses --      3.0882                 8.6187                 4.6600
 Frc consts  --      0.0253                 0.2110                 0.1563
 IR Inten    --      2.0510                 3.3625                 4.5911

                      7                      8                      9
                      A                      A                      A
 Frequencies --    260.2498               280.5737               310.4928
 Red. masses --      3.9236                 7.8821                 3.2759
 Frc consts  --      0.1566                 0.3656                 0.1861
 IR Inten    --     25.2552                10.5278                 1.2557

                     10                     11                     12
                      A                      A                      A
 Frequencies --    344.0296               392.0125               426.8314
 Red. masses --      3.8686                 6.6167                 7.8710
 Frc consts  --      0.2698                 0.5991                 0.8449
 IR Inten    --      0.6873                 9.6880                 9.7674

                     13                     14                     15
                      A                      A                      A
 Frequencies --    484.4896               518.0805               533.7822
 Red. masses --      4.4916                 6.1677                 1.5021
 Frc consts  --      0.6212                 0.9754                 0.2522
 IR Inten    --      7.9990                 0.6633                70.1372

                     16                     17                     18
                      A                      A                      A
 Frequencies --    565.1545               577.7837               623.9685
 Red. masses --      2.6958                 3.7066                 2.1681
 Frc consts  --      0.5073                 0.7291                 0.4974
 IR Inten    --     11.7492                36.2701                67.2145

                     19                     20                     21
                      A                      A                      A
 Frequencies --    651.8336               685.5391               726.1934
 Red. masses --      4.1981                 4.0173                 2.0791
 Frc consts  --      1.0509                 1.1124                 0.6460
 IR Inten    --     14.0994                 2.7927                46.6059

                     22                     23                     24
                      A                      A                      A
 Frequencies --    753.1553               790.5084               803.4232
 Red. masses --      9.9825                 2.9759                 1.8309
 Frc consts  --      3.3362                 1.0957                 0.6963
 IR Inten    --     70.0677                74.2656                95.0376

                     25                     26                     27
                      A                      A                      A
 Frequencies --    853.1591               902.9891               962.0315
 Red. masses --      2.9848                 2.1869                 3.9094
 Frc consts  --      1.2800                 1.0506                 2.1318
 IR Inten    --      2.7651                69.7541                 3.2781

                     28                     29                     30
                      A                      A                      A
 Frequencies --    970.6220              1008.8848              1014.6438
 Red. masses --      2.7561                 2.1482                 2.9256
 Frc consts  --      1.5298                 1.2882                 1.7745
 IR Inten    --     30.1569                 9.2492                61.5776

                     31                     32                     33
                      A                      A                      A
 Frequencies --   1075.1174              1115.4398              1131.6949
 Red. masses --      1.9389                 2.4288                 3.7481
 Frc consts  --      1.3205                 1.7805                 2.8283
 IR Inten    --     24.6699                26.3712               241.3224

                     34                     35                     36
                      A                      A                      A
 Frequencies --   1139.8296              1152.4163              1178.5973
 Red. masses --      2.6618                 3.0601                 1.8437
 Frc consts  --      2.0376                 2.3945                 1.5090
 IR Inten    --     48.9009                51.3809                28.0253

                     37                     38                     39
                      A                      A                      A
 Frequencies --   1210.9766              1216.3724              1227.1626
 Red. masses --      1.3648                 2.2075                 1.5634
 Frc consts  --      1.1792                 1.9243                 1.3872
 IR Inten    --     26.9594                 5.6985                35.3975

                     40                     41                     42
                      A                      A                      A
 Frequencies --   1259.4014              1297.7529              1322.9970
 Red. masses --      1.4319                 1.5193                 1.1669
 Frc consts  --      1.3381                 1.5076                 1.2034
 IR Inten    --     46.0997                64.9454                24.4478

                     43                     44                     45
                      A                      A                      A
 Frequencies --   1340.1728              1366.7289              1374.5394
 Red. masses --      1.2522                 1.3028                 1.2858
 Frc consts  --      1.3251                 1.4339                 1.4313
 IR Inten    --     29.8062                26.5921                12.2830

                     46                     47                     48
                      A                      A                      A
 Frequencies --   1418.1429              1430.1409              1448.6271
 Red. masses --      1.3820                 1.7045                 1.3793
 Frc consts  --      1.6376                 2.0540                 1.7054
 IR Inten    --     28.6218                36.2261                 6.0652

                     49                     50                     51
                      A                      A                      A
 Frequencies --   1456.1645              1485.1694              1494.2246
 Red. masses --      1.3640                 1.4161                 1.4528
 Frc consts  --      1.7041                 1.8404                 1.9111
 IR Inten    --     21.9215                17.9073               103.2859

                     52                     53                     54
                      A                      A                      A
 Frequencies --   1554.3977              1832.5042              3038.4811
 Red. masses --      1.0901                 9.8572                 1.0709
 Frc consts  --      1.5518                19.5027                 5.8253
 IR Inten    --      0.3757               384.4488                50.4048

                     55                     56                     57
                      A                      A                      A
 Frequencies --   3049.7346              3067.2566              3114.9850
 Red. masses --      1.0828                 1.0831                 1.0901
 Frc consts  --      5.9337                 6.0037                 6.2319
 IR Inten    --     15.2762                 7.9148                 9.8617

                     58                     59                     60
                      A                      A                      A
 Frequencies --   3117.5568              3248.1753              3280.2033
 Red. masses --      1.0974                 1.0636                 1.0737
 Frc consts  --      6.2843                 6.6119                 6.8064
 IR Inten    --     13.0765               196.2289                22.2896

                     61                     62                     63
                      A                      A                      A
 Frequencies --   3551.9838              3557.6574              3601.1712
 Red. masses --      1.0760                 1.0768                 1.0769
 Frc consts  --      7.9983                 8.0296                 8.2287
 IR Inten    --     21.3775                 2.4839                39.0272

 - Thermochemistry -
 -------------------
 Temperature   298.150 Kelvin.  Pressure   1.00000 Atm.
 Atom     1 has atomic number  6 and mass  12.00000

 Molecular mass:   206.04736 amu.
 Principal axes and moments of inertia in atomic units:
                           1         2         3
     Eigenvalues --  1481.443413419.478784163.90733
           X            0.99977  -0.01498   0.01533
           Y            0.01519   0.99979  -0.01363
           Z           -0.01513   0.01386   0.99979
 This molecule is an asymmetric top.
 Rotational symmetry number  1.
 Warning -- assumption of classical behavior for rotation
           may cause significant error
 Rotational temperatures (Kelvin)      0.05847     0.02533     0.02080
 Rotational constants (GHZ):           1.21823     0.52778     0.43342
 Zero-point vibrational energy     474702.6 (Joules/Mol)
                                  113.45663 (Kcal/Mol)
 Warning -- explicit consideration of  17 degrees of freedom as
           vibrations may cause significant error
 Vibrational temperatures:     48.79   119.09   130.58   169.76   293.32
          (Kelvin)            343.25   374.44   403.68   446.73   494.98
                              564.02   614.12   697.07   745.40   767.99
                              813.13   831.30   897.75   937.84   986.34
                             1044.83  1083.62  1137.37  1155.95  1227.51
                             1299.20  1384.15  1396.51  1451.56  1459.85
                             1546.85  1604.87  1628.26  1639.96  1658.07
                             1695.74  1742.33  1750.09  1765.61  1812.00
                             1867.18  1903.50  1928.21  1966.42  1977.66
                             2040.39  2057.65  2084.25  2095.10  2136.83
                             2149.86  2236.43  2636.56  4371.70  4387.89
                             4413.10  4481.77  4485.47  4673.40  4719.48
                             5110.51  5118.68  5181.28

 Zero-point correction=                           0.180805 (Hartree/Particle)
 Thermal correction to Energy=                    0.192386
 Thermal correction to Enthalpy=                  0.193330
 Thermal correction to Gibbs Free Energy=         0.142333
 Sum of electronic and zero-point Energies=          -1039.173721
 Sum of electronic and thermal Energies=             -1039.162140
 Sum of electronic and thermal Enthalpies=           -1039.161196
 Sum of electronic and thermal Free Energies=        -1039.212193

                     E (Thermal)             CV                S
                      KCal/Mol        Cal/Mol-Kelvin    Cal/Mol-Kelvin
 Total                  120.724             44.610            107.333
 Electronic               0.000              0.000              0.000
 Translational            0.889              2.981             41.873
 Rotational               0.889              2.981             31.423
 Vibrational            118.946             38.648             34.037
 Vibration     1          0.594              1.983              5.586
 Vibration     2          0.600              1.961              3.824
 Vibration     3          0.602              1.956              3.644
 Vibration     4          0.608              1.934              3.133
 Vibration     5          0.640              1.834              2.098
 Vibration     6          0.657              1.782              1.813
 Vibration     7          0.668              1.745              1.660
 Vibration     8          0.680              1.710              1.530
 Vibration     9          0.699              1.654              1.360
 Vibration    10          0.723              1.587              1.193
 Vibration    11          0.759              1.487              0.992
 Vibration    12          0.788              1.412              0.869
 Vibration    13          0.841              1.284              0.698
 Vibration    14          0.873              1.210              0.614
 Vibration    15          0.889              1.175              0.579
 Vibration    16          0.921              1.107              0.514
 Vibration    17          0.934              1.079              0.489

 Optimization completed.
    -- Stationary point found.
 Normal termination of Gaussian 16 at Wed Dec  9 23:08:43 2020.

 ----------------------------------------------------------------------
 # B3LYP/6-311++G(d,p) empiricaldispersion=gd3bj scf=xqc pop=npa geom=c
 heck
 ----------------------------------------------------------------------

 ---------------------------------------
 CID_130121616_JID_3336_Energie_neutraal
 ---------------------------------------
 Structure from the checkpoint file:  "JID_3336.chk"
 Charge =  0 Multiplicity = 1

 SCF Done:  E(RB3LYP) =  -1039.58868485     A.U. after   15 cycles
 Normal termination of Gaussian 16 at Wed Dec  9 23:10:46 2020.

 ----------------------------------------------------------------------
 # B3LYP/6-311++G(d,p) empiricaldispersion=gd3bj scf=xqc pop=npa geom=c
 heck
 ----------------------------------------------------------------------

 -------------------------------------
 CID_130121616_JID_3336_Energie_kation
 -------------------------------------
 Structure from the checkpoint file:  "JID_3336.chk"
 Charge =  1 Multiplicity = 2

 SCF Done:  E(UB3LYP) =  -1039.27269454     A.U. after   25 cycles
 Normal termination of Gaussian 16 at Wed Dec  9 23:15:24 2020.
 Gaussian 16:  ES64L-G16RevA.03 25-Dec-2016

 ----------------------------------------------------------------------
 # B3LYP/6-311++G(d,p) empiricaldispersion=gd3bj scf=xqc pop=npa geom=c
 heck
 ----------------------------------------------------------------------

 ------------------------------------
 CID_130121616_JID_3336_Energie_anion
 ------------------------------------
 Structure from the checkpoint file:  "JID_3336.chk"
 Charge = -1 Multiplicity = 2

                         Standard orientation:
 ---------------------------------------------------------------------
 Center     Atomic      Atomic             Coordinates (Angstroms)
 Number     Number       Type             X           Y           Z
 ---------------------------------------------------------------------
      1          6           0        2.787853    0.029972    0.786253
      2          6           0        1.320532    0.283197    0.426395
      3          6           0        1.108257   -0.664786   -0.767555
      4          7           0       -0.315812   -0.885784   -0.956905
      5          6           0       -1.107926    0.334351   -0.894600
      6          7           0       -0.344613    1.537579   -0.696705
      7          6           0        0.836534    1.652244    0.027281
      8          8           0        1.376622    2.721130    0.236661
      9         16           0       -2.470960    0.092317    0.494601
     10          8           0       -3.570642   -0.575458   -0.262448
     11          8           0       -1.574947   -1.017792    1.345793
     12          7           0        1.884848   -1.846742   -0.420001
     13          7           0        3.117676   -1.173991   -0.042945
     14          1           0        3.431108    0.864563    0.494064
     15          1           0        2.902973   -0.134385    1.865594
     16          1           0        0.662018   -0.066640    1.230902
     17          1           0        1.579163   -0.239569   -1.663015
     18          1           0       -0.512524   -1.406786   -1.805871
     19          1           0       -1.746161    0.439953   -1.774359
     20          1           0       -0.778892    2.414756   -0.957445
     21          1           0       -1.066163   -1.509253    0.639194
     22          1           0        1.433062   -2.245857    0.417734
     23          1           0        3.716328   -1.844194    0.428784
 ---------------------------------------------------------------------

 SCF Done:  E(UB3LYP) =  -1039.58475373     A.U. after   32 cycles

 The electronic state is 2-A.
 Alpha  occ. eigenvalues --  -88.88347 -19.06009 -19.01531 -19.00965 -14.26461
 Alpha  occ. eigenvalues --  -14.25621 -14.24489 -14.23733 -10.19822 -10.18590
 Alpha  occ. eigenvalues --  -10.15259 -10.11075 -10.10067  -7.95729  -5.92139
 Alpha  occ. eigenvalues --   -5.91775  -5.91298  -0.98512  -0.96590  -0.91404
 Alpha  occ. eigenvalues --   -0.90815  -0.87910  -0.81646  -0.70988  -0.70725
 Alpha  occ. eigenvalues --   -0.62516  -0.57200  -0.55827  -0.53847  -0.48085
 Alpha  occ. eigenvalues --   -0.47200  -0.45831  -0.43767  -0.40695  -0.39354
 Alpha  occ. eigenvalues --   -0.38332  -0.37403  -0.36076  -0.34741  -0.34252
 Alpha  occ. eigenvalues --   -0.32837  -0.32085  -0.30320  -0.29285  -0.28213
 Alpha  occ. eigenvalues --   -0.27607  -0.24667  -0.22298  -0.20398  -0.19486
 Alpha  occ. eigenvalues --   -0.19347  -0.17589  -0.14605  -0.13386   0.03914
 Alpha virt. eigenvalues --    0.05520   0.06850   0.07900   0.08793   0.09189
 Alpha virt. eigenvalues --    0.09594   0.09970   0.11076   0.11694   0.12016
 Alpha virt. eigenvalues --    0.12280   0.13928   0.15017   0.15280   0.15883

  Beta  occ. eigenvalues --  -88.88342 -19.05993 -19.01527 -19.00954 -14.26425
  Beta  occ. eigenvalues --  -14.25574 -14.24456 -14.23708 -10.19822 -10.18552
  Beta  occ. eigenvalues --  -10.15241 -10.11058 -10.10055  -7.95724  -5.92127
  Beta  occ. eigenvalues --   -5.91773  -5.91291  -0.98481  -0.96578  -0.91364
  Beta  occ. eigenvalues --   -0.90786  -0.87843  -0.81574  -0.70930  -0.70667
  Beta  occ. eigenvalues --   -0.62448  -0.57141  -0.55777  -0.53744  -0.48004
  Beta  occ. eigenvalues --   -0.47085  -0.45791  -0.43714  -0.40595  -0.39287
  Beta  occ. eigenvalues --   -0.38274  -0.37360  -0.36033  -0.34712  -0.34209
  Beta  occ. eigenvalues --   -0.32764  -0.32033  -0.30286  -0.29251  -0.28175
  Beta  occ. eigenvalues --   -0.27567  -0.24636  -0.22268  -0.20359  -0.19441
  Beta  occ. eigenvalues --   -0.19299  -0.17565  -0.14566  -0.13347
  Beta virt. eigenvalues --    0.06597   0.07105   0.07508   0.08175   0.09238
  Beta virt. eigenvalues --    0.09470   0.10199   0.10379   0.11386   0.11896
  Beta virt. eigenvalues --    0.12423   0.12630   0.14114   0.14998   0.15662

 Mulliken charges and spin densities:
               1          2
     1  C    0.921626  -1.540343
     2  C   -1.068502   1.429325
     3  C    1.809065  -2.650784
     4  N   -0.455545   0.154697
     5  C    0.120215  -0.586613
     6  N   -0.065445  -0.082679
     7  C   -0.099746   0.130396
     8  O   -0.355282   0.013524
     9  S    0.649290  -0.317900
    10  O   -0.470145   0.025392
    11  O   -0.176872  -0.032972
    12  N   -0.076962   0.092753
    13  N   -0.387224   0.202509
    14  H    0.250134  -0.041706
    15  H   -0.342690   0.494602
    16  H    0.232490  -0.000658
    17  H   -0.208430   0.498589
    18  H   -0.095156   0.435702
    19  H   -0.946189   1.331991
    20  H   -0.158985   0.508505
    21  H    0.232331   0.104471
    22  H   -0.195888   0.468394
    23  H   -0.112092   0.362805
 Sum of Mulliken charges =  -1.00000   1.00000

 Dipole moment (field-independent basis, Debye):
    X=              0.3658    Y=              1.2532    Z=              3.3293  Tot=              3.5761
 Quadrupole moment (field-independent basis, Debye-Ang):
   XX=           -140.9074   YY=           -127.2152   ZZ=           -123.3226
   XY=              0.7833   XZ=             -7.3757   YZ=              2.8028

 Summary of Natural Population Analysis:

                                       Natural Population
                Natural  -----------------------------------------------
    Atom  No    Charge         Core      Valence    Rydberg      Total
 -----------------------------------------------------------------------
      C    1   -0.09046      0.99962     2.07946    0.01139     3.09046
      C    2   -0.17771      0.99950     2.16678    0.01143     3.17771
      C    3    0.08812      0.99956     1.89557    0.01675     2.91188
      N    4   -0.35405      0.99968     2.83861    0.01577     3.85405
      C    5    0.01418      0.99959     1.96135    0.02488     2.98582
      N    6   -0.33291      0.99966     2.82079    0.01245     3.83291
      C    7    0.35494      0.99963     1.62165    0.02378     2.64506
      O    8   -0.30601      0.99987     3.30046    0.00567     4.30601
      S    9    0.67623      4.99955     2.26371    0.06052     7.32377
      O   10   -0.46129      0.99993     3.45443    0.00694     4.46129
      O   11   -0.44601      0.99992     3.43912    0.00698     4.44601
      N   12   -0.23546      0.99974     2.72095    0.01477     3.73546
      N   13   -0.25631      0.99977     2.74353    0.01301     3.75631
      H   14    0.10222      0.00000     0.39648    0.00130     0.39778
      H   15    0.09208      0.00000     0.40633    0.00160     0.40792
      H   16    0.12233      0.00000     0.37460    0.00307     0.37767
      H   17    0.09671      0.00000     0.40117    0.00211     0.40329
      H   18    0.20742      0.00000     0.28708    0.00550     0.29258
      H   19    0.11574      0.00000     0.37708    0.00717     0.38426
      H   20    0.20675      0.00000     0.28838    0.00486     0.29325
      H   21    0.24236      0.00000     0.25257    0.00507     0.25764
      H   22    0.15961      0.00000     0.33551    0.00488     0.34039
      H   23    0.18152      0.00000     0.31539    0.00309     0.31848
 =======================================================================
   * Total *    0.00000     16.99601    36.74100    0.26299    54.00000

 Normal termination of Gaussian 16 at Wed Dec  9 23:21:12 2020.
