 Gaussian 16, Revision A.03,

 -----------------------------------------------------------
 # opt freq B3LYP/6-31G(d) empiricaldispersion=gd3bj scf=xqc
 -----------------------------------------------------------

 ------------------------------
 CID_82068262_JID_6989_neutraal
 ------------------------------
 Symbolic Z-matrix:
 Charge =  0 Multiplicity = 1

 SCF Done:  E(RB3LYP) =  -742.939938026     A.U. after   14 cycles
 SCF Done:  E(RB3LYP) =  -742.945716986     A.U. after   12 cycles
 SCF Done:  E(RB3LYP) =  -742.947225090     A.U. after   12 cycles
 SCF Done:  E(RB3LYP) =  -742.947890179     A.U. after   12 cycles
 SCF Done:  E(RB3LYP) =  -742.948035761     A.U. after   11 cycles
 SCF Done:  E(RB3LYP) =  -742.948081472     A.U. after   10 cycles
 SCF Done:  E(RB3LYP) =  -742.948088849     A.U. after    9 cycles
 SCF Done:  E(RB3LYP) =  -742.948090872     A.U. after    8 cycles
 SCF Done:  E(RB3LYP) =  -742.948091599     A.U. after    8 cycles
 SCF Done:  E(RB3LYP) =  -742.948091832     A.U. after    8 cycles
 SCF Done:  E(RB3LYP) =  -742.948091951     A.U. after    7 cycles
 SCF Done:  E(RB3LYP) =  -742.948091961     A.U. after    7 cycles
 Optimization completed.
    -- Stationary point found.
 Normal termination of Gaussian 16 at Fri Dec 11 01:20:04 2020.

 --------------------------------------------------------------------
 #N Geom=AllCheck Guess=TCheck SCRF=Check GenChk RB3LYP/6-31G(d) Freq
 --------------------------------------------------------------------

 Structure from the checkpoint file:  "JID_6989.chk"
 ------------------------------
 CID_82068262_JID_6989_neutraal
 ------------------------------
 Charge =  0 Multiplicity = 1

 SCF Done:  E(RB3LYP) =  -742.948091961     A.U. after    1 cycles

  Exact polarizability: 183.951  -0.698 143.870   3.789  21.798  95.252
 Approx polarizability: 276.983  -9.078 226.404   6.771  52.363 148.844

                      1                      2                      3
                      A                      A                      A
 Frequencies --     47.5198                53.9880                61.0693
 Red. masses --      4.1275                 3.0966                 4.4351
 Frc consts  --      0.0055                 0.0053                 0.0097
 IR Inten    --      0.1250                 1.3186                 0.2789

                      4                      5                      6
                      A                      A                      A
 Frequencies --     64.5411               116.2751               131.7503
 Red. masses --      3.6765                 2.4286                 2.0085
 Frc consts  --      0.0090                 0.0193                 0.0205
 IR Inten    --      0.6204                 2.3808                 5.8117

                      7                      8                      9
                      A                      A                      A
 Frequencies --    166.9387               195.4005               201.7040
 Red. masses --      2.3430                 2.5021                 2.6018
 Frc consts  --      0.0385                 0.0563                 0.0624
 IR Inten    --      0.4814                 7.7701                 2.5368

                     10                     11                     12
                      A                      A                      A
 Frequencies --    215.6201               233.5699               260.5827
 Red. masses --      1.5606                 3.4327                 2.7956
 Frc consts  --      0.0427                 0.1103                 0.1118
 IR Inten    --      2.2906                 1.1528                20.0442

                     13                     14                     15
                      A                      A                      A
 Frequencies --    297.7529               331.9248               361.2131
 Red. masses --      3.3381                 4.3363                 1.2845
 Frc consts  --      0.1744                 0.2815                 0.0987
 IR Inten    --     11.1831                 2.1668                33.7716

                     16                     17                     18
                      A                      A                      A
 Frequencies --    378.9486               388.6305               447.4002
 Red. masses --      2.7494                 2.1952                 3.4991
 Frc consts  --      0.2326                 0.1953                 0.4127
 IR Inten    --      8.8040                 5.9780                 6.5409

                     19                     20                     21
                      A                      A                      A
 Frequencies --    483.9086               505.9967               552.7412
 Red. masses --      2.8937                 4.8551                 3.4796
 Frc consts  --      0.3992                 0.7324                 0.6264
 IR Inten    --      3.6821                10.8051                23.5797

                     22                     23                     24
                      A                      A                      A
 Frequencies --    574.8365               589.4621               608.8237
 Red. masses --      2.1175                 3.1890                 5.0512
 Frc consts  --      0.4123                 0.6528                 1.1031
 IR Inten    --    145.1230                75.5018                 2.8171

                     25                     26                     27
                      A                      A                      A
 Frequencies --    637.8836               658.5143               735.1311
 Red. masses --      3.2747                 4.7276                 1.7220
 Frc consts  --      0.7851                 1.2079                 0.5483
 IR Inten    --     88.8726                49.7566                16.8537

                     28                     29                     30
                      A                      A                      A
 Frequencies --    747.5206               767.7669               777.9427
 Red. masses --      3.0911                 5.6432                 6.6094
 Frc consts  --      1.0177                 1.9599                 2.3567
 IR Inten    --     33.3984                45.4926                 7.2692

                     31                     32                     33
                      A                      A                      A
 Frequencies --    831.1874               851.8017               890.5774
 Red. masses --      1.4616                 3.9515                 5.6393
 Frc consts  --      0.5950                 1.6892                 2.6353
 IR Inten    --      6.9863                19.1017                 6.5457

                     34                     35                     36
                      A                      A                      A
 Frequencies --    935.1093               936.2447               948.5989
 Red. masses --      1.9781                 1.8200                 4.4149
 Frc consts  --      1.0191                 0.9399                 2.3407
 IR Inten    --     10.4655                 9.1605                35.5176

                     37                     38                     39
                      A                      A                      A
 Frequencies --   1017.5944              1039.7798              1075.6577
 Red. masses --      2.3583                 2.0806                 2.1675
 Frc consts  --      1.4388                 1.3253                 1.4776
 IR Inten    --     17.6038                27.2866                 8.4610

                     40                     41                     42
                      A                      A                      A
 Frequencies --   1113.2141              1131.2562              1147.7398
 Red. masses --      2.1879                 3.8332                 2.1728
 Frc consts  --      1.5975                 2.8902                 1.6864
 IR Inten    --     95.6514                94.4442                45.7196

                     43                     44                     45
                      A                      A                      A
 Frequencies --   1178.5221              1189.7168              1191.1567
 Red. masses --      2.6702                 1.2975                 1.2182
 Frc consts  --      2.1851                 1.0821                 1.0184
 IR Inten    --     93.1866                11.4892                22.0515

                     46                     47                     48
                      A                      A                      A
 Frequencies --   1192.4326              1222.1950              1235.1837
 Red. masses --      1.2804                 1.5502                 1.6215
 Frc consts  --      1.0727                 1.3643                 1.4576
 IR Inten    --      4.5609                24.8374                20.1900

                     49                     50                     51
                      A                      A                      A
 Frequencies --   1259.3445              1293.9746              1312.0737
 Red. masses --      3.4487                 4.3545                 1.4065
 Frc consts  --      3.2225                 4.2958                 1.4266
 IR Inten    --     24.3696                35.2290                22.4857

                     52                     53                     54
                      A                      A                      A
 Frequencies --   1328.7894              1339.9727              1392.0854
 Red. masses --      1.4739                 1.9192                 2.7099
 Frc consts  --      1.5333                 2.0303                 3.0941
 IR Inten    --     11.7197                60.4034                17.7874

                     55                     56                     57
                      A                      A                      A
 Frequencies --   1397.4312              1415.3284              1430.9023
 Red. masses --      2.0313                 1.6777                 3.1479
 Frc consts  --      2.3371                 1.9800                 3.7974
 IR Inten    --     38.4123               123.6248                 7.8737

                     58                     59                     60
                      A                      A                      A
 Frequencies --   1457.1785              1488.3256              1496.6392
 Red. masses --      1.5101                 2.7766                 1.1272
 Frc consts  --      1.8893                 3.6238                 1.4876
 IR Inten    --      7.2607                34.6959                 2.4399

                     61                     62                     63
                      A                      A                      A
 Frequencies --   1503.9632              1512.2699              1515.8381
 Red. masses --      1.1561                 1.0978                 1.0518
 Frc consts  --      1.5407                 1.4793                 1.4240
 IR Inten    --      0.4298                 2.6716                 7.1669

                     64                     65                     66
                      A                      A                      A
 Frequencies --   1518.3092              1527.8630              1536.1008
 Red. masses --      1.0620                 1.0819                 1.0578
 Frc consts  --      1.4425                 1.4881                 1.4707
 IR Inten    --      1.9972                19.6140                 3.6179

                     67                     68                     69
                      A                      A                      A
 Frequencies --   1538.2828              1556.5625              1582.6693
 Red. masses --      1.0804                 3.4431                 7.6321
 Frc consts  --      1.5063                 4.9151                11.2635
 IR Inten    --     16.5989                40.9161                18.4962

                     70                     71                     72
                      A                      A                      A
 Frequencies --   1650.5406              1667.3247              1687.2007
 Red. masses --      2.7695                 6.0814                 1.6473
 Frc consts  --      4.4453                 9.9608                 2.7628
 IR Inten    --     19.3563                24.5800               186.6972

                     73                     74                     75
                      A                      A                      A
 Frequencies --   3012.6046              3013.4836              3044.8783
 Red. masses --      1.0374                 1.0417                 1.0673
 Frc consts  --      5.5475                 5.5733                 5.8299
 IR Inten    --     61.2208                22.5564                78.8838

                     76                     77                     78
                      A                      A                      A
 Frequencies --   3046.0903              3068.9399              3082.2913
 Red. masses --      1.0656                 1.1023                 1.0970
 Frc consts  --      5.8253                 6.1168                 6.1405
 IR Inten    --      5.7599                43.7520                33.0221

                     79                     80                     81
                      A                      A                      A
 Frequencies --   3118.3735              3145.7742              3152.9243
 Red. masses --      1.1011                 1.0997                 1.1003
 Frc consts  --      6.3088                 6.4119                 6.4446
 IR Inten    --     11.2116                32.8187                32.8267

                     82                     83                     84
                      A                      A                      A
 Frequencies --   3168.6233              3179.6996              3195.8550
 Red. masses --      1.0978                 1.0867                 1.0909
 Frc consts  --      6.4939                 6.4732                 6.5645
 IR Inten    --      4.9667                11.4950                24.2068

                     85                     86                     87
                      A                      A                      A
 Frequencies --   3215.3404              3555.4346              3662.7724
 Red. masses --      1.0943                 1.0469                 1.0996
 Frc consts  --      6.6654                 7.7971                 8.6918
 IR Inten    --     16.5247                22.1058                16.7402

 - Thermochemistry -
 -------------------
 Temperature   298.150 Kelvin.  Pressure   1.00000 Atm.
 Atom     1 has atomic number  6 and mass  12.00000

 Molecular mass:   221.11643 amu.
 Principal axes and moments of inertia in atomic units:
                           1         2         3
     Eigenvalues --  2492.215174185.081115821.77189
           X            0.99984   0.01746  -0.00472
           Y           -0.01749   0.99983  -0.00585
           Z            0.00461   0.00593   0.99997
 This molecule is an asymmetric top.
 Rotational symmetry number  1.
 Warning -- assumption of classical behavior for rotation
           may cause significant error
 Rotational temperatures (Kelvin)      0.03475     0.02070     0.01488
 Rotational constants (GHZ):           0.72415     0.43123     0.31000
 Zero-point vibrational energy     680647.5 (Joules/Mol)
                                  162.67867 (Kcal/Mol)
 Warning -- explicit consideration of  24 degrees of freedom as
           vibrations may cause significant error
 Vibrational temperatures:     68.37    77.68    87.87    92.86   167.29
          (Kelvin)            189.56   240.19   281.14   290.21   310.23
                              336.05   374.92   428.40   477.57   519.71
                              545.22   559.15   643.71   696.24   728.02
                              795.27   827.06   848.10   875.96   917.77
                              947.46  1057.69  1075.52  1104.65  1119.29
                             1195.89  1225.55  1281.34  1345.41  1347.05
                             1364.82  1464.09  1496.01  1547.63  1601.67
                             1627.63  1651.34  1695.63  1711.74  1713.81
                             1715.64  1758.47  1777.15  1811.92  1861.74
                             1887.78  1911.83  1927.92  2002.90  2010.59
                             2036.34  2058.75  2096.55  2141.37  2153.33
                             2163.87  2175.82  2180.95  2184.51  2198.25
                             2210.11  2213.25  2239.55  2277.11  2374.76
                             2398.91  2427.51  4334.47  4335.73  4380.90
                             4382.64  4415.52  4434.73  4486.64  4526.07
                             4536.35  4558.94  4574.88  4598.12  4626.16
                             5115.48  5269.91

 Zero-point correction=                           0.259245 (Hartree/Particle)
 Thermal correction to Energy=                    0.274583
 Thermal correction to Enthalpy=                  0.275527
 Thermal correction to Gibbs Free Energy=         0.216259
 Sum of electronic and zero-point Energies=           -742.688847
 Sum of electronic and thermal Energies=              -742.673509
 Sum of electronic and thermal Enthalpies=            -742.672565
 Sum of electronic and thermal Free Energies=         -742.731833

                     E (Thermal)             CV                S
                      KCal/Mol        Cal/Mol-Kelvin    Cal/Mol-Kelvin
 Total                  172.303             57.543            124.740
 Electronic               0.000              0.000              0.000
 Translational            0.889              2.981             42.083
 Rotational               0.889              2.981             32.474
 Vibrational            170.526             51.581             50.183
 Vibration     1          0.595              1.979              4.918
 Vibration     2          0.596              1.976              4.666
 Vibration     3          0.597              1.973              4.422
 Vibration     4          0.597              1.971              4.313
 Vibration     5          0.608              1.936              3.161
 Vibration     6          0.612              1.922              2.920
 Vibration     7          0.624              1.883              2.470
 Vibration     8          0.636              1.846              2.176
 Vibration     9          0.639              1.837              2.117
 Vibration    10          0.645              1.817              1.996
 Vibration    11          0.654              1.790              1.851
 Vibration    12          0.669              1.745              1.658
 Vibration    13          0.691              1.678              1.430
 Vibration    14          0.714              1.612              1.251
 Vibration    15          0.735              1.552              1.117
 Vibration    16          0.749              1.515              1.043
 Vibration    17          0.757              1.494              1.005
 Vibration    18          0.807              1.367              0.804
 Vibration    19          0.840              1.286              0.700
 Vibration    20          0.861              1.237              0.643
 Vibration    21          0.908              1.134              0.539
 Vibration    22          0.931              1.086              0.495
 Vibration    23          0.947              1.054              0.468
 Vibration    24          0.968              1.013              0.435

 Optimization completed.
    -- Stationary point found.
 Normal termination of Gaussian 16 at Fri Dec 11 01:30:07 2020.

 ----------------------------------------------------------------------
 # B3LYP/6-311++G(d,p) empiricaldispersion=gd3bj scf=xqc pop=npa geom=c
 heck
 ----------------------------------------------------------------------

 --------------------------------------
 CID_82068262_JID_6989_Energie_neutraal
 --------------------------------------
 Structure from the checkpoint file:  "JID_6989.chk"
 Charge =  0 Multiplicity = 1

 SCF Done:  E(RB3LYP) =  -743.158929565     A.U. after   14 cycles
 Normal termination of Gaussian 16 at Fri Dec 11 01:33:43 2020.

 ----------------------------------------------------------------------
 # B3LYP/6-311++G(d,p) empiricaldispersion=gd3bj scf=xqc pop=npa geom=c
 heck
 ----------------------------------------------------------------------

 ------------------------------------
 CID_82068262_JID_6989_Energie_kation
 ------------------------------------
 Structure from the checkpoint file:  "JID_6989.chk"
 Charge =  1 Multiplicity = 2

 SCF Done:  E(UB3LYP) =  -742.890637731     A.U. after   21 cycles
 Normal termination of Gaussian 16 at Fri Dec 11 01:40:57 2020.
 Gaussian 16:  ES64L-G16RevA.03 25-Dec-2016

 ----------------------------------------------------------------------
 # B3LYP/6-311++G(d,p) empiricaldispersion=gd3bj scf=xqc pop=npa geom=c
 heck
 ----------------------------------------------------------------------

 -----------------------------------
 CID_82068262_JID_6989_Energie_anion
 -----------------------------------
 Structure from the checkpoint file:  "JID_6989.chk"
 Charge = -1 Multiplicity = 2

                         Standard orientation:
 ---------------------------------------------------------------------
 Center     Atomic      Atomic             Coordinates (Angstroms)
 Number     Number       Type             X           Y           Z
 ---------------------------------------------------------------------
      1          6           0       -2.666106   -2.430443    1.140112
      2          8           0       -3.091377   -1.323106    0.361445
      3          6           0       -2.283326   -1.114894   -0.792168
      4          6           0       -0.883419   -0.702492   -0.452735
      5          7           0        0.202369   -1.386306   -0.730218
      6          6           0        1.248100   -0.632125   -0.212775
      7          6           0        2.627909   -0.913577   -0.254585
      8          6           0        3.478819    0.036727    0.322497
      9          6           0        2.973374    1.203992    0.920988
     10          6           0        1.611098    1.490975    0.980171
     11          6           0        0.764950    0.541589    0.397842
     12          7           0       -0.617269    0.468531    0.246171
     13          6           0       -1.599968    1.474012    0.606001
     14          8           0       -2.047872    2.231567   -0.489177
     15          6           0       -1.039537    3.048916   -1.065864
     16          7           0        3.067353   -2.108004   -0.805478
     17          1           0       -3.364115   -2.510536    1.976660
     18          1           0       -1.647098   -2.294542    1.527293
     19          1           0       -2.692428   -3.361468    0.554202
     20          1           0       -2.223044   -2.022473   -1.407789
     21          1           0       -2.787507   -0.326014   -1.358162
     22          1           0        4.551506   -0.138093    0.314092
     23          1           0        3.678172    1.908685    1.353578
     24          1           0        1.242179    2.397943    1.446463
     25          1           0       -2.480122    0.969559    1.003932
     26          1           0       -1.146847    2.111843    1.376801
     27          1           0       -0.615376    3.740438   -0.322032
     28          1           0       -0.224394    2.451219   -1.492629
     29          1           0       -1.520421    3.624613   -1.859334
     30          1           0        2.385097   -2.556653   -1.404731
     31          1           0        3.999854   -2.097844   -1.196717
 ---------------------------------------------------------------------

 SCF Done:  E(UB3LYP) =  -743.144637875     A.U. after   33 cycles
 SCF Done:  E(UB3LYP) =  -743.144637875     a.u. after    1 cycles

 The electronic state is 2-A.
 Alpha  occ. eigenvalues --  -19.04442 -19.04310 -14.26698 -14.21518 -14.20240
 Alpha  occ. eigenvalues --  -10.16557 -10.13555 -10.13527 -10.12392 -10.12031
 Alpha  occ. eigenvalues --  -10.11040 -10.10922 -10.08751 -10.07175 -10.06629
 Alpha  occ. eigenvalues --  -10.06091  -0.96680  -0.95327  -0.91406  -0.82058
 Alpha  occ. eigenvalues --   -0.78745  -0.73417  -0.67058  -0.64674  -0.62244
 Alpha  occ. eigenvalues --   -0.62004  -0.57317  -0.56595  -0.51743  -0.49887
 Alpha  occ. eigenvalues --   -0.47484  -0.43628  -0.42969  -0.41594  -0.40462
 Alpha  occ. eigenvalues --   -0.39740  -0.38982  -0.38524  -0.38153  -0.36099
 Alpha  occ. eigenvalues --   -0.34887  -0.33859  -0.33306  -0.32472  -0.30881
 Alpha  occ. eigenvalues --   -0.30035  -0.29793  -0.27633  -0.26477  -0.25933
 Alpha  occ. eigenvalues --   -0.24525  -0.23815  -0.22010  -0.19455  -0.18845
 Alpha  occ. eigenvalues --   -0.17971  -0.17825  -0.13153  -0.09934   0.04411
 Alpha virt. eigenvalues --    0.06131   0.06550   0.07137   0.07433   0.08398
 Alpha virt. eigenvalues --    0.08808   0.09449   0.10248   0.10482   0.10805
 Alpha virt. eigenvalues --    0.11281   0.11592   0.12366   0.12481   0.12809

  Beta  occ. eigenvalues --  -19.04436 -19.04293 -14.26687 -14.21475 -14.20212
  Beta  occ. eigenvalues --  -10.16535 -10.13537 -10.13474 -10.12372 -10.12001
  Beta  occ. eigenvalues --  -10.10996 -10.10926 -10.08751 -10.07147 -10.06601
  Beta  occ. eigenvalues --  -10.06091  -0.96663  -0.95296  -0.91362  -0.81993
  Beta  occ. eigenvalues --   -0.78690  -0.73367  -0.66996  -0.64626  -0.62177
  Beta  occ. eigenvalues --   -0.61961  -0.57243  -0.56530  -0.51712  -0.49810
  Beta  occ. eigenvalues --   -0.47420  -0.43574  -0.42905  -0.41529  -0.40412
  Beta  occ. eigenvalues --   -0.39684  -0.38940  -0.38475  -0.38105  -0.36050
  Beta  occ. eigenvalues --   -0.34838  -0.33815  -0.33220  -0.32433  -0.30842
  Beta  occ. eigenvalues --   -0.30000  -0.29749  -0.27584  -0.26433  -0.25816
  Beta  occ. eigenvalues --   -0.24490  -0.23788  -0.21876  -0.19426  -0.18787
  Beta  occ. eigenvalues --   -0.17891  -0.17761  -0.13029  -0.09793
  Beta virt. eigenvalues --    0.06482   0.07107   0.07366   0.07504   0.07937
  Beta virt. eigenvalues --    0.08951   0.09316   0.09703   0.10534   0.10790
  Beta virt. eigenvalues --    0.10893   0.11435   0.11942   0.12531   0.12735

 Mulliken charges and spin densities:
               1          2
     1  C    0.025493  -0.303647
     2  O   -0.125707   0.039883
     3  C    0.630921  -1.404649
     4  C   -0.269557   0.344322
     5  N    0.030754   0.046209
     6  C   -1.021675   0.674924
     7  C   -0.452225   0.483086
     8  C    0.978511  -1.117414
     9  C    0.937415  -1.256675
    10  C   -0.606409   0.269813
    11  C    0.019396   0.398442
    12  N    0.159787   0.011558
    13  C    0.591573  -0.952329
    14  O   -0.135405   0.067218
    15  C    0.317692  -0.655686
    16  N   -0.429499   0.054148
    17  H   -0.126034   0.277877
    18  H    0.114968   0.069489
    19  H    0.052334   0.064303
    20  H    0.032569   0.142524
    21  H    0.088258   0.131593
    22  H   -0.353646   0.494814
    23  H   -0.252827   0.418226
    24  H   -0.237159   0.360139
    25  H    0.049584   0.177478
    26  H   -0.485912   0.650860
    27  H   -0.161422   0.315618
    28  H    0.089799   0.075335
    29  H   -0.330358   0.476451
    30  H    0.117527   0.146575
    31  H   -0.248745   0.499509
 Sum of Mulliken charges =  -1.00000   1.00000

 Dipole moment (field-independent basis, Debye):
    X=             -3.1689    Y=             -1.8351    Z=             -0.1922  Tot=              3.6669
 Quadrupole moment (field-independent basis, Debye-Ang):
   XX=           -169.6435   YY=           -146.4346   ZZ=           -125.0966
   XY=             10.0599   XZ=              3.6857   YZ=             -4.4369

 Summary of Natural Population Analysis:

                                       Natural Population
                Natural  -----------------------------------------------
    Atom  No    Charge         Core      Valence    Rydberg      Total
 -----------------------------------------------------------------------
      C    1   -0.10000      0.99962     2.09177    0.00862     3.10000
      O    2   -0.29534      0.99989     3.28584    0.00960     4.29534
      C    3   -0.03479      0.99953     2.02365    0.01162     3.03479
      C    4    0.20646      0.99960     1.77767    0.01627     2.79354
      N    5   -0.25348      0.99968     2.74428    0.00953     3.75348
      C    6    0.03165      0.99942     1.95576    0.01316     2.96835
      C    7    0.09525      0.99946     1.89327    0.01201     2.90475
      C    8   -0.14366      0.99954     2.13397    0.01015     3.14366
      C    9   -0.08510      0.99959     2.07615    0.00937     3.08510
      C   10   -0.14270      0.99952     2.13335    0.00982     3.14270
      C   11    0.07778      0.99946     1.91137    0.01139     2.92222
      N   12   -0.22680      0.99958     2.71679    0.01043     3.72680
      C   13    0.07821      0.99959     1.90556    0.01664     2.92179
      O   14   -0.29386      0.99989     3.28497    0.00901     4.29386
      C   15   -0.10340      0.99961     2.09465    0.00914     3.10340
      N   16   -0.39251      0.99971     2.88292    0.00989     3.89251
      H   17    0.08887      0.00000     0.40978    0.00135     0.41113
      H   18    0.08512      0.00000     0.41347    0.00141     0.41488
      H   19    0.07765      0.00000     0.42072    0.00163     0.42235
      H   20    0.09227      0.00000     0.40618    0.00155     0.40773
      H   21    0.10423      0.00000     0.39384    0.00193     0.39577
      H   22    0.10001      0.00000     0.39875    0.00124     0.39999
      H   23    0.09862      0.00000     0.40044    0.00094     0.40138
      H   24    0.10450      0.00000     0.39382    0.00168     0.39550
      H   25    0.10466      0.00000     0.39299    0.00235     0.39534
      H   26    0.08646      0.00000     0.41155    0.00200     0.41354
      H   27    0.08232      0.00000     0.41587    0.00181     0.41768
      H   28    0.08585      0.00000     0.41282    0.00133     0.41415
      H   29    0.09109      0.00000     0.40777    0.00115     0.40891
      H   30    0.19275      0.00000     0.30518    0.00207     0.30725
      H   31    0.18790      0.00000     0.30798    0.00412     0.31210
 =======================================================================
   * Total *   -0.00000     15.99367    42.80310    0.20322    59.00000

 Normal termination of Gaussian 16 at Fri Dec 11 01:52:37 2020.
