 Gaussian 16, Revision A.03,

 -----------------------------------------------------------
 # opt freq B3LYP/6-31G(d) empiricaldispersion=gd3bj scf=xqc
 -----------------------------------------------------------

 ------------------------------
 CID_82924187_JID_8803_neutraal
 ------------------------------
 Symbolic Z-matrix:
 Charge =  0 Multiplicity = 1

 SCF Done:  E(RB3LYP) =  -1143.08932576     A.U. after   14 cycles
 SCF Done:  E(RB3LYP) =  -1143.09099053     A.U. after   13 cycles
 SCF Done:  E(RB3LYP) =  -1143.09597194     A.U. after   14 cycles
 SCF Done:  E(RB3LYP) =  -1143.09799416     A.U. after   12 cycles
 SCF Done:  E(RB3LYP) =  -1143.09838284     A.U. after   13 cycles
 SCF Done:  E(RB3LYP) =  -1143.09841249     A.U. after   12 cycles
 SCF Done:  E(RB3LYP) =  -1143.09810620     A.U. after   13 cycles
 SCF Done:  E(RB3LYP) =  -1143.10141887     A.U. after   13 cycles
 SCF Done:  E(RB3LYP) =  -1143.10215033     A.U. after   12 cycles
 SCF Done:  E(RB3LYP) =  -1143.10283668     A.U. after   11 cycles
 SCF Done:  E(RB3LYP) =  -1143.10678700     A.U. after    9 cycles
 SCF Done:  E(RB3LYP) =  -1143.10678780     A.U. after    8 cycles
 SCF Done:  E(RB3LYP) =  -1143.10678821     A.U. after    7 cycles
 SCF Done:  E(RB3LYP) =  -1143.10678838     A.U. after    7 cycles
 SCF Done:  E(RB3LYP) =  -1143.10678846     A.U. after    7 cycles
 Optimization completed.
    -- Stationary point found.
 Normal termination of Gaussian 16 at Fri Dec 11 23:03:45 2020.

 --------------------------------------------------------------------
 #N Geom=AllCheck Guess=TCheck SCRF=Check GenChk RB3LYP/6-31G(d) Freq
 --------------------------------------------------------------------

 Structure from the checkpoint file:  "JID_8803.chk"
 ------------------------------
 CID_82924187_JID_8803_neutraal
 ------------------------------
 Charge =  0 Multiplicity = 1

 SCF Done:  E(RB3LYP) =  -1143.10678846     A.U. after    1 cycles

  Exact polarizability: 198.124  -3.834 163.280  -0.959  -1.158 149.811
 Approx polarizability: 275.921 -16.827 226.341  -3.840 -11.375 251.854

                      1                      2                      3
                      A                      A                      A
 Frequencies --     21.6724                36.7471                46.6976
 Red. masses --      4.3122                 3.4752                 4.1266
 Frc consts  --      0.0012                 0.0028                 0.0053
 IR Inten    --      0.1608                 0.0904                 2.1331

                      4                      5                      6
                      A                      A                      A
 Frequencies --     55.0710                74.2501                80.1538
 Red. masses --      4.5190                 4.3672                 2.2117
 Frc consts  --      0.0081                 0.0142                 0.0084
 IR Inten    --      0.6095                 1.4550                 2.0826

                      7                      8                      9
                      A                      A                      A
 Frequencies --     85.9623               115.7171               157.3499
 Red. masses --      2.7043                 3.4716                 3.1471
 Frc consts  --      0.0118                 0.0274                 0.0459
 IR Inten    --      3.2037                 0.6614                 0.2546

                     10                     11                     12
                      A                      A                      A
 Frequencies --    166.4578               183.4486               225.4096
 Red. masses --      3.7249                 3.0171                 2.6083
 Frc consts  --      0.0608                 0.0598                 0.0781
 IR Inten    --      0.9847                 1.2530                 0.0203

                     13                     14                     15
                      A                      A                      A
 Frequencies --    236.2733               254.8040               265.6007
 Red. masses --      3.3564                 2.4621                 1.2034
 Frc consts  --      0.1104                 0.0942                 0.0500
 IR Inten    --      1.5699                 4.8522                 1.1142

                     16                     17                     18
                      A                      A                      A
 Frequencies --    284.5984               305.3926               311.2957
 Red. masses --      3.5072                 2.6865                 2.6268
 Frc consts  --      0.1674                 0.1476                 0.1500
 IR Inten    --      0.0069                 0.8659                 0.3881

                     19                     20                     21
                      A                      A                      A
 Frequencies --    333.4444               372.9197               416.8365
 Red. masses --      3.2351                 3.8484                 3.6401
 Frc consts  --      0.2119                 0.3153                 0.3726
 IR Inten    --      0.8518                 0.5874                 1.1260

                     22                     23                     24
                      A                      A                      A
 Frequencies --    430.3492               434.5391               500.6869
 Red. masses --      2.7329                 2.4273                 1.8167
 Frc consts  --      0.2982                 0.2700                 0.2683
 IR Inten    --      0.0151                 1.4244                 0.1953

                     25                     26                     27
                      A                      A                      A
 Frequencies --    511.7810               540.7902               560.2522
 Red. masses --      3.3880                 3.8709                 2.5851
 Frc consts  --      0.5228                 0.6670                 0.4781
 IR Inten    --      0.6008                 1.4213                 3.3401

                     28                     29                     30
                      A                      A                      A
 Frequencies --    642.5790               693.6233               715.2237
 Red. masses --      3.2675                 4.1605                 6.0699
 Frc consts  --      0.7949                 1.1793                 1.8294
 IR Inten    --     13.8624                12.1818                 4.6721

                     31                     32                     33
                      A                      A                      A
 Frequencies --    738.9915               752.3087               806.2382
 Red. masses --     11.0579                 2.9558                 1.4494
 Frc consts  --      3.5580                 0.9856                 0.5551
 IR Inten    --      1.0768                 0.9024                75.2152

                     34                     35                     36
                      A                      A                      A
 Frequencies --    830.2089               831.8374               847.7500
 Red. masses --      1.1974                 1.5711                 2.5523
 Frc consts  --      0.4862                 0.6405                 1.0807
 IR Inten    --      4.1993                 2.0644                 0.7048

                     37                     38                     39
                      A                      A                      A
 Frequencies --    851.8211               872.6621               876.5927
 Red. masses --      1.9405                 1.6225                 1.3799
 Frc consts  --      0.8296                 0.7280                 0.6247
 IR Inten    --      2.0308                 3.7647                11.8874

                     40                     41                     42
                      A                      A                      A
 Frequencies --    948.1950               974.0829               982.5009
 Red. masses --      2.0716                 1.9469                 2.2369
 Frc consts  --      1.0974                 1.0884                 1.2722
 IR Inten    --      1.5114                 8.1880                 9.5397

                     43                     44                     45
                      A                      A                      A
 Frequencies --    994.8682              1005.3353              1015.0178
 Red. masses --      1.7493                 1.5907                 7.3390
 Frc consts  --      1.0201                 0.9472                 4.4549
 IR Inten    --     16.6037                 0.9064                 4.5147

                     46                     47                     48
                      A                      A                      A
 Frequencies --   1029.5921              1038.2877              1060.7084
 Red. masses --      2.2477                 2.0046                 3.3740
 Frc consts  --      1.4039                 1.2733                 2.2366
 IR Inten    --      1.1743                 0.7074                 3.1096

                     49                     50                     51
                      A                      A                      A
 Frequencies --   1069.3090              1098.9738              1105.1223
 Red. masses --      2.6867                 1.7416                 5.8409
 Frc consts  --      1.8100                 1.2393                 4.2029
 IR Inten    --      5.1106                 0.5422                 3.8786

                     52                     53                     54
                      A                      A                      A
 Frequencies --   1131.2968              1136.8758              1152.8483
 Red. masses --      1.9593                 2.2203                 1.5583
 Frc consts  --      1.4774                 1.6908                 1.2202
 IR Inten    --      1.2864                22.5437                 2.2725

                     55                     56                     57
                      A                      A                      A
 Frequencies --   1163.2270              1168.3570              1180.2927
 Red. masses --      2.8062                 2.6807                 1.7041
 Frc consts  --      2.2372                 2.1560                 1.3987
 IR Inten    --     26.0356                37.3333                 0.1182

                     58                     59                     60
                      A                      A                      A
 Frequencies --   1195.4207              1231.4919              1241.1221
 Red. masses --      2.4658                 3.1809                 1.2405
 Frc consts  --      2.0761                 2.8423                 1.1258
 IR Inten    --     21.8825                 8.6999                 0.9113

                     61                     62                     63
                      A                      A                      A
 Frequencies --   1256.0131              1268.3241              1270.1719
 Red. masses --      1.2581                 1.2567                 1.2592
 Frc consts  --      1.1693                 1.1911                 1.1969
 IR Inten    --      5.8835                22.6483                 3.1309

                     64                     65                     66
                      A                      A                      A
 Frequencies --   1279.3046              1295.2400              1324.7591
 Red. masses --      1.9506                 1.4471                 1.1976
 Frc consts  --      1.8809                 1.4304                 1.2384
 IR Inten    --     12.5433                 3.8852                12.2760

                     67                     68                     69
                      A                      A                      A
 Frequencies --   1334.2086              1335.3644              1337.4459
 Red. masses --      2.7009                 1.1930                 1.1579
 Frc consts  --      2.8327                 1.2534                 1.2204
 IR Inten    --     13.1640                 4.0810                 2.2390

                     70                     71                     72
                      A                      A                      A
 Frequencies --   1375.0917              1383.7942              1385.3241
 Red. masses --      1.2709                 1.4285                 1.3054
 Frc consts  --      1.4158                 1.6116                 1.4760
 IR Inten    --      0.7711                 0.5691                23.9984

                     73                     74                     75
                      A                      A                      A
 Frequencies --   1399.1710              1408.6603              1410.4128
 Red. masses --      1.3634                 1.4273                 1.3705
 Frc consts  --      1.5726                 1.6687                 1.6063
 IR Inten    --      6.2947                12.5950                 2.3458

                     76                     77                     78
                      A                      A                      A
 Frequencies --   1412.7713              1416.4307              1427.8083
 Red. masses --      1.4664                 1.4210                 1.5770
 Frc consts  --      1.7245                 1.6797                 1.8942
 IR Inten    --      1.1267                 1.1917                 5.9475

                     79                     80                     81
                      A                      A                      A
 Frequencies --   1429.9962              1431.9724              1449.0032
 Red. masses --      1.3744                 3.7374                 1.4230
 Frc consts  --      1.6559                 4.5153                 1.7604
 IR Inten    --      1.3605                26.5542                 6.4499

                     82                     83                     84
                      A                      A                      A
 Frequencies --   1472.2172              1509.2299              1511.8082
 Red. masses --      4.3367                 1.1055                 1.0840
 Frc consts  --      5.5380                 1.4836                 1.4598
 IR Inten    --     24.3865                 2.9639                 3.0525

                     85                     86                     87
                      A                      A                      A
 Frequencies --   1513.7841              1515.0688              1517.7782
 Red. masses --      1.0961                 1.0867                 1.0900
 Frc consts  --      1.4800                 1.4697                 1.4795
 IR Inten    --     18.1490                 0.7217                 1.5390

                     88                     89                     90
                      A                      A                      A
 Frequencies --   1523.7904              1526.4821              1532.0013
 Red. masses --      1.0941                 1.0485                 1.1041
 Frc consts  --      1.4968                 1.4395                 1.5267
 IR Inten    --      3.8475                20.0566                 3.2524

                     91                     92                     93
                      A                      A                      A
 Frequencies --   1534.3231              1536.5947              1547.1345
 Red. masses --      1.0872                 1.1206                 1.0795
 Frc consts  --      1.5080                 1.5589                 1.5224
 IR Inten    --     15.0728                17.3904                20.3831

                     94                     95                     96
                      A                      A                      A
 Frequencies --   1555.0769              2950.9448              2990.5939
 Red. masses --      1.0916                 1.0737                 1.0706
 Frc consts  --      1.5553                 5.5086                 5.6414
 IR Inten    --      1.9441                85.7379                56.8936

                     97                     98                     99
                      A                      A                      A
 Frequencies --   3019.8154              3024.7200              3033.8334
 Red. masses --      1.0668                 1.0633                 1.0635
 Frc consts  --      5.7318                 5.7314                 5.7675
 IR Inten    --     20.5068                22.0162                14.7508

                    100                    101                    102
                      A                      A                      A
 Frequencies --   3039.9596              3042.8913              3048.8571
 Red. masses --      1.0632                 1.0640                 1.0461
 Frc consts  --      5.7889                 5.8044                 5.7295
 IR Inten    --     12.2709                12.7443                 9.2323

                    103                    104                    105
                      A                      A                      A
 Frequencies --   3056.9942              3057.8828              3063.7260
 Red. masses --      1.0794                 1.0673                 1.0934
 Frc consts  --      5.9433                 5.8800                 6.0466
 IR Inten    --     31.0620                 4.9986                66.4071

                    106                    107                    108
                      A                      A                      A
 Frequencies --   3068.6879              3073.6936              3076.3551
 Red. masses --      1.1015                 1.0967                 1.0898
 Frc consts  --      6.1114                 6.1045                 6.0770
 IR Inten    --     36.3707                46.4419                21.9356

                    109                    110                    111
                      A                      A                      A
 Frequencies --   3079.4925              3081.7410              3094.0149
 Red. masses --      1.0973                 1.1017                 1.0944
 Frc consts  --      6.1313                 6.1649                 6.1726
 IR Inten    --     17.1278               102.9272                 6.1167

                    112                    113                    114
                      A                      A                      A
 Frequencies --   3096.8482              3111.2752              3115.4937
 Red. masses --      1.0639                 1.0957                 1.0989
 Frc consts  --      6.0117                 6.2489                 6.2842
 IR Inten    --     28.8874                13.2043                40.0277

                    115                    116                    117
                      A                      A                      A
 Frequencies --   3135.8437              3159.7565              3483.0867
 Red. masses --      1.1029                 1.1042                 1.0733
 Frc consts  --      6.3898                 6.4955                 7.6717
 IR Inten    --     33.1181                 3.7518                 0.2120

 - Thermochemistry -
 -------------------
 Temperature   298.150 Kelvin.  Pressure   1.00000 Atm.
 Atom     1 has atomic number  6 and mass  12.00000

 Molecular mass:   269.16742 amu.
 Principal axes and moments of inertia in atomic units:
                           1         2         3
     Eigenvalues --  3971.883995944.893308123.31498
           X            0.99915  -0.03902   0.01325
           Y            0.03885   0.99917   0.01227
           Z           -0.01372  -0.01174   0.99984
 This molecule is an asymmetric top.
 Rotational symmetry number  1.
 Warning -- assumption of classical behavior for rotation
           may cause significant error
 Rotational temperatures (Kelvin)      0.02181     0.01457     0.01066
 Rotational constants (GHZ):           0.45438     0.30358     0.22217
 Zero-point vibrational energy     949382.3 (Joules/Mol)
                                  226.90782 (Kcal/Mol)
 Warning -- explicit consideration of  27 degrees of freedom as
           vibrations may cause significant error
 Vibrational temperatures:     31.18    52.87    67.19    79.23   106.83
          (Kelvin)            115.32   123.68   166.49   226.39   239.50
                              263.94   324.31   339.94   366.61   382.14
                              409.47   439.39   447.89   479.75   536.55
                              599.73   619.18   625.20   720.38   736.34
                              778.08   806.08   924.53   997.97  1029.05
                             1063.24  1082.40  1160.00  1194.49  1196.83
                             1219.72  1225.58  1255.57  1261.22  1364.24
                             1401.49  1413.60  1431.39  1446.45  1460.38
                             1481.35  1493.86  1526.12  1538.50  1581.18
                             1590.02  1627.68  1635.71  1658.69  1673.62
                             1681.01  1698.18  1719.94  1771.84  1785.70
                             1807.12  1824.84  1827.49  1840.63  1863.56
                             1906.03  1919.63  1921.29  1924.29  1978.45
                             1990.97  1993.17  2013.10  2026.75  2029.27
                             2032.66  2037.93  2054.30  2057.45  2060.29
                             2084.79  2118.19  2171.45  2175.15  2178.00
                             2179.85  2183.74  2192.39  2196.27  2204.21
                             2207.55  2210.82  2225.98  2237.41  4245.75
                             4302.80  4344.84  4351.90  4365.01  4373.82
                             4378.04  4386.63  4398.33  4399.61  4408.02
                             4415.16  4422.36  4426.19  4430.70  4433.94
                             4451.60  4455.67  4476.43  4482.50  4511.78
                             4546.18  5011.38

 Zero-point correction=                           0.361601 (Hartree/Particle)
 Thermal correction to Energy=                    0.380168
 Thermal correction to Enthalpy=                  0.381112
 Thermal correction to Gibbs Free Energy=         0.313020
 Sum of electronic and zero-point Energies=          -1142.745188
 Sum of electronic and thermal Energies=             -1142.726620
 Sum of electronic and thermal Enthalpies=           -1142.725676
 Sum of electronic and thermal Free Energies=        -1142.793769

                     E (Thermal)             CV                S
                      KCal/Mol        Cal/Mol-Kelvin    Cal/Mol-Kelvin
 Total                  238.559             69.372            143.313
 Electronic               0.000              0.000              0.000
 Translational            0.889              2.981             42.669
 Rotational               0.889              2.981             33.616
 Vibrational            236.782             63.410             67.027
 Vibration     1          0.593              1.985              6.475
 Vibration     2          0.594              1.982              5.427
 Vibration     3          0.595              1.979              4.953
 Vibration     4          0.596              1.976              4.626
 Vibration     5          0.599              1.966              4.037
 Vibration     6          0.600              1.963              3.887
 Vibration     7          0.601              1.959              3.750
 Vibration     8          0.608              1.936              3.171
 Vibration     9          0.621              1.894              2.581
 Vibration    10          0.624              1.884              2.475
 Vibration    11          0.631              1.862              2.293
 Vibration    12          0.650              1.802              1.915
 Vibration    13          0.655              1.785              1.831
 Vibration    14          0.665              1.755              1.697
 Vibration    15          0.671              1.736              1.625
 Vibration    16          0.683              1.702              1.506
 Vibration    17          0.696              1.663              1.387
 Vibration    18          0.700              1.652              1.355
 Vibration    19          0.715              1.609              1.243
 Vibration    20          0.744              1.528              1.068
 Vibration    21          0.780              1.434              0.903
 Vibration    22          0.792              1.404              0.858
 Vibration    23          0.795              1.395              0.844
 Vibration    24          0.856              1.248              0.656
 Vibration    25          0.867              1.224              0.629
 Vibration    26          0.896              1.160              0.564
 Vibration    27          0.916              1.117              0.523

                           ! Non-Optimized Parameters !
 Normal termination of Gaussian 16 at Fri Dec 11 23:24:25 2020.

 ----------------------------------------------------------------------
 # B3LYP/6-311++G(d,p) empiricaldispersion=gd3bj scf=xqc pop=npa geom=c
 heck
 ----------------------------------------------------------------------

 --------------------------------------
 CID_82924187_JID_8803_Energie_neutraal
 --------------------------------------
 Structure from the checkpoint file:  "JID_8803.chk"
 Charge =  0 Multiplicity = 1

 SCF Done:  E(RB3LYP) =  -1143.33367712     A.U. after   16 cycles
 Normal termination of Gaussian 16 at Fri Dec 11 23:33:42 2020.

 ----------------------------------------------------------------------
 # B3LYP/6-311++G(d,p) empiricaldispersion=gd3bj scf=xqc pop=npa geom=c
 heck
 ----------------------------------------------------------------------

 ------------------------------------
 CID_82924187_JID_8803_Energie_kation
 ------------------------------------
 Structure from the checkpoint file:  "JID_8803.chk"
 Charge =  1 Multiplicity = 2

 SCF Done:  E(UB3LYP) =  -1143.02658589     A.U. after   25 cycles
 Normal termination of Gaussian 16 at Fri Dec 11 23:53:52 2020.
 Gaussian 16:  ES64L-G16RevA.03 25-Dec-2016

 ----------------------------------------------------------------------
 # B3LYP/6-311++G(d,p) empiricaldispersion=gd3bj scf=xqc pop=npa geom=c
 heck
 ----------------------------------------------------------------------

 -----------------------------------
 CID_82924187_JID_8803_Energie_anion
 -----------------------------------
 Structure from the checkpoint file:  "JID_8803.chk"
 Charge = -1 Multiplicity = 2

                         Standard orientation:
 ---------------------------------------------------------------------
 Center     Atomic      Atomic             Coordinates (Angstroms)
 Number     Number       Type             X           Y           Z
 ---------------------------------------------------------------------
      1          6           0       -0.449658    3.717101    0.699933
      2          6           0       -1.592015    3.272653   -0.207774
      3          7           0       -1.528264    1.830137   -0.443546
      4          6           0       -2.641882    1.322542   -1.233771
      5          6           0       -2.442818   -0.160589   -1.544546
      6          7           0       -2.301887   -0.940916   -0.317800
      7          6           0       -1.272668   -1.703231    0.131118
      8          7           0       -1.571615   -2.118782    1.355584
      9          7           0       -2.787631   -1.592104    1.645206
     10          7           0       -3.245922   -0.894541    0.651107
     11         16           0        0.190569   -2.046818   -0.772513
     12          6           0        1.473656   -1.424821    0.441998
     13          6           0        2.833363   -1.618294   -0.248530
     14          6           0        3.262737   -0.504206   -1.218196
     15          6           0        3.995833    0.653180   -0.523332
     16          6           0        3.134393    1.538698    0.384942
     17          6           0        2.321682    0.809302    1.466489
     18          6           0        1.138696    0.002878    0.899967
     19          1           0       -0.511192    3.223573    1.677971
     20          1           0       -0.484788    4.798074    0.870356
     21          1           0        0.517665    3.464387    0.254443
     22          1           0       -2.559692    3.584615    0.227788
     23          1           0       -1.511710    3.774693   -1.180773
     24          1           0       -1.538110    1.360154    0.461201
     25          1           0       -3.623472    1.469469   -0.752495
     26          1           0       -2.664891    1.859549   -2.189939
     27          1           0       -3.287235   -0.557069   -2.115461
     28          1           0       -1.520864   -0.310153   -2.108563
     29          1           0        1.412997   -2.109158    1.292212
     30          1           0        3.591405   -1.710958    0.539762
     31          1           0        2.828013   -2.588252   -0.761245
     32          1           0        2.392989   -0.128889   -1.773969
     33          1           0        3.937944   -0.936924   -1.966118
     34          1           0        4.461313    1.291475   -1.285637
     35          1           0        4.822996    0.229958    0.065406
     36          1           0        2.431434    2.110817   -0.237487
     37          1           0        3.788328    2.277808    0.866097
     38          1           0        1.914494    1.564462    2.149964
     39          1           0        2.975848    0.172393    2.077797
     40          1           0        0.704765    0.567093    0.067157
     41          1           0        0.351975   -0.075868    1.658105
 ---------------------------------------------------------------------

 SCF Done:  E(UB3LYP) =  -1143.32597736     A.U. after   33 cycles
 SCF Done:  E(UB3LYP) =  -1143.32597736     a.u. after    1 cycles

 The electronic state is 2-A.
 Alpha  occ. eigenvalues --  -88.76358 -14.30526 -14.27156 -14.26583 -14.23387
 Alpha  occ. eigenvalues --  -14.21155 -10.16171 -10.12666 -10.11786 -10.10857
 Alpha  occ. eigenvalues --  -10.10636 -10.08879 -10.08037 -10.07922 -10.07631
 Alpha  occ. eigenvalues --  -10.07598 -10.07570 -10.07546  -7.84974  -5.81392
 Alpha  occ. eigenvalues --   -5.80980  -5.80330  -1.03236  -0.85455  -0.81956
 Alpha  occ. eigenvalues --   -0.79326  -0.75000  -0.69987  -0.68686  -0.67702
 Alpha  occ. eigenvalues --   -0.64560  -0.63287  -0.56975  -0.56853  -0.56030
 Alpha  occ. eigenvalues --   -0.53644  -0.52449  -0.49699  -0.47823  -0.45693
 Alpha  occ. eigenvalues --   -0.42604  -0.41066  -0.40415  -0.39941  -0.38429
 Alpha  occ. eigenvalues --   -0.37566  -0.36734  -0.35325  -0.34625  -0.33802
 Alpha  occ. eigenvalues --   -0.32755  -0.32161  -0.31341  -0.30525  -0.29942
 Alpha  occ. eigenvalues --   -0.29487  -0.29075  -0.27838  -0.27106  -0.26726
 Alpha  occ. eigenvalues --   -0.26209  -0.24986  -0.24388  -0.23816  -0.23460
 Alpha  occ. eigenvalues --   -0.22791  -0.22584  -0.20867  -0.20804  -0.19423
 Alpha  occ. eigenvalues --   -0.18603  -0.14791  -0.14349   0.03905
 Alpha virt. eigenvalues --    0.05320   0.06094   0.06806   0.07261   0.07697
 Alpha virt. eigenvalues --    0.08284   0.08630   0.08856   0.09122   0.09924
 Alpha virt. eigenvalues --    0.10278   0.10781   0.10975   0.11287   0.11444

  Beta  occ. eigenvalues --  -88.76356 -14.30382 -14.27001 -14.26581 -14.23402
  Beta  occ. eigenvalues --  -14.21151 -10.16062 -10.12650 -10.11722 -10.10834
  Beta  occ. eigenvalues --  -10.10620 -10.08876 -10.08032 -10.07912 -10.07612
  Beta  occ. eigenvalues --  -10.07585 -10.07571 -10.07534  -7.84970  -5.81389
  Beta  occ. eigenvalues --   -5.80984  -5.80326  -1.03077  -0.85308  -0.81924
  Beta  occ. eigenvalues --   -0.79147  -0.74944  -0.69915  -0.68631  -0.67686
  Beta  occ. eigenvalues --   -0.64491  -0.63232  -0.56912  -0.56797  -0.55943
  Beta  occ. eigenvalues --   -0.53572  -0.52395  -0.49594  -0.47778  -0.45642
  Beta  occ. eigenvalues --   -0.42417  -0.40836  -0.40361  -0.39896  -0.38349
  Beta  occ. eigenvalues --   -0.37459  -0.36680  -0.35272  -0.34588  -0.33704
  Beta  occ. eigenvalues --   -0.32696  -0.32132  -0.31273  -0.30484  -0.29878
  Beta  occ. eigenvalues --   -0.29427  -0.29020  -0.27789  -0.27040  -0.26641
  Beta  occ. eigenvalues --   -0.26173  -0.24947  -0.24340  -0.23762  -0.23321
  Beta  occ. eigenvalues --   -0.22717  -0.22536  -0.20636  -0.20464  -0.19204
  Beta  occ. eigenvalues --   -0.18463  -0.14715  -0.14287
  Beta virt. eigenvalues --    0.05770   0.06488   0.06827   0.07313   0.07570
  Beta virt. eigenvalues --    0.08432   0.08592   0.09029   0.09054   0.09424
  Beta virt. eigenvalues --    0.10091   0.10582   0.11013   0.11029   0.11539

 Mulliken charges and spin densities:
               1          2
     1  C   -0.388216  -0.242354
     2  C    0.258872  -0.383983
     3  N   -0.079293   0.084181
     4  C    0.364971  -0.773230
     5  C    0.107633  -0.306313
     6  N    0.475053   0.044004
     7  C   -1.213340   0.241964
     8  N   -0.013710  -0.029983
     9  N    0.142916  -0.009631
    10  N   -0.147302   0.061448
    11  S    0.151886  -0.237586
    12  C    0.392908   0.322714
    13  C   -0.036152  -0.536126
    14  C   -0.348485   0.377712
    15  C    0.654558  -1.400623
    16  C   -0.407583   0.382087
    17  C   -0.435361  -0.129676
    18  C   -0.612458  -0.058021
    19  H    0.137441   0.002702
    20  H   -0.218039   0.365458
    21  H   -0.020721   0.186613
    22  H    0.044092   0.067575
    23  H   -0.123939   0.274119
    24  H    0.226238  -0.044080
    25  H    0.244863  -0.086817
    26  H   -0.492698   0.664390
    27  H   -0.684369   0.914870
    28  H    0.181068  -0.031162
    29  H    0.313271   0.016512
    30  H   -0.046217   0.182108
    31  H    0.201548  -0.035042
    32  H    0.000681   0.167695
    33  H   -0.084286   0.258832
    34  H   -0.278619   0.435174
    35  H   -0.016280   0.157888
    36  H    0.210493  -0.078294
    37  H   -0.251151   0.421618
    38  H    0.082983   0.065355
    39  H    0.088465   0.071935
    40  H    0.488317  -0.414185
    41  H    0.129960   0.030153
 Sum of Mulliken charges =  -1.00000   1.00000

 Dipole moment (field-independent basis, Debye):
    X=              2.5598    Y=             -1.2786    Z=              1.7943  Tot=              3.3774
 Quadrupole moment (field-independent basis, Debye-Ang):
   XX=           -199.6075   YY=           -171.4273   ZZ=           -161.7377
   XY=            -12.1678   XZ=             -0.0273   YZ=             10.8098

 Summary of Natural Population Analysis:

                                       Natural Population
                Natural  -----------------------------------------------
    Atom  No    Charge         Core      Valence    Rydberg      Total
 -----------------------------------------------------------------------
      C    1   -0.28860      0.99966     2.28357    0.00537     3.28860
      C    2   -0.08310      0.99965     2.07383    0.00963     3.08310
      N    3   -0.34276      0.99974     2.83196    0.01106     3.84276
      C    4   -0.08783      0.99962     2.07767    0.01054     3.08783
      C    5   -0.08996      0.99960     2.07797    0.01238     3.08996
      N    6   -0.10860      0.99959     2.59343    0.01559     3.60860
      C    7    0.11380      0.99955     1.86428    0.02238     2.88620
      N    8   -0.17777      0.99967     2.66538    0.01272     3.67777
      N    9   -0.04900      0.99981     2.53194    0.01725     3.54900
      N   10   -0.03143      0.99977     2.51427    0.01739     3.53143
      S   11    0.11339      4.99953     2.86910    0.01798     7.88661
      C   12   -0.13121      0.99956     2.12076    0.01090     3.13121
      C   13   -0.20087      0.99960     2.19158    0.00969     3.20087
      C   14   -0.19772      0.99962     2.18884    0.00926     3.19772
      C   15   -0.18645      0.99962     2.17825    0.00858     3.18645
      C   16   -0.18984      0.99962     2.18116    0.00905     3.18984
      C   17   -0.18980      0.99962     2.18179    0.00839     3.18980
      C   18   -0.21627      0.99959     2.20689    0.00979     3.21627
      H   19    0.09409      0.00000     0.40489    0.00102     0.40591
      H   20    0.09946      0.00000     0.39975    0.00080     0.40054
      H   21    0.10186      0.00000     0.39677    0.00137     0.39814
      H   22    0.07665      0.00000     0.42207    0.00128     0.42335
      H   23    0.09168      0.00000     0.40694    0.00139     0.40832
      H   24    0.17059      0.00000     0.32537    0.00404     0.32941
      H   25    0.08742      0.00000     0.41087    0.00172     0.41258
      H   26    0.09993      0.00000     0.39787    0.00220     0.40007
      H   27    0.10815      0.00000     0.38912    0.00273     0.39185
      H   28    0.11255      0.00000     0.38580    0.00165     0.38745
      H   29    0.10326      0.00000     0.39498    0.00176     0.39674
      H   30    0.10173      0.00000     0.39704    0.00123     0.39827
      H   31    0.10269      0.00000     0.39627    0.00104     0.39731
      H   32    0.10143      0.00000     0.39714    0.00143     0.39857
      H   33    0.09916      0.00000     0.39999    0.00085     0.40084
      H   34    0.09969      0.00000     0.39917    0.00114     0.40031
      H   35    0.09079      0.00000     0.40792    0.00130     0.40921
      H   36    0.09458      0.00000     0.40370    0.00172     0.40542
      H   37    0.09784      0.00000     0.40111    0.00105     0.40216
      H   38    0.10031      0.00000     0.39870    0.00099     0.39969
      H   39    0.09357      0.00000     0.40541    0.00103     0.40643
      H   40    0.11098      0.00000     0.38607    0.00296     0.38902
      H   41    0.10563      0.00000     0.39292    0.00145     0.39437
 =======================================================================
   * Total *    0.00000     21.99342    50.75251    0.25407    73.00000

 Normal termination of Gaussian 16 at Sat Dec 12 00:20:36 2020.
