 Gaussian 16, Revision A.03,

 -----------------------------------------------------------
 # opt freq B3LYP/6-31G(d) empiricaldispersion=gd3bj scf=xqc
 -----------------------------------------------------------

 -----------------------------
 CID_91223243_JID_373_neutraal
 -----------------------------
 Symbolic Z-matrix:
 Charge =  0 Multiplicity = 1

 SCF Done:  E(RB3LYP) =  -388.019416464     A.U. after   14 cycles
 SCF Done:  E(RB3LYP) =  -388.055932480     A.U. after   13 cycles
 SCF Done:  E(RB3LYP) =  -388.080189397     A.U. after   12 cycles
 SCF Done:  E(RB3LYP) =  -388.087089499     A.U. after   12 cycles
 SCF Done:  E(RB3LYP) =  -388.088965738     A.U. after   12 cycles
 SCF Done:  E(RB3LYP) =  -388.089414039     A.U. after   11 cycles
 SCF Done:  E(RB3LYP) =  -388.089581755     A.U. after   10 cycles
 SCF Done:  E(RB3LYP) =  -388.089682407     A.U. after   10 cycles
 SCF Done:  E(RB3LYP) =  -388.089841824     A.U. after   11 cycles
 SCF Done:  E(RB3LYP) =  -388.089919019     A.U. after   10 cycles
 SCF Done:  E(RB3LYP) =  -388.089945675     A.U. after   10 cycles
 SCF Done:  E(RB3LYP) =  -388.089951100     A.U. after    8 cycles
 SCF Done:  E(RB3LYP) =  -388.089951852     A.U. after    8 cycles
 Optimization completed.
    -- Stationary point found.
 Normal termination of Gaussian 16 at Tue Dec  8 10:30:26 2020.

 --------------------------------------------------------------------
 #N Geom=AllCheck Guess=TCheck SCRF=Check GenChk RB3LYP/6-31G(d) Freq
 --------------------------------------------------------------------

 Structure from the checkpoint file:  "JID_373.chk"
 -----------------------------
 CID_91223243_JID_373_neutraal
 -----------------------------
 Charge =  0 Multiplicity = 1

 SCF Done:  E(RB3LYP) =  -388.089951852     A.U. after    1 cycles

  Exact polarizability: 110.993   0.091  94.896  -0.456  -0.586  78.914
 Approx polarizability: 150.744   3.606 150.449  -3.138  -8.851 127.049

                      1                      2                      3
                      A                      A                      A
 Frequencies --     82.7719               194.8772               251.0591
 Red. masses --      3.0040                 1.9316                 2.8149
 Frc consts  --      0.0121                 0.0432                 0.1045
 IR Inten    --      2.8941                 0.7660                 0.8976

                      4                      5                      6
                      A                      A                      A
 Frequencies --    301.8564               353.9083               477.0977
 Red. masses --      2.3018                 3.1781                 2.7399
 Frc consts  --      0.1236                 0.2345                 0.3674
 IR Inten    --      0.9723                 2.7709                 3.4246

                      7                      8                      9
                      A                      A                      A
 Frequencies --    497.4471               568.9865               582.2354
 Red. masses --      2.6213                 3.5296                 3.0105
 Frc consts  --      0.3822                 0.6732                 0.6013
 IR Inten    --      0.8038                 5.1673                 6.0962

                     10                     11                     12
                      A                      A                      A
 Frequencies --    613.0647               687.5059               710.9910
 Red. masses --      4.0750                 3.0768                 2.7376
 Frc consts  --      0.9024                 0.8568                 0.8154
 IR Inten    --      4.7433                 2.1578                 1.9460

                     13                     14                     15
                      A                      A                      A
 Frequencies --    786.6289               796.1521               806.8973
 Red. masses --      2.3669                 2.5472                 1.2355
 Frc consts  --      0.8629                 0.9513                 0.4740
 IR Inten    --      0.7641                 0.6688                 0.0699

                     16                     17                     18
                      A                      A                      A
 Frequencies --    850.5390               865.2902               869.9923
 Red. masses --      2.4634                 2.5049                 3.3270
 Frc consts  --      1.0499                 1.1050                 1.4837
 IR Inten    --      1.0709                 0.2145                 2.0042

                     19                     20                     21
                      A                      A                      A
 Frequencies --    889.7014               928.6133               987.9004
 Red. masses --      3.5815                 3.4502                 1.7349
 Frc consts  --      1.6703                 1.7529                 0.9976
 IR Inten    --      2.3345                 0.1541                 3.1864

                     22                     23                     24
                      A                      A                      A
 Frequencies --   1017.5778              1034.1242              1049.0681
 Red. masses --      2.0210                 2.5079                 1.7480
 Frc consts  --      1.2329                 1.5802                 1.1334
 IR Inten    --      1.3531                 0.8693                12.0481

                     25                     26                     27
                      A                      A                      A
 Frequencies --   1068.1566              1086.3621              1094.7353
 Red. masses --      1.3330                 1.2341                 1.6585
 Frc consts  --      0.8961                 0.8581                 1.1711
 IR Inten    --      2.0064                 0.1976                 0.8296

                     28                     29                     30
                      A                      A                      A
 Frequencies --   1111.3655              1138.8293              1157.4924
 Red. masses --      1.5055                 1.8573                 1.8200
 Frc consts  --      1.0956                 1.4192                 1.4367
 IR Inten    --      1.4850                 3.5818                 0.4754

                     31                     32                     33
                      A                      A                      A
 Frequencies --   1166.8328              1179.7937              1197.4371
 Red. masses --      1.3121                 1.5287                 1.7403
 Frc consts  --      1.0525                 1.2536                 1.4702
 IR Inten    --      1.6502                 1.2829                 2.7891

                     34                     35                     36
                      A                      A                      A
 Frequencies --   1210.3760              1218.6512              1226.4242
 Red. masses --      1.4348                 1.4623                 1.3740
 Frc consts  --      1.2384                 1.2795                 1.2177
 IR Inten    --      0.4229                 3.1661                 0.6458

                     37                     38                     39
                      A                      A                      A
 Frequencies --   1234.4172              1252.9395              1258.1705
 Red. masses --      1.2864                 1.4320                 1.5742
 Frc consts  --      1.1549                 1.3245                 1.4682
 IR Inten    --      1.2022                 2.6815                 8.8342

                     40                     41                     42
                      A                      A                      A
 Frequencies --   1294.6003              1325.6916              1418.7658
 Red. masses --      3.5714                 2.6672                 1.2195
 Frc consts  --      3.5266                 2.7618                 1.4463
 IR Inten    --      1.1160                 1.6497                 6.2238

                     43                     44                     45
                      A                      A                      A
 Frequencies --   1502.5581              1502.7902              1515.2853
 Red. masses --      1.0922                 1.0816                 1.1211
 Frc consts  --      1.4529                 1.4392                 1.5166
 IR Inten    --      2.3803                 0.4212                 1.7786

                     46                     47                     48
                      A                      A                      A
 Frequencies --   1515.4112              1524.6238              1679.7457
 Red. masses --      1.1394                 1.1058                 8.2124
 Frc consts  --      1.5416                 1.5144                13.6524
 IR Inten    --      3.0059                 1.0966                 1.4829

                     49                     50                     51
                      A                      A                      A
 Frequencies --   3044.0290              3044.3051              3048.8625
 Red. masses --      1.0735                 1.0551                 1.0590
 Frc consts  --      5.8607                 5.7614                 5.7998
 IR Inten    --     13.7655                46.9074               134.7294

                     52                     53                     54
                      A                      A                      A
 Frequencies --   3055.2568              3071.9135              3082.0686
 Red. masses --      1.0633                 1.0571                 1.1094
 Frc consts  --      5.8479                 5.8775                 6.2089
 IR Inten    --     56.0653                54.4166                 1.4183

                     55                     56                     57
                      A                      A                      A
 Frequencies --   3085.9193              3096.4836              3118.9772
 Red. masses --      1.0596                 1.1075                 1.1107
 Frc consts  --      5.9451                 6.2562                 6.3659
 IR Inten    --     58.5788                61.5454                42.3266

                     58                     59                     60
                      A                      A                      A
 Frequencies --   3126.0955              3136.9508              3152.2897
 Red. masses --      1.1102                 1.0897                 1.1072
 Frc consts  --      6.3925                 6.3176                 6.4821
 IR Inten    --     18.9420                63.2773                46.9596

 - Thermochemistry -
 -------------------
 Temperature   298.150 Kelvin.  Pressure   1.00000 Atm.
 Atom     1 has atomic number  6 and mass  12.00000

 Molecular mass:   132.09390 amu.
 Principal axes and moments of inertia in atomic units:
                           1         2         3
     Eigenvalues --   713.793311363.355711586.29667
           X            0.99998  -0.00382   0.00440
           Y            0.00368   0.99952   0.03076
           Z           -0.00452  -0.03074   0.99952
 This molecule is an asymmetric top.
 Rotational symmetry number  1.
 Warning -- assumption of classical behavior for rotation
           may cause significant error
 Rotational temperatures (Kelvin)      0.12134     0.06353     0.05460
 Rotational constants (GHZ):           2.52838     1.32375     1.13771
 Zero-point vibrational energy     503322.2 (Joules/Mol)
                                  120.29688 (Kcal/Mol)
 Warning -- explicit consideration of  10 degrees of freedom as
           vibrations may cause significant error
 Vibrational temperatures:    119.09   280.38   361.22   434.30   509.20
          (Kelvin)            686.44   715.72   818.64   837.71   882.06
                              989.17  1022.96  1131.78  1145.49  1160.95
                             1223.74  1244.96  1251.72  1280.08  1336.07
                             1421.37  1464.07  1487.87  1509.38  1536.84
                             1563.03  1575.08  1599.01  1638.52  1665.37
                             1678.81  1697.46  1722.84  1741.46  1753.37
                             1764.55  1776.05  1802.70  1810.23  1862.64
                             1907.37  2041.29  2161.85  2162.18  2180.16
                             2180.34  2193.59  2416.78  4379.68  4380.08
                             4386.63  4395.83  4419.80  4434.41  4439.95
                             4455.15  4487.51  4497.75  4513.37  4535.44

 Zero-point correction=                           0.191705 (Hartree/Particle)
 Thermal correction to Energy=                    0.199336
 Thermal correction to Enthalpy=                  0.200280
 Thermal correction to Gibbs Free Energy=         0.159588
 Sum of electronic and zero-point Energies=           -387.898247
 Sum of electronic and thermal Energies=              -387.890616
 Sum of electronic and thermal Enthalpies=            -387.889671
 Sum of electronic and thermal Free Energies=         -387.930364

                     E (Thermal)             CV                S
                      KCal/Mol        Cal/Mol-Kelvin    Cal/Mol-Kelvin
 Total                  125.085             32.366             85.644
 Electronic               0.000              0.000              0.000
 Translational            0.889              2.981             40.548
 Rotational               0.889              2.981             28.825
 Vibrational            123.308             26.404             16.271
 Vibration     1          0.600              1.961              3.824
 Vibration     2          0.636              1.847              2.181
 Vibration     3          0.663              1.761              1.723
 Vibration     4          0.694              1.670              1.407
 Vibration     5          0.730              1.567              1.149
 Vibration     6          0.834              1.301              0.718
 Vibration     7          0.853              1.256              0.665
 Vibration     8          0.925              1.098              0.506
 Vibration     9          0.939              1.070              0.481
 Vibration    10          0.972              1.004              0.428

                           ! Non-Optimized Parameters !
 Normal termination of Gaussian 16 at Tue Dec  8 10:35:18 2020.

 ----------------------------------------------------------------------
 # B3LYP/6-311++G(d,p) empiricaldispersion=gd3bj scf=xqc pop=npa geom=c
 heck
 ----------------------------------------------------------------------

 -------------------------------------
 CID_91223243_JID_373_Energie_neutraal
 -------------------------------------
 Structure from the checkpoint file:  "JID_373.chk"
 Charge =  0 Multiplicity = 1

 SCF Done:  E(RB3LYP) =  -388.184111189     A.U. after   13 cycles
 Normal termination of Gaussian 16 at Tue Dec  8 10:37:26 2020.

 ----------------------------------------------------------------------
 # B3LYP/6-311++G(d,p) empiricaldispersion=gd3bj scf=xqc pop=npa geom=c
 heck
 ----------------------------------------------------------------------

 -----------------------------------
 CID_91223243_JID_373_Energie_kation
 -----------------------------------
 Structure from the checkpoint file:  "JID_373.chk"
 Charge =  1 Multiplicity = 2

 SCF Done:  E(UB3LYP) =  -387.900317053     A.U. after   18 cycles
 Normal termination of Gaussian 16 at Tue Dec  8 10:41:42 2020.
 Gaussian 16:  ES64L-G16RevA.03 25-Dec-2016

 ----------------------------------------------------------------------
 # B3LYP/6-311++G(d,p) empiricaldispersion=gd3bj scf=xqc pop=npa geom=c
 heck
 ----------------------------------------------------------------------

 ----------------------------------
 CID_91223243_JID_373_Energie_anion
 ----------------------------------
 Structure from the checkpoint file:  "JID_373.chk"
 Charge = -1 Multiplicity = 2

                         Standard orientation:
 ---------------------------------------------------------------------
 Center     Atomic      Atomic             Coordinates (Angstroms)
 Number     Number       Type             X           Y           Z
 ---------------------------------------------------------------------
      1          6           0       -1.848597   -0.843255   -0.981540
      2          6           0       -1.923936   -1.080103    0.591557
      3          6           0       -0.763883   -0.045342    0.684515
      4          6           0       -1.282869    0.564927   -0.607548
      5          6           0        0.011094    1.486505   -0.534854
      6          6           0       -0.332229    1.459431    1.055573
      7          6           0        1.099290    0.426891   -0.556813
      8          6           0        0.610549   -0.549501    0.212165
      9          6           0        1.966950   -1.206431    0.458238
     10          6           0        2.545621   -0.050081   -0.463418
     11          1           0       -2.783754   -0.879685   -1.548421
     12          1           0       -1.108201   -1.505137   -1.435764
     13          1           0       -2.870557   -0.713149    1.000056
     14          1           0       -1.732764   -2.092306    0.961864
     15          1           0       -2.147058    1.202550   -0.384815
     16          1           0        0.097333    2.427487   -1.081037
     17          1           0       -1.163182    2.113317    1.346858
     18          1           0        0.519756    1.597554    1.730038
     19          1           0        2.102694   -2.233482    0.098667
     20          1           0        2.335398   -1.149107    1.490027
     21          1           0        3.028045   -0.366425   -1.395874
     22          1           0        3.230345    0.620129    0.071151
 ---------------------------------------------------------------------

 SCF Done:  E(UB3LYP) =  -388.162479443     A.U. after   33 cycles
 SCF Done:  E(UB3LYP) =  -388.162479444     a.u. after    1 cycles

 The electronic state is 2-A.
 Alpha  occ. eigenvalues --  -10.09042 -10.07889 -10.07873 -10.07598 -10.07523
 Alpha  occ. eigenvalues --  -10.07197 -10.06856 -10.06536 -10.04914 -10.04624
 Alpha  occ. eigenvalues --   -0.81027  -0.73182  -0.66909  -0.56202  -0.55872
 Alpha  occ. eigenvalues --   -0.53016  -0.50515  -0.49687  -0.43831  -0.37450
 Alpha  occ. eigenvalues --   -0.36757  -0.35785  -0.33417  -0.33016  -0.29874
 Alpha  occ. eigenvalues --   -0.28820  -0.26932  -0.25914  -0.25299  -0.23133
 Alpha  occ. eigenvalues --   -0.22115  -0.21236  -0.20761  -0.18421  -0.14397
 Alpha  occ. eigenvalues --   -0.10624   0.05120
 Alpha virt. eigenvalues --    0.07030   0.07417   0.07992   0.09373   0.09742
 Alpha virt. eigenvalues --    0.09837   0.10580   0.11050   0.11529   0.12449
 Alpha virt. eigenvalues --    0.12896   0.13119   0.14723   0.15322   0.15724

  Beta  occ. eigenvalues --  -10.09030 -10.07884 -10.07850 -10.07572 -10.07499
  Beta  occ. eigenvalues --  -10.07174 -10.06840 -10.06520 -10.04915 -10.04619
  Beta  occ. eigenvalues --   -0.81010  -0.73163  -0.66883  -0.56162  -0.55824
  Beta  occ. eigenvalues --   -0.52953  -0.50457  -0.49619  -0.43777  -0.37398
  Beta  occ. eigenvalues --   -0.36727  -0.35753  -0.33386  -0.32969  -0.29840
  Beta  occ. eigenvalues --   -0.28778  -0.26889  -0.25882  -0.25267  -0.23095
  Beta  occ. eigenvalues --   -0.22086  -0.21205  -0.20735  -0.18394  -0.14363
  Beta  occ. eigenvalues --   -0.10608
  Beta virt. eigenvalues --    0.07431   0.08118   0.08210   0.08637   0.10060
  Beta virt. eigenvalues --    0.10307   0.10491   0.11046   0.11234   0.11953
  Beta virt. eigenvalues --    0.13170   0.13336   0.13697   0.14895   0.15543

 Mulliken charges and spin densities:
               1          2
     1  C   -0.357026  -0.123552
     2  C    1.450686  -1.989439
     3  C   -3.887617   4.416959
     4  C    2.373078  -2.958035
     5  C   -2.932577   3.810558
     6  C    1.686920  -2.543605
     7  C    1.528456  -1.998606
     8  C   -0.636624   0.983640
     9  C    2.655285  -2.704143
    10  C    0.713231  -1.379039
    11  H   -0.455996   0.609489
    12  H    0.143230  -0.002457
    13  H   -0.325587   0.485927
    14  H   -0.327081   0.464022
    15  H   -0.561595   0.734989
    16  H   -0.994083   1.236344
    17  H   -0.242490   0.398430
    18  H   -0.310422   0.472569
    19  H   -0.059786   0.197646
    20  H   -0.138068   0.292435
    21  H   -0.107388   0.240866
    22  H   -0.214546   0.355003
 Sum of Mulliken charges =  -1.00000   1.00000

 Dipole moment (field-independent basis, Debye):
    X=              2.0859    Y=             -2.4339    Z=             -0.8262  Tot=              3.3102
 Quadrupole moment (field-independent basis, Debye-Ang):
   XX=           -120.9661   YY=           -104.2627   ZZ=            -93.6054
   XY=              2.0046   XZ=             -1.9296   YZ=              0.2658

 Summary of Natural Population Analysis:

                                       Natural Population
                Natural  -----------------------------------------------
    Atom  No    Charge         Core      Valence    Rydberg      Total
 -----------------------------------------------------------------------
      C    1   -0.18430      0.99961     2.17531    0.00938     3.18430
      C    2   -0.17846      0.99959     2.16893    0.00995     3.17846
      C    3   -0.05213      0.99937     2.03762    0.01514     3.05213
      C    4   -0.09332      0.99947     2.08096    0.01289     3.09332
      C    5   -0.10646      0.99955     2.09253    0.01438     3.10646
      C    6   -0.15640      0.99963     2.14630    0.01047     3.15640
      C    7   -0.02484      0.99922     2.01204    0.01358     3.02484
      C    8   -0.01722      0.99925     2.00320    0.01478     3.01722
      C    9   -0.18632      0.99960     2.17689    0.00983     3.18632
      C   10   -0.18345      0.99961     2.17501    0.00883     3.18345
      H   11    0.09771      0.00000     0.40097    0.00132     0.40229
      H   12    0.10282      0.00000     0.39563    0.00155     0.39718
      H   13    0.10186      0.00000     0.39608    0.00206     0.39814
      H   14    0.09746      0.00000     0.40142    0.00112     0.40254
      H   15    0.09524      0.00000     0.40217    0.00259     0.40476
      H   16    0.10279      0.00000     0.39591    0.00129     0.39721
      H   17    0.09787      0.00000     0.39969    0.00244     0.40213
      H   18    0.09624      0.00000     0.40220    0.00156     0.40376
      H   19    0.09568      0.00000     0.40304    0.00128     0.40432
      H   20    0.09948      0.00000     0.39889    0.00163     0.40052
      H   21    0.09612      0.00000     0.40262    0.00125     0.40388
      H   22    0.09963      0.00000     0.39857    0.00180     0.40037
 =======================================================================
   * Total *    0.00000      9.99491    25.86598    0.13912    36.00000

 Normal termination of Gaussian 16 at Tue Dec  8 10:50:37 2020.
