 Gaussian 16, Revision A.03,

 -----------------------------------------------------------
 # opt freq B3LYP/6-31G(d) empiricaldispersion=gd3bj scf=xqc
 -----------------------------------------------------------

 -------------------------------
 CID_116578400_JID_5461_neutraal
 -------------------------------
 Symbolic Z-matrix:
 Charge =  0 Multiplicity = 1

 SCF Done:  E(RB3LYP) =  -641.679272912     A.U. after   14 cycles
 SCF Done:  E(RB3LYP) =  -641.683341160     A.U. after   12 cycles
 SCF Done:  E(RB3LYP) =  -641.683142024     A.U. after   11 cycles
 SCF Done:  E(RB3LYP) =  -641.684007283     A.U. after   11 cycles
 SCF Done:  E(RB3LYP) =  -641.684284103     A.U. after   11 cycles
 SCF Done:  E(RB3LYP) =  -641.684422503     A.U. after   10 cycles
 SCF Done:  E(RB3LYP) =  -641.684519751     A.U. after   11 cycles
 SCF Done:  E(RB3LYP) =  -641.684559766     A.U. after   10 cycles
 SCF Done:  E(RB3LYP) =  -641.684580327     A.U. after    9 cycles
 SCF Done:  E(RB3LYP) =  -641.684594309     A.U. after   10 cycles
 SCF Done:  E(RB3LYP) =  -641.684607060     A.U. after   10 cycles
 SCF Done:  E(RB3LYP) =  -641.684607337     A.U. after    7 cycles
 SCF Done:  E(RB3LYP) =  -641.684607385     A.U. after    7 cycles
 SCF Done:  E(RB3LYP) =  -641.684607135     A.U. after    9 cycles
 SCF Done:  E(RB3LYP) =  -641.684607199     A.U. after    7 cycles
 Optimization completed.
    -- Stationary point found.
 Normal termination of Gaussian 16 at Thu Dec 10 16:44:16 2020.

 --------------------------------------------------------------------
 #N Geom=AllCheck Guess=TCheck SCRF=Check GenChk RB3LYP/6-31G(d) Freq
 --------------------------------------------------------------------

 Structure from the checkpoint file:  "JID_5461.chk"
 -------------------------------
 CID_116578400_JID_5461_neutraal
 -------------------------------
 Charge =  0 Multiplicity = 1

 SCF Done:  E(RB3LYP) =  -641.684607199     A.U. after    1 cycles

  Exact polarizability: 158.769  -0.547 143.936  -2.827  -3.093 131.366
 Approx polarizability: 207.318   3.497 197.267  -9.062  -6.627 194.980

                      1                      2                      3
                      A                      A                      A
 Frequencies --     12.1482                22.5431                42.5517
 Red. masses --      3.3231                 3.9636                 2.7342
 Frc consts  --      0.0003                 0.0012                 0.0029
 IR Inten    --      0.4269                 1.2911                 0.5988

                      4                      5                      6
                      A                      A                      A
 Frequencies --     49.9594                68.6627                81.8965
 Red. masses --      4.8392                 2.7721                 3.2385
 Frc consts  --      0.0071                 0.0077                 0.0128
 IR Inten    --      0.9167                 1.2382                 2.5957

                      7                      8                      9
                      A                      A                      A
 Frequencies --    103.6879               134.3726               182.7567
 Red. masses --      2.1544                 2.0819                 2.7703
 Frc consts  --      0.0136                 0.0221                 0.0545
 IR Inten    --      0.4136                 4.7597                 0.9418

                     10                     11                     12
                      A                      A                      A
 Frequencies --    188.4642               219.4578               235.7719
 Red. masses --      2.1114                 1.6404                 1.5277
 Frc consts  --      0.0442                 0.0465                 0.0500
 IR Inten    --      2.3519                 0.4582                 1.7560

                     13                     14                     15
                      A                      A                      A
 Frequencies --    252.2560               268.6347               274.3337
 Red. masses --      1.7788                 1.4348                 1.8000
 Frc consts  --      0.0667                 0.0610                 0.0798
 IR Inten    --      1.1352                15.8127                 0.6500

                     16                     17                     18
                      A                      A                      A
 Frequencies --    278.6106               290.3265               300.0909
 Red. masses --      1.3696                 1.8409                 1.6959
 Frc consts  --      0.0626                 0.0914                 0.0900
 IR Inten    --     16.3852                 7.4944                 0.4200

                     19                     20                     21
                      A                      A                      A
 Frequencies --    316.7940               325.3516               347.9390
 Red. masses --      1.2336                 2.0897                 2.1643
 Frc consts  --      0.0729                 0.1303                 0.1544
 IR Inten    --      0.1458                 4.5521                 1.9996

                     22                     23                     24
                      A                      A                      A
 Frequencies --    365.3907               383.8201               408.0236
 Red. masses --      2.4351                 2.3493                 2.2769
 Frc consts  --      0.1916                 0.2039                 0.2233
 IR Inten    --      0.3669                 4.3699                 1.1547

                     25                     26                     27
                      A                      A                      A
 Frequencies --    436.5185               460.5602               495.4521
 Red. masses --      2.0170                 2.4069                 2.4105
 Frc consts  --      0.2264                 0.3008                 0.3486
 IR Inten    --      2.0211                 0.2703                 1.1068

                     28                     29                     30
                      A                      A                      A
 Frequencies --    546.0424               606.1044               666.2317
 Red. masses --      2.9676                 2.4446                 3.3221
 Frc consts  --      0.5213                 0.5291                 0.8688
 IR Inten    --      9.8896                 4.0354                 2.2187

                     31                     32                     33
                      A                      A                      A
 Frequencies --    707.8125               734.7248               781.1225
 Red. masses --      2.4331                 2.0591                 1.3607
 Frc consts  --      0.7182                 0.6549                 0.4892
 IR Inten    --      3.2168                 1.7303                 4.9737

                     34                     35                     36
                      A                      A                      A
 Frequencies --    806.4523               830.9082               877.2677
 Red. masses --      1.5233                 2.4122                 1.7944
 Frc consts  --      0.5837                 0.9812                 0.8137
 IR Inten    --      7.6842                15.1453                51.4506

                     37                     38                     39
                      A                      A                      A
 Frequencies --    882.8493               901.1199               926.9914
 Red. masses --      1.7586                 1.4740                 2.0926
 Frc consts  --      0.8076                 0.7052                 1.0595
 IR Inten    --     54.2852                14.8396                 0.4464

                     40                     41                     42
                      A                      A                      A
 Frequencies --    934.8749               945.4862               947.4499
 Red. masses --      1.7911                 1.7895                 1.9614
 Frc consts  --      0.9223                 0.9425                 1.0374
 IR Inten    --      7.1576                 3.1999                 5.7140

                     43                     44                     45
                      A                      A                      A
 Frequencies --    952.5859               972.4866               996.1459
 Red. masses --      1.6734                 1.2049                 2.0480
 Frc consts  --      0.8946                 0.6714                 1.1974
 IR Inten    --      4.7029                 0.0894                 4.8559

                     46                     47                     48
                      A                      A                      A
 Frequencies --   1040.9693              1052.4396              1063.3184
 Red. masses --      1.5235                 1.5124                 2.0812
 Frc consts  --      0.9727                 0.9870                 1.3864
 IR Inten    --      4.2691                 0.7310                 1.8298

                     49                     50                     51
                      A                      A                      A
 Frequencies --   1072.3509              1083.4028              1087.7848
 Red. masses --      1.7638                 2.5998                 1.9972
 Frc consts  --      1.1950                 1.7979                 1.3924
 IR Inten    --      6.2100                10.3035                 0.4312

                     52                     53                     54
                      A                      A                      A
 Frequencies --   1109.9410              1117.5660              1141.1120
 Red. masses --      1.7828                 1.6381                 2.2853
 Frc consts  --      1.2940                 1.2054                 1.7533
 IR Inten    --      8.2788                 3.4754                 8.0848

                     55                     56                     57
                      A                      A                      A
 Frequencies --   1175.8496              1196.0120              1226.5528
 Red. masses --      1.6535                 1.5626                 1.7255
 Frc consts  --      1.3470                 1.3170                 1.5295
 IR Inten    --     28.1142                11.5493                11.6726

                     58                     59                     60
                      A                      A                      A
 Frequencies --   1234.0278              1247.3208              1270.7673
 Red. masses --      1.4175                 1.9146                 1.4460
 Frc consts  --      1.2718                 1.7550                 1.3757
 IR Inten    --      8.5912                12.6623                 3.8787

                     61                     62                     63
                      A                      A                      A
 Frequencies --   1279.0006              1285.7288              1303.0229
 Red. masses --      2.1183                 1.6266                 1.3045
 Frc consts  --      2.0416                 1.5843                 1.3050
 IR Inten    --      3.9853                 7.5351                18.8634

                     64                     65                     66
                      A                      A                      A
 Frequencies --   1312.4248              1344.0996              1352.2883
 Red. masses --      1.4484                 1.2298                 1.3605
 Frc consts  --      1.4699                 1.3091                 1.4658
 IR Inten    --      0.8357                 4.6861                 1.4495

                     67                     68                     69
                      A                      A                      A
 Frequencies --   1365.8750              1377.0830              1385.2883
 Red. masses --      1.2754                 1.3318                 1.3187
 Frc consts  --      1.4019                 1.4880                 1.4910
 IR Inten    --      0.6642                 6.7758                 5.8644

                     70                     71                     72
                      A                      A                      A
 Frequencies --   1389.6694              1390.3006              1416.2338
 Red. masses --      1.4276                 1.3031                 1.3844
 Frc consts  --      1.6243                 1.4841                 1.6359
 IR Inten    --      6.1276                11.1899                 0.7755

                     73                     74                     75
                      A                      A                      A
 Frequencies --   1430.5424              1430.8889              1444.1043
 Red. masses --      1.2432                 1.2331                 1.2567
 Frc consts  --      1.4990                 1.4875                 1.5441
 IR Inten    --      6.4545                 2.5018                 3.4718

                     76                     77                     78
                      A                      A                      A
 Frequencies --   1454.6475              1462.2922              1489.4332
 Red. masses --      1.4056                 1.2430                 1.0795
 Frc consts  --      1.7523                 1.5659                 1.4109
 IR Inten    --      7.0937                 6.3078                 7.0565

                     79                     80                     81
                      A                      A                      A
 Frequencies --   1511.3527              1512.8460              1517.3438
 Red. masses --      1.0913                 1.0585                 1.0466
 Frc consts  --      1.4687                 1.4274                 1.4198
 IR Inten    --      2.0908                 0.3631                 1.2386

                     82                     83                     84
                      A                      A                      A
 Frequencies --   1520.1515              1522.9579              1524.2222
 Red. masses --      1.0655                 1.0497                 1.0693
 Frc consts  --      1.4506                 1.4345                 1.4636
 IR Inten    --      1.9943                 0.1464                 2.3739

                     85                     86                     87
                      A                      A                      A
 Frequencies --   1531.2711              1532.0838              1536.6322
 Red. masses --      1.0667                 1.0677                 1.0564
 Frc consts  --      1.4737                 1.4766                 1.4696
 IR Inten    --      3.7937                 9.8176                10.9998

                     88                     89                     90
                      A                      A                      A
 Frequencies --   1543.6986              1547.0680              1551.8580
 Red. masses --      1.0542                 1.0647                 1.0603
 Frc consts  --      1.4801                 1.5014                 1.5045
 IR Inten    --      6.3792                19.0537                 7.3595

                     91                     92                     93
                      A                      A                      A
 Frequencies --   1557.1282              1696.8515              1800.7063
 Red. masses --      1.0789                 1.0888                10.7299
 Frc consts  --      1.5412                 1.8471                20.4990
 IR Inten    --      2.5932                26.8080               176.0410

                     94                     95                     96
                      A                      A                      A
 Frequencies --   2995.5440              3014.4719              3041.1183
 Red. masses --      1.0715                 1.0813                 1.0370
 Frc consts  --      5.6649                 5.7890                 5.6505
 IR Inten    --     56.9704                29.8882                16.5209

                     97                     98                     99
                      A                      A                      A
 Frequencies --   3043.5259              3044.4755              3050.1028
 Red. masses --      1.0365                 1.0391                 1.0504
 Frc consts  --      5.6567                 5.6745                 5.7576
 IR Inten    --     32.0116                17.1308                 1.6680

                    100                    101                    102
                      A                      A                      A
 Frequencies --   3050.9730              3052.2565              3060.7099
 Red. masses --      1.0523                 1.0618                 1.0607
 Frc consts  --      5.7711                 5.8284                 5.8543
 IR Inten    --     16.9592                32.8118                36.9308

                    103                    104                    105
                      A                      A                      A
 Frequencies --   3070.6757              3071.7293              3076.8493
 Red. masses --      1.0692                 1.0655                 1.0840
 Frc consts  --      5.9397                 5.9233                 6.0461
 IR Inten    --     10.0496                14.1595                16.1142

                    106                    107                    108
                      A                      A                      A
 Frequencies --   3089.1307              3093.5120              3102.3507
 Red. masses --      1.1008                 1.0993                 1.1020
 Frc consts  --      6.1893                 6.1980                 6.2490
 IR Inten    --      0.4881                64.9094                 2.0110

                    109                    110                    111
                      A                      A                      A
 Frequencies --   3105.2447              3108.5833              3111.1944
 Red. masses --      1.1010                 1.0996                 1.0999
 Frc consts  --      6.2550                 6.2602                 6.2729
 IR Inten    --      3.3803                31.2180                91.5576

                    112                    113                    114
                      A                      A                      A
 Frequencies --   3112.1596              3113.5147              3119.3396
 Red. masses --      1.1010                 1.0985                 1.1017
 Frc consts  --      6.2832                 6.2740                 6.3161
 IR Inten    --     53.4886                36.7703                34.0970

                    115                    116                    117
                      A                      A                      A
 Frequencies --   3121.1547              3125.8191              3126.0112
 Red. masses --      1.1017                 1.0989                 1.0984
 Frc consts  --      6.3233                 6.3262                 6.3241
 IR Inten    --      5.1420                81.9233                25.4551

                    118                    119                    120
                      A                      A                      A
 Frequencies --   3130.8228              3458.1633              3544.0844
 Red. masses --      1.0991                 1.0500                 1.0920
 Frc consts  --      6.3476                 7.3985                 8.0809
 IR Inten    --     35.3984                 3.6483                 0.9620

 - Thermochemistry -
 -------------------
 Temperature   298.150 Kelvin.  Pressure   1.00000 Atm.
 Atom     1 has atomic number  6 and mass  12.00000

 Molecular mass:   213.20926 amu.
 Principal axes and moments of inertia in atomic units:
                           1         2         3
     Eigenvalues --  2747.496565126.949016037.11775
           X            0.99974  -0.00326   0.02278
           Y            0.00317   0.99999   0.00394
           Z           -0.02279  -0.00387   0.99973
 This molecule is an asymmetric top.
 Rotational symmetry number  1.
 Warning -- assumption of classical behavior for rotation
           may cause significant error
 Rotational temperatures (Kelvin)      0.03152     0.01689     0.01435
 Rotational constants (GHZ):           0.65687     0.35201     0.29894
 Zero-point vibrational energy    1023016.8 (Joules/Mol)
                                  244.50689 (Kcal/Mol)
 Warning -- explicit consideration of  29 degrees of freedom as
           vibrations may cause significant error
 Vibrational temperatures:     17.48    32.43    61.22    71.88    98.79
          (Kelvin)            117.83   149.18   193.33   262.95   271.16
                              315.75   339.22   362.94   386.51   394.71
                              400.86   417.72   431.76   455.80   468.11
                              500.61   525.72   552.23   587.05   628.05
                              662.64   712.85   785.63   872.05   958.56
                             1018.38  1057.11  1123.86  1160.30  1195.49
                             1262.19  1270.22  1296.51  1333.73  1345.08
                             1360.34  1363.17  1370.56  1399.19  1433.23
                             1497.72  1514.23  1529.88  1542.87  1558.78
                             1565.08  1596.96  1607.93  1641.81  1691.79
                             1720.79  1764.74  1775.49  1794.62  1828.35
                             1840.20  1849.88  1874.76  1888.29  1933.86
                             1945.64  1965.19  1981.32  1993.12  1999.42
                             2000.33  2037.64  2058.23  2058.73  2077.74
                             2092.91  2103.91  2142.96  2174.50  2176.65
                             2183.12  2187.16  2191.20  2193.02  2203.16
                             2204.33  2210.87  2221.04  2225.89  2232.78
                             2240.36  2441.39  2590.81  4309.92  4337.15
                             4375.49  4378.95  4380.32  4388.42  4389.67
                             4391.52  4403.68  4418.02  4419.53  4426.90
                             4444.57  4450.87  4463.59  4467.75  4472.56
                             4476.31  4477.70  4479.65  4488.03  4490.65
                             4497.36  4497.63  4504.56  4975.53  5099.15

 Zero-point correction=                           0.389647 (Hartree/Particle)
 Thermal correction to Energy=                    0.408657
 Thermal correction to Enthalpy=                  0.409601
 Thermal correction to Gibbs Free Energy=         0.340751
 Sum of electronic and zero-point Energies=           -641.294961
 Sum of electronic and thermal Energies=              -641.275950
 Sum of electronic and thermal Enthalpies=            -641.275006
 Sum of electronic and thermal Free Energies=         -641.343856

                     E (Thermal)             CV                S
                      KCal/Mol        Cal/Mol-Kelvin    Cal/Mol-Kelvin
 Total                  256.436             70.539            144.908
 Electronic               0.000              0.000              0.000
 Translational            0.889              2.981             41.975
 Rotational               0.889              2.981             32.808
 Vibrational            254.659             64.577             70.125
 Vibration     1          0.593              1.987              7.624
 Vibration     2          0.593              1.985              6.397
 Vibration     3          0.595              1.980              5.137
 Vibration     4          0.595              1.978              4.819
 Vibration     5          0.598              1.969              4.191
 Vibration     6          0.600              1.962              3.845
 Vibration     7          0.605              1.946              3.384
 Vibration     8          0.613              1.919              2.882
 Vibration     9          0.630              1.863              2.300
 Vibration    10          0.633              1.856              2.243
 Vibration    11          0.647              1.811              1.964
 Vibration    12          0.655              1.786              1.835
 Vibration    13          0.664              1.759              1.715
 Vibration    14          0.673              1.731              1.605
 Vibration    15          0.677              1.721              1.569
 Vibration    16          0.679              1.713              1.542
 Vibration    17          0.686              1.692              1.472
 Vibration    18          0.693              1.674              1.416
 Vibration    19          0.704              1.642              1.327
 Vibration    20          0.709              1.625              1.283
 Vibration    21          0.726              1.579              1.176
 Vibration    22          0.739              1.543              1.099
 Vibration    23          0.753              1.505              1.024
 Vibration    24          0.773              1.453              0.934
 Vibration    25          0.797              1.391              0.838
 Vibration    26          0.818              1.338              0.764
 Vibration    27          0.851              1.260              0.670
 Vibration    28          0.901              1.148              0.552
 Vibration    29          0.965              1.019              0.439

 Optimization completed on the basis of negligible forces.
    -- Stationary point found.
 Normal termination of Gaussian 16 at Thu Dec 10 17:01:39 2020.

 ----------------------------------------------------------------------
 # B3LYP/6-311++G(d,p) empiricaldispersion=gd3bj scf=xqc pop=npa geom=c
 heck
 ----------------------------------------------------------------------

 ---------------------------------------
 CID_116578400_JID_5461_Energie_neutraal
 ---------------------------------------
 Structure from the checkpoint file:  "JID_5461.chk"
 Charge =  0 Multiplicity = 1

 SCF Done:  E(RB3LYP) =  -641.877629062     A.U. after   15 cycles
 Normal termination of Gaussian 16 at Thu Dec 10 17:10:25 2020.

 ----------------------------------------------------------------------
 # B3LYP/6-311++G(d,p) empiricaldispersion=gd3bj scf=xqc pop=npa geom=c
 heck
 ----------------------------------------------------------------------

 -------------------------------------
 CID_116578400_JID_5461_Energie_kation
 -------------------------------------
 Structure from the checkpoint file:  "JID_5461.chk"
 Charge =  1 Multiplicity = 2

 SCF Done:  E(UB3LYP) =  -641.566628452     A.U. after   29 cycles
 Normal termination of Gaussian 16 at Thu Dec 10 17:33:47 2020.
 Gaussian 16:  ES64L-G16RevA.03 25-Dec-2016

 ----------------------------------------------------------------------
 # B3LYP/6-311++G(d,p) empiricaldispersion=gd3bj scf=xqc pop=npa geom=c
 heck
 ----------------------------------------------------------------------

 ------------------------------------
 CID_116578400_JID_5461_Energie_anion
 ------------------------------------
 Structure from the checkpoint file:  "JID_5461.chk"
 Charge = -1 Multiplicity = 2

                         Standard orientation:
 ---------------------------------------------------------------------
 Center     Atomic      Atomic             Coordinates (Angstroms)
 Number     Number       Type             X           Y           Z
 ---------------------------------------------------------------------
      1          6           0        2.803225    0.348131    2.093082
      2          6           0        3.511167   -0.630236    1.151496
      3          6           0        2.695166   -0.970270   -0.112029
      4          6           0        2.516469    0.264328   -0.992394
      5          8           0        3.479567    0.726915   -1.577998
      6          6           0        1.156492    0.946423   -1.081685
      7          6           0       -0.065521    0.005982   -1.214347
      8          6           0       -0.820410   -0.262725    0.105673
      9          6           0       -1.342159    1.056326    0.736901
     10          6           0       -1.901664    2.123354   -0.210994
     11          7           0       -2.364206    3.270024    0.581140
     12          6           0       -1.894360   -1.401280   -0.002172
     13          6           0       -1.284438   -2.649928   -0.672144
     14          6           0       -2.334888   -1.821859    1.414676
     15          6           0       -3.138626   -0.976777   -0.801280
     16          1           0        2.656902    1.326163    1.620713
     17          1           0        3.388920    0.509821    3.004347
     18          1           0        1.817191   -0.028808    2.392106
     19          1           0        4.473520   -0.213166    0.833822
     20          1           0        3.726771   -1.563697    1.685681
     21          1           0        3.245468   -1.710476   -0.703916
     22          1           0        1.735936   -1.411294    0.171797
     23          1           0        1.060493    1.568101   -0.181334
     24          1           0        1.221268    1.639819   -1.925171
     25          1           0       -0.757101    0.436024   -1.946441
     26          1           0        0.269949   -0.938473   -1.650976
     27          1           0       -0.083052   -0.657631    0.819134
     28          1           0       -2.113041    0.823224    1.480721
     29          1           0       -0.537302    1.533296    1.307703
     30          1           0       -1.108130    2.488505   -0.872186
     31          1           0       -2.677225    1.692188   -0.864101
     32          1           0       -2.694071    4.007081   -0.039942
     33          1           0       -3.171576    2.991937    1.138535
     34          1           0       -0.331081   -2.928498   -0.205869
     35          1           0       -1.965215   -3.502479   -0.568117
     36          1           0       -1.108936   -2.505111   -1.742409
     37          1           0       -2.818456   -1.007680    1.962970
     38          1           0       -3.052821   -2.648328    1.360020
     39          1           0       -1.477322   -2.162915    2.007460
     40          1           0       -3.693466   -0.181197   -0.293718
     41          1           0       -2.877146   -0.623039   -1.804681
     42          1           0       -3.820283   -1.827677   -0.918843
 ---------------------------------------------------------------------

 SCF Done:  E(UB3LYP) =  -641.866245968     A.U. after   33 cycles
 SCF Done:  E(UB3LYP) =  -641.868082367     a.u. after   11 cycles

 The electronic state is 2-A.
 Alpha  occ. eigenvalues --  -19.01403 -14.19709 -10.16015 -10.09447 -10.09171
 Alpha  occ. eigenvalues --  -10.08364 -10.08308 -10.08283 -10.08030 -10.08021
 Alpha  occ. eigenvalues --  -10.07418 -10.06869 -10.06468 -10.06234 -10.06209
 Alpha  occ. eigenvalues --   -0.94730  -0.78818  -0.74463  -0.71053  -0.69097
 Alpha  occ. eigenvalues --   -0.65079  -0.61371  -0.59687  -0.59323  -0.58300
 Alpha  occ. eigenvalues --   -0.53827  -0.51293  -0.48816  -0.43701  -0.43013
 Alpha  occ. eigenvalues --   -0.40336  -0.39198  -0.38534  -0.37052  -0.36685
 Alpha  occ. eigenvalues --   -0.36057  -0.34941  -0.34019  -0.33510  -0.32595
 Alpha  occ. eigenvalues --   -0.32245  -0.31308  -0.30451  -0.29843  -0.29636
 Alpha  occ. eigenvalues --   -0.28682  -0.27741  -0.27296  -0.26963  -0.26194
 Alpha  occ. eigenvalues --   -0.25580  -0.25138  -0.24856  -0.24334  -0.24052
 Alpha  occ. eigenvalues --   -0.21953  -0.21450  -0.21054  -0.15445  -0.14923
 Alpha  occ. eigenvalues --    0.03914
 Alpha virt. eigenvalues --    0.05351   0.06398   0.06816   0.07271   0.08162
 Alpha virt. eigenvalues --    0.08600   0.08976   0.09124   0.09459   0.10438
 Alpha virt. eigenvalues --    0.10924   0.11041   0.11329   0.11994   0.12282

  Beta  occ. eigenvalues --  -19.01353 -14.19671 -10.15949 -10.09435 -10.09167
  Beta  occ. eigenvalues --  -10.08342 -10.08310 -10.08277 -10.08025 -10.08015
  Beta  occ. eigenvalues --  -10.07403 -10.06860 -10.06447 -10.06205 -10.06186
  Beta  occ. eigenvalues --   -0.94626  -0.78756  -0.74442  -0.71005  -0.69073
  Beta  occ. eigenvalues --   -0.65035  -0.61321  -0.59645  -0.59276  -0.58253
  Beta  occ. eigenvalues --   -0.53772  -0.51229  -0.48771  -0.43655  -0.42924
  Beta  occ. eigenvalues --   -0.40293  -0.39164  -0.38473  -0.36997  -0.36630
  Beta  occ. eigenvalues --   -0.36015  -0.34908  -0.33978  -0.33480  -0.32564
  Beta  occ. eigenvalues --   -0.32187  -0.31259  -0.30404  -0.29777  -0.29590
  Beta  occ. eigenvalues --   -0.28650  -0.27707  -0.27227  -0.26934  -0.26167
  Beta  occ. eigenvalues --   -0.25541  -0.25112  -0.24827  -0.24304  -0.23917
  Beta  occ. eigenvalues --   -0.21924  -0.21428  -0.21034  -0.15400  -0.14882
  Beta virt. eigenvalues --    0.06032   0.06289   0.07072   0.07164   0.07651
  Beta virt. eigenvalues --    0.08588   0.08971   0.09379   0.09521   0.09583
  Beta virt. eigenvalues --    0.10560   0.11265   0.11426   0.11511   0.12189

 Mulliken charges and spin densities:
               1          2
     1  C   -0.338479  -0.186721
     2  C    0.178412  -0.656883
     3  C   -0.173850   0.280707
     4  C    0.091696  -0.275553
     5  O   -0.272638   0.029357
     6  C   -0.064724  -0.290507
     7  C   -0.449239   0.301391
     8  C    0.810410  -0.535649
     9  C   -0.476756  -0.086664
    10  C    0.040538  -0.657961
    11  N   -0.335920   0.057397
    12  C   -0.723535   1.287321
    13  C    0.172954  -0.876755
    14  C   -0.065338  -0.549589
    15  C    0.529555  -1.191697
    16  H    0.071971   0.078501
    17  H   -0.014115   0.170098
    18  H   -0.017091   0.169156
    19  H    0.178198  -0.020083
    20  H   -0.356617   0.516482
    21  H   -0.145845   0.360891
    22  H    0.203197  -0.070970
    23  H    0.268129  -0.111724
    24  H    0.132891   0.081396
    25  H    0.121089   0.072665
    26  H    0.260025  -0.127379
    27  H    0.606066  -0.461894
    28  H    0.206029  -0.052435
    29  H    0.098493   0.084302
    30  H    0.054146   0.118380
    31  H   -0.168800   0.301219
    32  H   -0.118312   0.349815
    33  H   -0.109026   0.327524
    34  H   -0.158980   0.311336
    35  H   -0.090003   0.247758
    36  H   -0.084142   0.233652
    37  H   -0.205200   0.327167
    38  H   -0.024564   0.170241
    39  H   -0.227842   0.384738
    40  H   -0.221471   0.402352
    41  H   -0.070837   0.223193
    42  H   -0.110477   0.265425
 Sum of Mulliken charges =  -1.00000   1.00000

 Dipole moment (field-independent basis, Debye):
    X=              1.9571    Y=             -0.0327    Z=             -1.1868  Tot=              2.2891
 Quadrupole moment (field-independent basis, Debye-Ang):
   XX=           -181.5261   YY=           -156.5992   ZZ=           -136.9048
   XY=              9.1712   XZ=              4.8484   YZ=              2.3735

 Summary of Natural Population Analysis:

                                       Natural Population
                Natural  -----------------------------------------------
    Atom  No    Charge         Core      Valence    Rydberg      Total
 -----------------------------------------------------------------------
      C    1   -0.28823      0.99966     2.28324    0.00533     3.28823
      C    2   -0.18522      0.99963     2.17753    0.00806     3.18522
      C    3   -0.23980      0.99958     2.23095    0.00927     3.23980
      C    4    0.30937      0.99966     1.67021    0.02077     2.69063
      O    5   -0.29110      0.99987     3.28451    0.00672     4.29110
      C    6   -0.24007      0.99957     2.23181    0.00868     3.24007
      C    7   -0.19527      0.99960     2.18748    0.00818     3.19527
      C    8   -0.10428      0.99955     2.09289    0.01184     3.10428
      C    9   -0.19847      0.99961     2.18795    0.01091     3.19847
      C   10   -0.09120      0.99962     2.08153    0.01005     3.09120
      N   11   -0.42080      0.99977     2.91089    0.01014     3.92080
      C   12   -0.04349      0.99957     2.03120    0.01273     3.04349
      C   13   -0.28575      0.99962     2.27875    0.00738     3.28575
      C   14   -0.28350      0.99962     2.27665    0.00722     3.28350
      C   15   -0.28800      0.99962     2.28050    0.00788     3.28800
      H   16    0.09565      0.00000     0.40348    0.00087     0.40435
      H   17    0.09929      0.00000     0.40002    0.00068     0.40071
      H   18    0.09828      0.00000     0.40064    0.00108     0.40172
      H   19    0.09864      0.00000     0.40020    0.00116     0.40136
      H   20    0.09880      0.00000     0.39964    0.00156     0.40120
      H   21    0.11235      0.00000     0.38646    0.00119     0.38765
      H   22    0.10132      0.00000     0.39674    0.00194     0.39868
      H   23    0.11275      0.00000     0.38580    0.00145     0.38725
      H   24    0.10952      0.00000     0.38930    0.00118     0.39048
      H   25    0.10207      0.00000     0.39675    0.00118     0.39793
      H   26    0.10219      0.00000     0.39636    0.00145     0.39781
      H   27    0.09672      0.00000     0.40053    0.00274     0.40328
      H   28    0.10055      0.00000     0.39814    0.00131     0.39945
      H   29    0.10052      0.00000     0.39800    0.00147     0.39948
      H   30    0.08683      0.00000     0.41169    0.00148     0.41317
      H   31    0.08172      0.00000     0.41608    0.00220     0.41828
      H   32    0.17478      0.00000     0.32339    0.00182     0.32522
      H   33    0.17337      0.00000     0.32432    0.00231     0.32663
      H   34    0.10077      0.00000     0.39804    0.00119     0.39923
      H   35    0.10059      0.00000     0.39856    0.00085     0.39941
      H   36    0.09856      0.00000     0.40055    0.00089     0.40144
      H   37    0.09999      0.00000     0.39890    0.00110     0.40001
      H   38    0.09942      0.00000     0.39968    0.00090     0.40058
      H   39    0.10012      0.00000     0.39876    0.00112     0.39988
      H   40    0.10232      0.00000     0.39631    0.00136     0.39768
      H   41    0.09861      0.00000     0.40031    0.00107     0.40139
      H   42    0.10009      0.00000     0.39899    0.00093     0.39991
 =======================================================================
   * Total *   -0.00000     14.99456    44.82378    0.18166    60.00000

 Normal termination of Gaussian 16 at Thu Dec 10 20:15:42 2020.
