 Gaussian 16, Revision A.03,

 -----------------------------------------------------------
 # opt freq B3LYP/6-31G(d) empiricaldispersion=gd3bj scf=xqc
 -----------------------------------------------------------

 -------------------------------
 CID_130725654_JID_2093_neutraal
 -------------------------------
 Symbolic Z-matrix:
 Charge =  0 Multiplicity = 1

 SCF Done:  E(RB3LYP) =  -558.401969450     A.U. after   13 cycles
 SCF Done:  E(RB3LYP) =  -558.407815066     A.U. after   11 cycles
 SCF Done:  E(RB3LYP) =  -558.408548791     A.U. after   11 cycles
 SCF Done:  E(RB3LYP) =  -558.409055541     A.U. after   10 cycles
 SCF Done:  E(RB3LYP) =  -558.409125729     A.U. after   10 cycles
 SCF Done:  E(RB3LYP) =  -558.409154199     A.U. after   10 cycles
 SCF Done:  E(RB3LYP) =  -558.409193083     A.U. after   10 cycles
 SCF Done:  E(RB3LYP) =  -558.409198980     A.U. after    8 cycles
 SCF Done:  E(RB3LYP) =  -558.409202554     A.U. after    9 cycles
 SCF Done:  E(RB3LYP) =  -558.409208620     A.U. after    9 cycles
 SCF Done:  E(RB3LYP) =  -558.409375059     A.U. after    9 cycles
 SCF Done:  E(RB3LYP) =  -558.409374076     A.U. after    9 cycles
 SCF Done:  E(RB3LYP) =  -558.409398266     A.U. after   10 cycles
 SCF Done:  E(RB3LYP) =  -558.409399809     A.U. after    9 cycles
 SCF Done:  E(RB3LYP) =  -558.409400251     A.U. after    9 cycles
 SCF Done:  E(RB3LYP) =  -558.409401292     A.U. after    8 cycles
 Optimization completed.
    -- Stationary point found.
 Normal termination of Gaussian 16 at Wed Dec  9 16:58:19 2020.

 --------------------------------------------------------------------
 #N Geom=AllCheck Guess=TCheck SCRF=Check GenChk RB3LYP/6-31G(d) Freq
 --------------------------------------------------------------------

 Structure from the checkpoint file:  "JID_2093.chk"
 -------------------------------
 CID_130725654_JID_2093_neutraal
 -------------------------------
 Charge =  0 Multiplicity = 1

 SCF Done:  E(RB3LYP) =  -558.409401292     A.U. after    1 cycles

  Exact polarizability: 109.389  -1.407  99.165  -0.780   0.059 100.095
 Approx polarizability: 138.733  -0.313 139.513   0.002  -0.981 146.516

                      1                      2                      3
                      A                      A                      A
 Frequencies --     38.8405                48.1669                65.7421
 Red. masses --      3.4473                 2.6586                 3.3291
 Frc consts  --      0.0031                 0.0036                 0.0085
 IR Inten    --      3.0042                 0.2764                 2.8776

                      4                      5                      6
                      A                      A                      A
 Frequencies --    117.4530               166.4706               179.8002
 Red. masses --      3.4213                 2.7959                 1.9217
 Frc consts  --      0.0278                 0.0457                 0.0366
 IR Inten    --      3.6212                 7.8156                 0.5091

                      7                      8                      9
                      A                      A                      A
 Frequencies --    216.1125               237.2361               266.3603
 Red. masses --      3.0452                 2.4636                 1.3177
 Frc consts  --      0.0838                 0.0817                 0.0551
 IR Inten    --      1.1428                 1.5666                 1.1232

                     10                     11                     12
                      A                      A                      A
 Frequencies --    279.9716               340.0985               401.7718
 Red. masses --      3.0379                 2.5041                 1.8019
 Frc consts  --      0.1403                 0.1707                 0.1714
 IR Inten    --      2.9842                 0.7186                 1.8332

                     13                     14                     15
                      A                      A                      A
 Frequencies --    482.3541               528.4215               597.7010
 Red. masses --      2.3515                 3.6382                 2.4054
 Frc consts  --      0.3223                 0.5986                 0.5063
 IR Inten    --      1.4464                 8.4973                 3.0156

                     16                     17                     18
                      A                      A                      A
 Frequencies --    657.0199               666.9829               744.2227
 Red. masses --      2.2831                 5.3060                 2.6298
 Frc consts  --      0.5807                 1.3908                 0.8582
 IR Inten    --      2.7908                 4.4140                 7.1760

                     19                     20                     21
                      A                      A                      A
 Frequencies --    779.7011               841.6396               865.2402
 Red. masses --      6.1314                 1.7766                 2.5395
 Frc consts  --      2.1962                 0.7415                 1.1201
 IR Inten    --      9.8471                 2.4194                17.5243

                     22                     23                     24
                      A                      A                      A
 Frequencies --    887.9300               904.0696               919.8908
 Red. masses --      2.3529                 1.7018                 1.9456
 Frc consts  --      1.0930                 0.8195                 0.9700
 IR Inten    --      8.1207                 3.5234                 3.4257

                     25                     26                     27
                      A                      A                      A
 Frequencies --    923.1079               944.4937               958.7154
 Red. masses --      1.9845                 2.3106                 2.3274
 Frc consts  --      0.9963                 1.2144                 1.2604
 IR Inten    --      6.6246                13.8650                 7.8124

                     28                     29                     30
                      A                      A                      A
 Frequencies --    997.6729              1015.8774              1034.1203
 Red. masses --      1.4426                 1.7723                 3.4846
 Frc consts  --      0.8460                 1.0777                 2.1956
 IR Inten    --      8.4650                32.6505                43.3238

                     31                     32                     33
                      A                      A                      A
 Frequencies --   1049.9240              1063.5820              1085.3357
 Red. masses --      2.3558                 2.0923                 3.8989
 Frc consts  --      1.5301                 1.3945                 2.7059
 IR Inten    --      6.3518                 8.2335                41.7487

                     34                     35                     36
                      A                      A                      A
 Frequencies --   1140.5022              1160.1400              1173.7954
 Red. masses --      2.1504                 2.1900                 1.7552
 Frc consts  --      1.6480                 1.7366                 1.4248
 IR Inten    --      8.8132                53.2250                 6.1473

                     37                     38                     39
                      A                      A                      A
 Frequencies --   1179.8625              1189.8242              1220.3738
 Red. masses --      2.5124                 2.4223                 1.4147
 Frc consts  --      2.0606                 2.0204                 1.2413
 IR Inten    --     67.7204                25.4572                 5.0902

                     40                     41                     42
                      A                      A                      A
 Frequencies --   1236.5207              1241.6642              1260.0665
 Red. masses --      1.3013                 1.2592                 1.2169
 Frc consts  --      1.1723                 1.1438                 1.1384
 IR Inten    --      0.2521                 1.1568                11.5447

                     43                     44                     45
                      A                      A                      A
 Frequencies --   1264.2374              1276.4312              1323.2437
 Red. masses --      1.2417                 3.0395                 1.2871
 Frc consts  --      1.1693                 2.9177                 1.3278
 IR Inten    --      9.4227                58.7301                 3.7815

                     46                     47                     48
                      A                      A                      A
 Frequencies --   1332.9520              1346.8869              1356.1884
 Red. masses --      1.3107                 1.2284                 1.2670
 Frc consts  --      1.3721                 1.3130                 1.3730
 IR Inten    --      3.3109                 4.6007                 5.3442

                     49                     50                     51
                      A                      A                      A
 Frequencies --   1382.1456              1395.2958              1400.8768
 Red. masses --      1.3729                 1.4513                 1.3771
 Frc consts  --      1.5453                 1.6647                 1.5922
 IR Inten    --     14.5158                 8.4755                17.4926

                     52                     53                     54
                      A                      A                      A
 Frequencies --   1404.4875              1413.8219              1427.6030
 Red. masses --      1.4835                 1.4345                 1.4130
 Frc consts  --      1.7242                 1.6894                 1.6967
 IR Inten    --     19.4651                 8.3505                13.2272

                     55                     56                     57
                      A                      A                      A
 Frequencies --   1432.3599              1443.8972              1491.1293
 Red. masses --      1.3507                 1.3759                 1.0982
 Frc consts  --      1.6327                 1.6901                 1.4386
 IR Inten    --     24.3509                22.8981                 8.6062

                     58                     59                     60
                      A                      A                      A
 Frequencies --   1514.7001              1519.1630              1530.9608
 Red. masses --      1.0942                 1.0536                 1.0970
 Frc consts  --      1.4791                 1.4326                 1.5149
 IR Inten    --      1.6236                 1.1834                 1.8795

                     61                     62                     63
                      A                      A                      A
 Frequencies --   1538.4052              1540.7512              1551.8458
 Red. masses --      1.0977                 1.0503                 1.1028
 Frc consts  --      1.5307                 1.4690                 1.5647
 IR Inten    --      1.0790                 2.0594                 0.3164

                     64                     65                     66
                      A                      A                      A
 Frequencies --   1573.4270              2940.0633              2967.2181
 Red. masses --      1.0907                 1.0802                 1.0843
 Frc consts  --      1.5909                 5.5016                 5.6248
 IR Inten    --      0.7226                76.5000               111.4643

                     67                     68                     69
                      A                      A                      A
 Frequencies --   3004.4414              3017.2887              3032.9955
 Red. masses --      1.0716                 1.0726                 1.0659
 Frc consts  --      5.6991                 5.7536                 5.7769
 IR Inten    --     77.6279                55.2904                67.2396

                     70                     71                     72
                      A                      A                      A
 Frequencies --   3038.0153              3049.6669              3050.8999
 Red. masses --      1.0612                 1.0388                 1.0774
 Frc consts  --      5.7706                 5.6923                 5.9087
 IR Inten    --     56.4494                19.6035                14.5924

                     73                     74                     75
                      A                      A                      A
 Frequencies --   3057.3877              3066.8233              3079.2940
 Red. masses --      1.0594                 1.0805                 1.1034
 Frc consts  --      5.8344                 5.9874                 6.1642
 IR Inten    --     40.3936                42.3304                29.5432

                     76                     77                     78
                      A                      A                      A
 Frequencies --   3104.6545              3113.1521              3114.2248
 Red. masses --      1.0985                 1.0984                 1.1034
 Frc consts  --      6.2385                 6.2723                 6.3049
 IR Inten    --     30.1908                68.1904                 9.2350

                     79                     80                     81
                      A                      A                      A
 Frequencies --   3117.9957              3130.4887              3132.6087
 Red. masses --      1.1027                 1.1016                 1.0970
 Frc consts  --      6.3162                 6.3607                 6.3427
 IR Inten    --     59.7307                27.7697                28.6328

 - Thermochemistry -
 -------------------
 Temperature   298.150 Kelvin.  Pressure   1.00000 Atm.
 Atom     1 has atomic number  6 and mass  12.00000

 Molecular mass:   171.12593 amu.
 Principal axes and moments of inertia in atomic units:
                           1         2         3
     Eigenvalues --  1251.903772447.825602739.86612
           X            0.99999   0.00282   0.00184
           Y           -0.00286   0.99977   0.02147
           Z           -0.00178  -0.02148   0.99977
 This molecule is an asymmetric top.
 Rotational symmetry number  1.
 Warning -- assumption of classical behavior for rotation
           may cause significant error
 Rotational temperatures (Kelvin)      0.06919     0.03538     0.03161
 Rotational constants (GHZ):           1.44160     0.73728     0.65870
 Zero-point vibrational energy     685381.3 (Joules/Mol)
                                  163.81006 (Kcal/Mol)
 Warning -- explicit consideration of  15 degrees of freedom as
           vibrations may cause significant error
 Vibrational temperatures:     55.88    69.30    94.59   168.99   239.51
          (Kelvin)            258.69   310.94   341.33   383.23   402.82
                              489.33   578.06   694.00   760.28   859.96
                              945.31   959.64  1070.77  1121.82  1210.93
                             1244.89  1277.53  1300.75  1323.52  1328.15
                             1358.92  1379.38  1435.43  1461.62  1487.87
                             1510.61  1530.26  1561.56  1640.93  1669.18
                             1688.83  1697.56  1711.89  1755.85  1779.08
                             1786.48  1812.95  1818.96  1836.50  1903.85
                             1917.82  1937.87  1951.25  1988.60  2007.52
                             2015.55  2020.74  2034.17  2054.00  2060.85
                             2077.45  2145.40  2179.32  2185.74  2202.71
                             2213.42  2216.80  2232.76  2263.81  4230.10
                             4269.17  4322.72  4341.21  4363.80  4371.03
                             4387.79  4389.56  4398.90  4412.47  4430.42
                             4466.91  4479.13  4480.67  4486.10  4504.08
                             4507.13

 Zero-point correction=                           0.261048 (Hartree/Particle)
 Thermal correction to Energy=                    0.272885
 Thermal correction to Enthalpy=                  0.273829
 Thermal correction to Gibbs Free Energy=         0.222197
 Sum of electronic and zero-point Energies=           -558.148353
 Sum of electronic and thermal Energies=              -558.136517
 Sum of electronic and thermal Enthalpies=            -558.135572
 Sum of electronic and thermal Free Energies=         -558.187204

                     E (Thermal)             CV                S
                      KCal/Mol        Cal/Mol-Kelvin    Cal/Mol-Kelvin
 Total                  171.238             44.455            108.668
 Electronic               0.000              0.000              0.000
 Translational            0.889              2.981             41.319
 Rotational               0.889              2.981             30.508
 Vibrational            169.460             38.494             36.841
 Vibration     1          0.594              1.981              5.317
 Vibration     2          0.595              1.978              4.891
 Vibration     3          0.597              1.971              4.277
 Vibration     4          0.608              1.935              3.142
 Vibration     5          0.624              1.884              2.475
 Vibration     6          0.629              1.867              2.330
 Vibration     7          0.645              1.816              1.991
 Vibration     8          0.656              1.784              1.824
 Vibration     9          0.672              1.735              1.620
 Vibration    10          0.680              1.711              1.534
 Vibration    11          0.720              1.595              1.212
 Vibration    12          0.767              1.466              0.956
 Vibration    13          0.839              1.289              0.704
 Vibration    14          0.883              1.187              0.591
 Vibration    15          0.956              1.037              0.454

                           ! Non-Optimized Parameters !
 Normal termination of Gaussian 16 at Wed Dec  9 17:05:59 2020.

 ----------------------------------------------------------------------
 # B3LYP/6-311++G(d,p) empiricaldispersion=gd3bj scf=xqc pop=npa geom=c
 heck
 ----------------------------------------------------------------------

 ---------------------------------------
 CID_130725654_JID_2093_Energie_neutraal
 ---------------------------------------
 Structure from the checkpoint file:  "JID_2093.chk"
 Charge =  0 Multiplicity = 1

 SCF Done:  E(RB3LYP) =  -558.566005966     A.U. after   13 cycles
 Normal termination of Gaussian 16 at Wed Dec  9 17:09:03 2020.

 ----------------------------------------------------------------------
 # B3LYP/6-311++G(d,p) empiricaldispersion=gd3bj scf=xqc pop=npa geom=c
 heck
 ----------------------------------------------------------------------

 -------------------------------------
 CID_130725654_JID_2093_Energie_kation
 -------------------------------------
 Structure from the checkpoint file:  "JID_2093.chk"
 Charge =  1 Multiplicity = 2

 SCF Done:  E(UB3LYP) =  -558.299408898     A.U. after   16 cycles
 Normal termination of Gaussian 16 at Wed Dec  9 17:13:08 2020.
 Gaussian 16:  ES64L-G16RevA.03 25-Dec-2016

 ----------------------------------------------------------------------
 # B3LYP/6-311++G(d,p) empiricaldispersion=gd3bj scf=xqc pop=npa geom=c
 heck
 ----------------------------------------------------------------------

 ------------------------------------
 CID_130725654_JID_2093_Energie_anion
 ------------------------------------
 Structure from the checkpoint file:  "JID_2093.chk"
 Charge = -1 Multiplicity = 2

                         Standard orientation:
 ---------------------------------------------------------------------
 Center     Atomic      Atomic             Coordinates (Angstroms)
 Number     Number       Type             X           Y           Z
 ---------------------------------------------------------------------
      1          6           0        1.476465    2.216764   -0.119724
      2          6           0        1.299546    0.728227   -0.393762
      3          6           0        2.578187    0.006397   -0.832927
      4          6           0        2.236709   -1.471020   -0.583073
      5          6           0        1.310852   -1.442719    0.654370
      6          7           0        0.950380   -0.027829    0.809703
      7          6           0       -0.207721    0.296033    1.601376
      8          6           0       -1.589652    0.145264    0.955497
      9          8           0       -1.734502    1.091514   -0.091695
     10          6           0       -2.485049    0.456475   -1.120053
     11          6           0       -2.018977   -0.992519   -1.009671
     12          8           0       -1.808025   -1.148297    0.390610
     13          1           0        1.857235    2.723094   -1.013994
     14          1           0        2.188051    2.370577    0.699605
     15          1           0        0.524071    2.685524    0.146198
     16          1           0        0.546414    0.616831   -1.195477
     17          1           0        2.844286    0.218032   -1.873732
     18          1           0        3.409956    0.325972   -0.193309
     19          1           0        3.121012   -2.097369   -0.432617
     20          1           0        1.694569   -1.876122   -1.445681
     21          1           0        1.827920   -1.792024    1.560820
     22          1           0        0.436409   -2.088542    0.509865
     23          1           0       -0.194566   -0.337528    2.497548
     24          1           0       -0.142630    1.334615    1.952733
     25          1           0       -2.373053    0.305117    1.717153
     26          1           0       -2.240714    0.936715   -2.070453
     27          1           0       -3.565405    0.545373   -0.930396
     28          1           0       -1.083949   -1.154781   -1.563968
     29          1           0       -2.764212   -1.723818   -1.335743
 ---------------------------------------------------------------------

 SCF Done:  E(UB3LYP) =  -558.548464167     A.U. after   28 cycles

 The electronic state is 2-A.
 Alpha  occ. eigenvalues --  -19.03018 -19.02634 -14.19274 -10.16348 -10.11389
 Alpha  occ. eigenvalues --  -10.11291 -10.09418 -10.08954 -10.08338 -10.06336
 Alpha  occ. eigenvalues --  -10.05957 -10.05326  -0.99000  -0.89546  -0.82608
 Alpha  occ. eigenvalues --   -0.69891  -0.65999  -0.65193  -0.58818  -0.56228
 Alpha  occ. eigenvalues --   -0.53131  -0.50598  -0.47991  -0.44915  -0.42232
 Alpha  occ. eigenvalues --   -0.39942  -0.38697  -0.37803  -0.36872  -0.34028
 Alpha  occ. eigenvalues --   -0.33162  -0.32310  -0.31719  -0.30287  -0.29244
 Alpha  occ. eigenvalues --   -0.28665  -0.26789  -0.25928  -0.24823  -0.24242
 Alpha  occ. eigenvalues --   -0.24136  -0.23410  -0.22475  -0.22024  -0.17360
 Alpha  occ. eigenvalues --   -0.16378  -0.09565   0.04866
 Alpha virt. eigenvalues --    0.07009   0.07453   0.07848   0.09137   0.09266
 Alpha virt. eigenvalues --    0.09757   0.10346   0.10726   0.11693   0.11941
 Alpha virt. eigenvalues --    0.12565   0.12993   0.13739   0.13948   0.14444

  Beta  occ. eigenvalues --  -19.03015 -19.02634 -14.19275 -10.16337 -10.11346
  Beta  occ. eigenvalues --  -10.11255 -10.09410 -10.08943 -10.08331 -10.06317
  Beta  occ. eigenvalues --  -10.05939 -10.05312  -0.98989  -0.89537  -0.82597
  Beta  occ. eigenvalues --   -0.69862  -0.65957  -0.65168  -0.58781  -0.56194
  Beta  occ. eigenvalues --   -0.53042  -0.50566  -0.47940  -0.44886  -0.42199
  Beta  occ. eigenvalues --   -0.39898  -0.38662  -0.37745  -0.36827  -0.34007
  Beta  occ. eigenvalues --   -0.33127  -0.32273  -0.31687  -0.30246  -0.29225
  Beta  occ. eigenvalues --   -0.28644  -0.26757  -0.25895  -0.24806  -0.24227
  Beta  occ. eigenvalues --   -0.24089  -0.23383  -0.22446  -0.21997  -0.17330
  Beta  occ. eigenvalues --   -0.16361  -0.09555
  Beta virt. eigenvalues --    0.07003   0.07864   0.08246   0.08266   0.09807
  Beta virt. eigenvalues --    0.09825   0.10429   0.10539   0.11041   0.12367
  Beta virt. eigenvalues --    0.12461   0.12779   0.13117   0.13954   0.14166

 Mulliken charges and spin densities:
               1          2
     1  C    0.094708  -0.686491
     2  C   -0.351674   0.291920
     3  C   -0.354052  -0.056594
     4  C    0.326759  -0.627159
     5  C   -0.101637  -0.260583
     6  N    0.136952   0.104089
     7  C    0.319396  -0.474844
     8  C   -0.357179  -0.049973
     9  O   -0.084721   0.021049
    10  C    1.148935  -1.385127
    11  C    0.484733  -0.627618
    12  O   -0.122228   0.020486
    13  H   -0.113584   0.241024
    14  H    0.046598   0.089069
    15  H    0.092734   0.059448
    16  H    0.763065  -0.600755
    17  H   -0.413774   0.569557
    18  H    0.091688   0.036159
    19  H   -0.208086   0.372205
    20  H   -0.103923   0.224704
    21  H   -0.042941   0.154988
    22  H    0.200294  -0.009305
    23  H    0.064125   0.101793
    24  H    0.083621   0.098683
    25  H   -0.508182   0.655578
    26  H   -0.969099   1.137846
    27  H   -0.242313   0.397438
    28  H    0.042662   0.103417
    29  H   -0.922879   1.098993
 Sum of Mulliken charges =  -1.00000   1.00000

 Dipole moment (field-independent basis, Debye):
    X=              4.2119    Y=              0.8362    Z=              4.9504  Tot=              6.5533
 Quadrupole moment (field-independent basis, Debye-Ang):
   XX=           -138.9738   YY=           -110.6605   ZZ=           -118.4667
   XY=             -1.7630   XZ=             -5.1957   YZ=              0.0584

 Summary of Natural Population Analysis:

                                       Natural Population
                Natural  -----------------------------------------------
    Atom  No    Charge         Core      Valence    Rydberg      Total
 -----------------------------------------------------------------------
      C    1   -0.28678      0.99964     2.28239    0.00475     3.28678
      C    2   -0.00589      0.99959     1.99184    0.01445     3.00589
      C    3   -0.18768      0.99961     2.17885    0.00923     3.18768
      C    4   -0.19475      0.99964     2.18770    0.00741     3.19475
      C    5   -0.07959      0.99963     2.07008    0.00989     3.07959
      N    6   -0.29003      0.99970     2.77743    0.01290     3.79003
      C    7   -0.09539      0.99958     2.08263    0.01319     3.09539
      C    8    0.21947      0.99960     1.76103    0.01991     2.78053
      O    9   -0.30355      0.99989     3.29443    0.00924     4.30355
      C   10   -0.02241      0.99960     2.01026    0.01255     3.02241
      C   11   -0.02313      0.99959     2.01065    0.01289     3.02313
      O   12   -0.30694      0.99989     3.29824    0.00881     4.30694
      H   13    0.10001      0.00000     0.39914    0.00085     0.39999
      H   14    0.09520      0.00000     0.40360    0.00120     0.40480
      H   15    0.10442      0.00000     0.39421    0.00137     0.39558
      H   16    0.08423      0.00000     0.41262    0.00315     0.41577
      H   17    0.10135      0.00000     0.39753    0.00112     0.39865
      H   18    0.09298      0.00000     0.40574    0.00128     0.40702
      H   19    0.09784      0.00000     0.40120    0.00096     0.40216
      H   20    0.09780      0.00000     0.40058    0.00162     0.40220
      H   21    0.08405      0.00000     0.41480    0.00115     0.41595
      H   22    0.09534      0.00000     0.40316    0.00150     0.40466
      H   23    0.09739      0.00000     0.40157    0.00104     0.40261
      H   24    0.09884      0.00000     0.40002    0.00114     0.40116
      H   25    0.07024      0.00000     0.42802    0.00174     0.42976
      H   26    0.09776      0.00000     0.39933    0.00291     0.40224
      H   27    0.08266      0.00000     0.41476    0.00258     0.41734
      H   28    0.08241      0.00000     0.41527    0.00232     0.41759
      H   29    0.09418      0.00000     0.40297    0.00285     0.40582
 =======================================================================
   * Total *   -0.00000     11.99595    34.84006    0.16399    47.00000

 Normal termination of Gaussian 16 at Wed Dec  9 17:20:17 2020.
