 Gaussian 16, Revision A.03,

 -----------------------------------------------------------
 # opt freq B3LYP/6-31G(d) empiricaldispersion=gd3bj scf=xqc
 -----------------------------------------------------------

 -------------------------------
 CID_103881092_JID_3088_neutraal
 -------------------------------
 Symbolic Z-matrix:
 Charge =  0 Multiplicity = 1

 SCF Done:  E(RB3LYP) =  -633.610450391     A.U. after   14 cycles
 SCF Done:  E(RB3LYP) =  -633.614181765     A.U. after   13 cycles
 SCF Done:  E(RB3LYP) =  -633.609752297     A.U. after   13 cycles
 SCF Done:  E(RB3LYP) =  -633.611868597     A.U. after   13 cycles
 SCF Done:  E(RB3LYP) =  -633.616099570     A.U. after   10 cycles
 SCF Done:  E(RB3LYP) =  -633.615253802     A.U. after   12 cycles
 SCF Done:  E(RB3LYP) =  -633.616908778     A.U. after   12 cycles
 SCF Done:  E(RB3LYP) =  -633.617370282     A.U. after   12 cycles
 SCF Done:  E(RB3LYP) =  -633.617497263     A.U. after   11 cycles
 SCF Done:  E(RB3LYP) =  -633.617696703     A.U. after   11 cycles
 SCF Done:  E(RB3LYP) =  -633.617861704     A.U. after    8 cycles
 SCF Done:  E(RB3LYP) =  -633.617869681     A.U. after   10 cycles
 SCF Done:  E(RB3LYP) =  -633.617872988     A.U. after   10 cycles
 SCF Done:  E(RB3LYP) =  -633.617874802     A.U. after    8 cycles
 SCF Done:  E(RB3LYP) =  -633.617875048     A.U. after    8 cycles
 Optimization completed.
    -- Stationary point found.
 Normal termination of Gaussian 16 at Wed Dec  9 22:28:49 2020.

 --------------------------------------------------------------------
 #N Geom=AllCheck Guess=TCheck SCRF=Check GenChk RB3LYP/6-31G(d) Freq
 --------------------------------------------------------------------

 Structure from the checkpoint file:  "JID_3088.chk"
 -------------------------------
 CID_103881092_JID_3088_neutraal
 -------------------------------
 Charge =  0 Multiplicity = 1

 SCF Done:  E(RB3LYP) =  -633.617875048     A.U. after    1 cycles

  Exact polarizability: 136.550  -3.527  96.320   0.942  -1.669  93.047
 Approx polarizability: 169.774  -7.993 140.470   4.489  -6.457 141.789

                      1                      2                      3
                      A                      A                      A
 Frequencies --     42.0918                55.1811                76.9300
 Red. masses --      6.0022                 3.3247                 3.9499
 Frc consts  --      0.0063                 0.0060                 0.0138
 IR Inten    --      1.2165                 0.8951                 1.9481

                      4                      5                      6
                      A                      A                      A
 Frequencies --     94.1868               110.2278               128.7659
 Red. masses --      2.3861                 3.3461                 3.2267
 Frc consts  --      0.0125                 0.0240                 0.0315
 IR Inten    --      0.3867                 0.8763                 5.0975

                      7                      8                      9
                      A                      A                      A
 Frequencies --    164.4513               191.2552               224.3818
 Red. masses --      3.8011                 2.2446                 1.7031
 Frc consts  --      0.0606                 0.0484                 0.0505
 IR Inten    --      1.7949                 1.2019                 1.6275

                     10                     11                     12
                      A                      A                      A
 Frequencies --    242.9681               269.9486               320.1419
 Red. masses --      3.4972                 2.6033                 3.0024
 Frc consts  --      0.1216                 0.1118                 0.1813
 IR Inten    --     11.3548                 0.7467                 0.3261

                     13                     14                     15
                      A                      A                      A
 Frequencies --    346.9689               351.8183               368.1174
 Red. masses --      2.7336                 3.1377                 2.3027
 Frc consts  --      0.1939                 0.2288                 0.1838
 IR Inten    --      1.8586                 5.2358                13.0996

                     16                     17                     18
                      A                      A                      A
 Frequencies --    393.0020               485.4318               499.4514
 Red. masses --      2.6870                 4.8113                 2.3940
 Frc consts  --      0.2445                 0.6680                 0.3518
 IR Inten    --     12.1660                26.6552                 6.2757

                     19                     20                     21
                      A                      A                      A
 Frequencies --    537.8748               547.4471               648.4214
 Red. masses --      2.4050                 3.5593                 1.3078
 Frc consts  --      0.4099                 0.6285                 0.3240
 IR Inten    --      8.8545                19.5880               132.6937

                     22                     23                     24
                      A                      A                      A
 Frequencies --    653.5895               723.0609               757.3558
 Red. masses --      1.6918                 1.9888                 1.5391
 Frc consts  --      0.4258                 0.6126                 0.5201
 IR Inten    --    115.7189                69.5632                 2.9080

                     25                     26                     27
                      A                      A                      A
 Frequencies --    798.1254               799.2834               863.4293
 Red. masses --      3.0066                 1.1071                 2.8264
 Frc consts  --      1.1284                 0.4167                 1.2415
 IR Inten    --      2.1624                 1.0615                13.6800

                     28                     29                     30
                      A                      A                      A
 Frequencies --    875.2094               924.8677               934.6387
 Red. masses --      2.3669                 2.8527                 2.0219
 Frc consts  --      1.0682                 1.4377                 1.0406
 IR Inten    --     10.9651                19.2229                 2.7792

                     31                     32                     33
                      A                      A                      A
 Frequencies --    946.9927               950.6253               969.5078
 Red. masses --      1.3454                 1.4728                 3.6967
 Frc consts  --      0.7109                 0.7842                 2.0472
 IR Inten    --     10.9322                 1.7400                 3.5636

                     34                     35                     36
                      A                      A                      A
 Frequencies --   1037.5768              1043.2008              1059.1359
 Red. masses --      1.7475                 1.8201                 1.8756
 Frc consts  --      1.1084                 1.1670                 1.2396
 IR Inten    --     23.4064                10.8154                 6.8528

                     37                     38                     39
                      A                      A                      A
 Frequencies --   1069.6354              1090.6811              1096.2916
 Red. masses --      1.6807                 2.1636                 3.0836
 Frc consts  --      1.1329                 1.5164                 2.1836
 IR Inten    --     11.3537                 7.0571                67.8679

                     40                     41                     42
                      A                      A                      A
 Frequencies --   1101.2910              1128.5195              1144.1051
 Red. masses --      1.4769                 4.7562                 2.1373
 Frc consts  --      1.0554                 3.5688                 1.6484
 IR Inten    --      0.4640                66.2463                67.3816

                     43                     44                     45
                      A                      A                      A
 Frequencies --   1176.8822              1208.2860              1257.6599
 Red. masses --      2.0552                 1.2798                 1.2370
 Frc consts  --      1.6771                 1.1008                 1.1528
 IR Inten    --      9.8052                 0.1847                 6.8653

                     46                     47                     48
                      A                      A                      A
 Frequencies --   1283.2441              1302.9948              1308.4790
 Red. masses --      1.2436                 1.6865                 1.5635
 Frc consts  --      1.2066                 1.6871                 1.5772
 IR Inten    --      6.2874                 1.3396                11.9564

                     49                     50                     51
                      A                      A                      A
 Frequencies --   1348.7682              1360.5374              1379.0391
 Red. masses --      1.1969                 1.9367                 1.4604
 Frc consts  --      1.2828                 2.1122                 1.6364
 IR Inten    --     21.3685                13.3008                65.9668

                     52                     53                     54
                      A                      A                      A
 Frequencies --   1383.8201              1414.5986              1423.2585
 Red. masses --      1.4024                 1.3810                 1.8049
 Frc consts  --      1.5822                 1.6282                 2.1542
 IR Inten    --      3.9501                10.0554                56.1854

                     55                     56                     57
                      A                      A                      A
 Frequencies --   1438.6134              1456.4041              1474.1717
 Red. masses --      1.3255                 1.2169                 1.6125
 Frc consts  --      1.6162                 1.5207                 2.0647
 IR Inten    --     16.3131                 7.3530                32.6077

                     58                     59                     60
                      A                      A                      A
 Frequencies --   1486.8611              1494.4244              1513.4872
 Red. masses --      1.2162                 1.1981                 1.0708
 Frc consts  --      1.5841                 1.5764                 1.4451
 IR Inten    --      5.9607                86.9898                 1.0122

                     61                     62                     63
                      A                      A                      A
 Frequencies --   1522.5399              1526.6644              1530.3028
 Red. masses --      1.1343                 1.2260                 1.0591
 Frc consts  --      1.5492                 1.6836                 1.4613
 IR Inten    --      4.2460                12.1709                18.8517

                     64                     65                     66
                      A                      A                      A
 Frequencies --   1532.4923              1541.8255              1545.3596
 Red. masses --      1.0826                 1.1258                 1.0585
 Frc consts  --      1.4979                 1.5768                 1.4893
 IR Inten    --      4.3691                 1.2268                 7.0915

                     67                     68                     69
                      A                      A                      A
 Frequencies --   1775.3777              2971.4166              3044.2847
 Red. masses --      7.7476                 1.0717                 1.0615
 Frc consts  --     14.3879                 5.5751                 5.7964
 IR Inten    --    362.9993                91.9288                24.0472

                     70                     71                     72
                      A                      A                      A
 Frequencies --   3052.4782              3058.6528              3064.3423
 Red. masses --      1.0394                 1.0913                 1.0690
 Frc consts  --      5.7063                 6.0153                 5.9145
 IR Inten    --     28.7404                49.1442                10.7634

                     73                     74                     75
                      A                      A                      A
 Frequencies --   3076.6890              3094.0102              3112.5124
 Red. masses --      1.0957                 1.0643                 1.1017
 Frc consts  --      6.1109                 6.0026                 6.2886
 IR Inten    --     33.5736                22.3125                44.2964

                     76                     77                     78
                      A                      A                      A
 Frequencies --   3126.8971              3147.8031              3153.5459
 Red. masses --      1.1034                 1.1002                 1.0531
 Frc consts  --      6.3566                 6.4230                 6.1705
 IR Inten    --     24.7676                14.8646                13.2307

                     79                     80                     81
                      A                      A                      A
 Frequencies --   3159.1527              3167.7876              3234.6485
 Red. masses --      1.0617                 1.0955                 1.1195
 Frc consts  --      6.2431                 6.4772                 6.9012
 IR Inten    --      2.9015                19.6523                 0.6772

                     82                     83                     84
                      A                      A                      A
 Frequencies --   3248.6621              3544.2734              3575.9188
 Red. masses --      1.1165                 1.0747                 1.0673
 Frc consts  --      6.9424                 7.9538                 8.0409
 IR Inten    --     12.9287                14.6639               334.2225

 - Thermochemistry -
 -------------------
 Temperature   298.150 Kelvin.  Pressure   1.00000 Atm.
 Atom     1 has atomic number  6 and mass  12.00000

 Molecular mass:   187.12084 amu.
 Principal axes and moments of inertia in atomic units:
                           1         2         3
     Eigenvalues --  1244.114573753.858634167.09289
           X            1.00000  -0.00037   0.00225
           Y            0.00031   0.99970   0.02450
           Z           -0.00226  -0.02450   0.99970
 This molecule is an asymmetric top.
 Rotational symmetry number  1.
 Warning -- assumption of classical behavior for rotation
           may cause significant error
 Rotational temperatures (Kelvin)      0.06962     0.02307     0.02079
 Rotational constants (GHZ):           1.45062     0.48077     0.43309
 Zero-point vibrational energy     691353.9 (Joules/Mol)
                                  165.23756 (Kcal/Mol)
 Warning -- explicit consideration of  20 degrees of freedom as
           vibrations may cause significant error
 Vibrational temperatures:     60.56    79.39   110.69   135.51   158.59
          (Kelvin)            185.27   236.61   275.17   322.84   349.58
                              388.40   460.61   499.21   506.19   529.64
                              565.44   698.43   718.60   773.88   787.65
                              932.93   940.37  1040.32  1089.67  1148.32
                             1149.99  1242.28  1259.23  1330.68  1344.74
                             1362.51  1367.74  1394.91  1492.84  1500.93
                             1523.86  1538.97  1569.25  1577.32  1584.51
                             1623.69  1646.11  1693.27  1738.45  1809.49
                             1846.30  1874.72  1882.61  1940.58  1957.51
                             1984.13  1991.01  2035.29  2047.75  2069.84
                             2095.44  2121.00  2139.26  2150.14  2177.57
                             2190.60  2196.53  2201.76  2204.91  2218.34
                             2223.43  2554.37  4275.21  4380.05  4391.84
                             4400.72  4408.91  4426.67  4451.59  4478.21
                             4498.91  4528.99  4537.25  4545.32  4557.74
                             4653.94  4674.10  5099.42  5144.95

 Zero-point correction=                           0.263323 (Hartree/Particle)
 Thermal correction to Energy=                    0.277449
 Thermal correction to Enthalpy=                  0.278394
 Thermal correction to Gibbs Free Energy=         0.222171
 Sum of electronic and zero-point Energies=           -633.354552
 Sum of electronic and thermal Energies=              -633.340426
 Sum of electronic and thermal Enthalpies=            -633.339481
 Sum of electronic and thermal Free Energies=         -633.395704

                     E (Thermal)             CV                S
                      KCal/Mol        Cal/Mol-Kelvin    Cal/Mol-Kelvin
 Total                  174.102             52.632            118.331
 Electronic               0.000              0.000              0.000
 Translational            0.889              2.981             41.586
 Rotational               0.889              2.981             31.343
 Vibrational            172.325             46.671             45.402
 Vibration     1          0.595              1.980              5.158
 Vibration     2          0.596              1.976              4.623
 Vibration     3          0.599              1.965              3.968
 Vibration     4          0.603              1.953              3.571
 Vibration     5          0.606              1.941              3.265
 Vibration     6          0.611              1.924              2.964
 Vibration     7          0.623              1.886              2.498
 Vibration     8          0.634              1.852              2.216
 Vibration     9          0.649              1.804              1.923
 Vibration    10          0.659              1.774              1.781
 Vibration    11          0.674              1.729              1.597
 Vibration    12          0.706              1.635              1.309
 Vibration    13          0.725              1.581              1.180
 Vibration    14          0.728              1.572              1.158
 Vibration    15          0.741              1.538              1.088
 Vibration    16          0.760              1.485              0.989
 Vibration    17          0.841              1.282              0.696
 Vibration    18          0.855              1.251              0.659
 Vibration    19          0.893              1.166              0.570
 Vibration    20          0.903              1.145              0.549

                           ! Non-Optimized Parameters !
 Normal termination of Gaussian 16 at Wed Dec  9 22:36:25 2020.

 ----------------------------------------------------------------------
 # B3LYP/6-311++G(d,p) empiricaldispersion=gd3bj scf=xqc pop=npa geom=c
 heck
 ----------------------------------------------------------------------

 ---------------------------------------
 CID_103881092_JID_3088_Energie_neutraal
 ---------------------------------------
 Structure from the checkpoint file:  "JID_3088.chk"
 Charge =  0 Multiplicity = 1

 SCF Done:  E(RB3LYP) =  -633.813986019     A.U. after   14 cycles
 Normal termination of Gaussian 16 at Wed Dec  9 22:39:45 2020.

 ----------------------------------------------------------------------
 # B3LYP/6-311++G(d,p) empiricaldispersion=gd3bj scf=xqc pop=npa geom=c
 heck
 ----------------------------------------------------------------------

 -------------------------------------
 CID_103881092_JID_3088_Energie_kation
 -------------------------------------
 Structure from the checkpoint file:  "JID_3088.chk"
 Charge =  1 Multiplicity = 2

 SCF Done:  E(UB3LYP) =  -633.488041157     A.U. after   26 cycles
 Normal termination of Gaussian 16 at Wed Dec  9 22:48:27 2020.
 Gaussian 16:  ES64L-G16RevA.03 25-Dec-2016

 ----------------------------------------------------------------------
 # B3LYP/6-311++G(d,p) empiricaldispersion=gd3bj scf=xqc pop=npa geom=c
 heck
 ----------------------------------------------------------------------

 ------------------------------------
 CID_103881092_JID_3088_Energie_anion
 ------------------------------------
 Structure from the checkpoint file:  "JID_3088.chk"
 Charge = -1 Multiplicity = 2

                         Standard orientation:
 ---------------------------------------------------------------------
 Center     Atomic      Atomic             Coordinates (Angstroms)
 Number     Number       Type             X           Y           Z
 ---------------------------------------------------------------------
      1          6           0       -3.911765    0.623243   -0.264589
      2          6           0       -3.394496   -0.637701    0.438672
      3          6           0       -2.030268   -1.136618   -0.067521
      4          8           0       -0.940145   -0.865424    0.841947
      5          6           0       -0.622330    0.510541    1.023452
      6          6           0       -0.085605    1.195273   -0.243622
      7          8           0       -0.831187    1.877202   -0.939091
      8          7           0        1.248780    1.082561   -0.548480
      9          6           0        2.191811    0.091846   -0.097977
     10          6           0        3.560036    0.596681    0.292348
     11          6           0        2.611948    0.113328    1.355946
     12          6           0        2.155912   -1.237162   -0.847211
     13          8           0        0.875562   -1.806990   -0.955825
     14          1           0       -3.181704    1.436494   -0.236745
     15          1           0       -4.847081    0.969195    0.189674
     16          1           0       -4.113238    0.415439   -1.322110
     17          1           0       -3.315229   -0.479674    1.522058
     18          1           0       -4.127644   -1.444147    0.311328
     19          1           0       -2.016239   -2.226067   -0.149053
     20          1           0       -1.794594   -0.723855   -1.055509
     21          1           0       -1.507876    1.077909    1.324494
     22          1           0        0.104139    0.533360    1.835332
     23          1           0        1.457687    1.512623   -1.445081
     24          1           0        4.415898   -0.020512    0.033063
     25          1           0        3.730186    1.666535    0.223552
     26          1           0        2.179080    0.866460    2.004973
     27          1           0        2.803263   -0.842808    1.834606
     28          1           0        2.510935   -1.075654   -1.873435
     29          1           0        2.875111   -1.919547   -0.361077
     30          1           0        0.400538   -1.678571   -0.109938
 ---------------------------------------------------------------------

 SCF Done:  E(UB3LYP) =  -633.799159332     A.U. after   33 cycles
 SCF Done:  E(UB3LYP) =  -633.799159332     a.u. after    1 cycles

 The electronic state is 2-A.
 Alpha  occ. eigenvalues --  -19.05128 -19.01312 -19.00049 -14.24726 -10.18227
 Alpha  occ. eigenvalues --  -10.13392 -10.13040 -10.12539 -10.12140 -10.08456
 Alpha  occ. eigenvalues --  -10.08191 -10.07764 -10.06298  -0.96272  -0.94314
 Alpha  occ. eigenvalues --   -0.92082  -0.84360  -0.75511  -0.69260  -0.64312
 Alpha  occ. eigenvalues --   -0.60471  -0.57464  -0.52593  -0.51775  -0.50706
 Alpha  occ. eigenvalues --   -0.47174  -0.43833  -0.41788  -0.40792  -0.40446
 Alpha  occ. eigenvalues --   -0.38290  -0.36554  -0.34811  -0.34427  -0.33308
 Alpha  occ. eigenvalues --   -0.32606  -0.32423  -0.31645  -0.29657  -0.28985
 Alpha  occ. eigenvalues --   -0.27700  -0.26079  -0.25492  -0.24477  -0.23445
 Alpha  occ. eigenvalues --   -0.22184  -0.21210  -0.19933  -0.18067  -0.16005
 Alpha  occ. eigenvalues --   -0.15761   0.04470
 Alpha virt. eigenvalues --    0.06113   0.07223   0.07627   0.08266   0.08664
 Alpha virt. eigenvalues --    0.08801   0.09203   0.10353   0.10865   0.11073
 Alpha virt. eigenvalues --    0.11637   0.12144   0.12707   0.13453   0.14145

  Beta  occ. eigenvalues --  -19.05126 -19.01309 -19.00039 -14.24714 -10.18212
  Beta  occ. eigenvalues --  -10.13374 -10.13040 -10.12533 -10.12118 -10.08413
  Beta  occ. eigenvalues --  -10.08150 -10.07743 -10.06285  -0.96260  -0.94299
  Beta  occ. eigenvalues --   -0.92073  -0.84341  -0.75483  -0.69233  -0.64276
  Beta  occ. eigenvalues --   -0.60432  -0.57429  -0.52543  -0.51678  -0.50652
  Beta  occ. eigenvalues --   -0.47120  -0.43810  -0.41760  -0.40755  -0.40371
  Beta  occ. eigenvalues --   -0.38254  -0.36512  -0.34785  -0.34403  -0.33279
  Beta  occ. eigenvalues --   -0.32585  -0.32391  -0.31616  -0.29613  -0.28960
  Beta  occ. eigenvalues --   -0.27653  -0.26043  -0.25466  -0.24454  -0.23430
  Beta  occ. eigenvalues --   -0.22142  -0.21180  -0.19920  -0.18047  -0.15979
  Beta  occ. eigenvalues --   -0.15744
  Beta virt. eigenvalues --    0.06574   0.07254   0.07854   0.08239   0.08857
  Beta virt. eigenvalues --    0.09146   0.09425   0.09437   0.10929   0.11226
  Beta virt. eigenvalues --    0.11463   0.11981   0.12496   0.13086   0.13895

 Mulliken charges and spin densities:
               1          2
     1  C    0.125078  -0.640895
     2  C   -0.213859  -0.022646
     3  C   -0.086126  -0.163860
     4  O   -0.106463   0.018365
     5  C    0.700065  -0.903127
     6  C    0.018837   0.002278
     7  O   -0.278028   0.007228
     8  N   -0.043294  -0.018185
     9  C   -2.797039   2.552887
    10  C    0.606443  -0.799285
    11  C    1.414292  -1.722254
    12  C    1.745242  -2.201558
    13  O   -0.272959   0.022575
    14  H    0.140390   0.047034
    15  H   -0.106064   0.228183
    16  H    0.059713   0.066394
    17  H   -0.044805   0.205304
    18  H   -0.278103   0.428708
    19  H   -0.068654   0.218914
    20  H    0.214343  -0.017480
    21  H   -0.202103   0.401209
    22  H   -0.403557   0.561073
    23  H    0.096576   0.202157
    24  H   -0.575638   0.746333
    25  H   -0.319144   0.479168
    26  H    0.075769   0.069894
    27  H   -0.487523   0.677617
    28  H   -0.127663   0.300314
    29  H   -0.147770   0.298114
    30  H    0.362044  -0.044462
 Sum of Mulliken charges =  -1.00000   1.00000

 Dipole moment (field-independent basis, Debye):
    X=             -3.3416    Y=              0.0320    Z=             -1.9690  Tot=              3.8787
 Quadrupole moment (field-independent basis, Debye-Ang):
   XX=           -161.4243   YY=           -120.5131   ZZ=           -117.2365
   XY=              2.6460   XZ=             -3.8412   YZ=             -0.2057

 Summary of Natural Population Analysis:

                                       Natural Population
                Natural  -----------------------------------------------
    Atom  No    Charge         Core      Valence    Rydberg      Total
 -----------------------------------------------------------------------
      C    1   -0.29187      0.99966     2.28594    0.00628     3.29187
      C    2   -0.21089      0.99964     2.20370    0.00755     3.21089
      C    3   -0.01421      0.99956     2.00200    0.01264     3.01421
      O    4   -0.30343      0.99989     3.29402    0.00952     4.30343
      C    5   -0.05195      0.99953     2.03976    0.01266     3.05195
      C    6    0.33237      0.99968     1.64462    0.02333     2.66763
      O    7   -0.31997      0.99988     3.31416    0.00593     4.31997
      N    8   -0.31328      0.99964     2.80212    0.01153     3.81328
      C    9    0.02842      0.99952     1.95741    0.01465     2.97158
      C   10   -0.19010      0.99958     2.18013    0.01038     3.19010
      C   11   -0.19204      0.99958     2.18172    0.01074     3.19204
      C   12   -0.00501      0.99954     1.99205    0.01342     3.00501
      O   13   -0.37835      0.99989     3.37146    0.00700     4.37835
      H   14    0.11040      0.00000     0.38838    0.00122     0.38960
      H   15    0.09579      0.00000     0.40339    0.00082     0.40421
      H   16    0.09487      0.00000     0.40432    0.00081     0.40513
      H   17    0.10169      0.00000     0.39698    0.00133     0.39831
      H   18    0.09887      0.00000     0.39984    0.00129     0.40113
      H   19    0.09316      0.00000     0.40575    0.00109     0.40684
      H   20    0.08973      0.00000     0.40891    0.00136     0.41027
      H   21    0.09443      0.00000     0.40411    0.00146     0.40557
      H   22    0.10203      0.00000     0.39581    0.00216     0.39797
      H   23    0.19395      0.00000     0.30369    0.00237     0.30605
      H   24    0.10772      0.00000     0.38964    0.00264     0.39228
      H   25    0.10867      0.00000     0.38955    0.00178     0.39133
      H   26    0.10758      0.00000     0.39045    0.00197     0.39242
      H   27    0.10925      0.00000     0.38882    0.00193     0.39075
      H   28    0.08384      0.00000     0.41469    0.00147     0.41616
      H   29    0.08042      0.00000     0.41784    0.00174     0.41958
      H   30    0.23794      0.00000     0.25659    0.00547     0.26206
 =======================================================================
   * Total *    0.00000     12.99560    37.82785    0.17654    51.00000

 Normal termination of Gaussian 16 at Wed Dec  9 22:59:20 2020.
