 Gaussian 16, Revision A.03,

 -----------------------------------------------------------
 # opt freq B3LYP/6-31G(d) empiricaldispersion=gd3bj scf=xqc
 -----------------------------------------------------------

 -------------------------------
 CID_108409959_JID_7504_neutraal
 -------------------------------
 Symbolic Z-matrix:
 Charge =  0 Multiplicity = 1

 SCF Done:  E(RB3LYP) =  -1106.68451904     A.U. after   15 cycles
 SCF Done:  E(RB3LYP) =  -1106.68924901     A.U. after   13 cycles
 SCF Done:  E(RB3LYP) =  -1106.69000853     A.U. after   12 cycles
 SCF Done:  E(RB3LYP) =  -1106.69000283     A.U. after   12 cycles
 SCF Done:  E(RB3LYP) =  -1106.69038953     A.U. after   12 cycles
 SCF Done:  E(RB3LYP) =  -1106.69048084     A.U. after   12 cycles
 SCF Done:  E(RB3LYP) =  -1106.69055024     A.U. after   11 cycles
 SCF Done:  E(RB3LYP) =  -1106.69055116     A.U. after   11 cycles
 SCF Done:  E(RB3LYP) =  -1106.69058965     A.U. after   10 cycles
 SCF Done:  E(RB3LYP) =  -1106.69060377     A.U. after   11 cycles
 SCF Done:  E(RB3LYP) =  -1106.69061366     A.U. after   11 cycles
 SCF Done:  E(RB3LYP) =  -1106.69061733     A.U. after   10 cycles
 SCF Done:  E(RB3LYP) =  -1106.69062012     A.U. after   10 cycles
 SCF Done:  E(RB3LYP) =  -1106.69062148     A.U. after    9 cycles
 SCF Done:  E(RB3LYP) =  -1106.69062223     A.U. after    8 cycles
 SCF Done:  E(RB3LYP) =  -1106.69062244     A.U. after    7 cycles
 Optimization completed.
    -- Stationary point found.
 Normal termination of Gaussian 16 at Fri Dec 11 12:27:50 2020.

 --------------------------------------------------------------------
 #N Geom=AllCheck Guess=TCheck SCRF=Check GenChk RB3LYP/6-31G(d) Freq
 --------------------------------------------------------------------

 Structure from the checkpoint file:  "JID_7504.chk"
 -------------------------------
 CID_108409959_JID_7504_neutraal
 -------------------------------
 Charge =  0 Multiplicity = 1

 SCF Done:  E(RB3LYP) =  -1106.69062244     A.U. after    1 cycles

  Exact polarizability: 225.267   7.009 155.958  -3.900   7.503 113.644
 Approx polarizability: 336.979   8.708 262.890  -0.195  10.404 181.879

                      1                      2                      3
                      A                      A                      A
 Frequencies --     26.3072                54.7935                60.0891
 Red. masses --      5.2217                 7.2145                 4.7391
 Frc consts  --      0.0021                 0.0128                 0.0101
 IR Inten    --      0.2325                 0.8107                 0.7025

                      4                      5                      6
                      A                      A                      A
 Frequencies --     99.0429               115.1106               137.6703
 Red. masses --      5.4767                 1.9479                 1.0865
 Frc consts  --      0.0317                 0.0152                 0.0121
 IR Inten    --      0.2988                 1.0371                 0.0986

                      7                      8                      9
                      A                      A                      A
 Frequencies --    139.9388               154.5946               166.6947
 Red. masses --      3.0797                 1.8318                 1.8591
 Frc consts  --      0.0355                 0.0258                 0.0304
 IR Inten    --      1.2821                 0.4075                 0.6132

                     10                     11                     12
                      A                      A                      A
 Frequencies --    182.6198               218.5808               248.1511
 Red. masses --      1.7852                 3.2631                 4.5057
 Frc consts  --      0.0351                 0.0919                 0.1635
 IR Inten    --      0.1576                 1.1095                 0.8837

                     13                     14                     15
                      A                      A                      A
 Frequencies --    280.8814               298.3107               315.4081
 Red. masses --      3.9140                 2.5965                 4.1348
 Frc consts  --      0.1819                 0.1361                 0.2424
 IR Inten    --      2.0289                 0.6161                 1.7417

                     16                     17                     18
                      A                      A                      A
 Frequencies --    331.1543               369.8477               399.7919
 Red. masses --      3.2825                 5.2573                 7.0080
 Frc consts  --      0.2121                 0.4237                 0.6600
 IR Inten    --      1.1178                 2.9108                 0.8649

                     19                     20                     21
                      A                      A                      A
 Frequencies --    461.1295               474.6209               500.1152
 Red. masses --      3.4085                 3.9947                 3.5326
 Frc consts  --      0.4270                 0.5302                 0.5206
 IR Inten    --      1.3023                 2.1668                 1.5566

                     22                     23                     24
                      A                      A                      A
 Frequencies --    529.9431               574.6142               597.5536
 Red. masses --      8.4197                 3.1700                 2.8471
 Frc consts  --      1.3932                 0.6167                 0.5990
 IR Inten    --      0.5812                 7.5026                15.5855

                     25                     26                     27
                      A                      A                      A
 Frequencies --    600.7892               620.8113               660.3696
 Red. masses --      5.1222                 3.1739                 5.3507
 Frc consts  --      1.0893                 0.7207                 1.3748
 IR Inten    --      5.3043                13.0427                35.7212

                     28                     29                     30
                      A                      A                      A
 Frequencies --    686.5721               693.3288               733.9293
 Red. masses --      2.5881                 5.6940                 3.6054
 Frc consts  --      0.7188                 1.6127                 1.1442
 IR Inten    --     62.8102                50.3638                 0.3850

                     31                     32                     33
                      A                      A                      A
 Frequencies --    744.7271               785.4085               794.4551
 Red. masses --      5.8281                 2.3582                 3.4940
 Frc consts  --      1.9045                 0.8571                 1.2993
 IR Inten    --      2.1908                42.3204                 2.1999

                     34                     35                     36
                      A                      A                      A
 Frequencies --    819.3427               836.0763               887.5947
 Red. masses --      2.2764                 5.1037                 1.3991
 Frc consts  --      0.9004                 2.1020                 0.6494
 IR Inten    --      1.4900                20.4557                21.2728

                     37                     38                     39
                      A                      A                      A
 Frequencies --    902.5555               930.8248               953.4532
 Red. masses --      1.3998                 4.2208                 4.3199
 Frc consts  --      0.6718                 2.1547                 2.3138
 IR Inten    --      3.7318                14.1873                32.9155

                     40                     41                     42
                      A                      A                      A
 Frequencies --   1020.9706              1034.1209              1059.8012
 Red. masses --      1.4926                 1.4927                 1.4326
 Frc consts  --      0.9167                 0.9405                 0.9480
 IR Inten    --      1.1547                 8.1406                 3.7065

                     43                     44                     45
                      A                      A                      A
 Frequencies --   1063.1942              1074.0155              1085.6834
 Red. masses --      1.5416                 1.5162                 1.5859
 Frc consts  --      1.0267                 1.0304                 1.1013
 IR Inten    --     10.1565                 7.7471                 0.1952

                     46                     47                     48
                      A                      A                      A
 Frequencies --   1131.2783              1185.2322              1226.5132
 Red. masses --      4.0805                 3.1831                 3.4734
 Frc consts  --      3.0768                 2.6346                 3.0785
 IR Inten    --     30.8261               359.1041                 3.9094

                     49                     50                     51
                      A                      A                      A
 Frequencies --   1235.2804              1262.4462              1300.8733
 Red. masses --      1.6135                 2.0753                 3.6307
 Frc consts  --      1.4506                 1.9487                 3.6200
 IR Inten    --      2.5373                30.9499                 9.4169

                     52                     53                     54
                      A                      A                      A
 Frequencies --   1321.4935              1332.5561              1347.7087
 Red. masses --      1.4229                 2.0345                 6.4324
 Frc consts  --      1.4640                 2.1285                 6.8836
 IR Inten    --      1.6688                13.6771                 1.3070

                     55                     56                     57
                      A                      A                      A
 Frequencies --   1409.5632              1430.3250              1437.9126
 Red. masses --      3.5179                 2.2255                 1.2430
 Frc consts  --      4.1181                 2.6826                 1.5142
 IR Inten    --     30.3388                37.8176                 1.8296

                     58                     59                     60
                      A                      A                      A
 Frequencies --   1445.3197              1450.8506              1506.7509
 Red. masses --      1.8471                 1.2288                 1.0454
 Frc consts  --      2.2733                 1.5239                 1.3983
 IR Inten    --     12.9326                 0.2496                 0.0836

                     61                     62                     63
                      A                      A                      A
 Frequencies --   1512.8928              1514.9562              1519.6246
 Red. masses --      1.2231                 2.6685                 1.3296
 Frc consts  --      1.6495                 3.6085                 1.8090
 IR Inten    --     10.1416               101.6411                13.7911

                     64                     65                     66
                      A                      A                      A
 Frequencies --   1522.2365              1523.6591              1533.4876
 Red. masses --      1.0446                 1.1434                 1.1436
 Frc consts  --      1.4262                 1.5640                 1.5845
 IR Inten    --     16.3066                 0.9948                24.1730

                     67                     68                     69
                      A                      A                      A
 Frequencies --   1544.4229              1565.1124              1612.6611
 Red. masses --      3.5058                 4.8089                 5.9126
 Frc consts  --      4.9269                 6.9404                 9.0598
 IR Inten    --     49.0019                13.4503                 0.3936

                     70                     71                     72
                      A                      A                      A
 Frequencies --   1674.8906              1810.5600              3038.1932
 Red. masses --      6.0178                 9.6373                 1.0389
 Frc consts  --      9.9463                18.6136                 5.6501
 IR Inten    --      8.2327               235.3738                10.4548

                     73                     74                     75
                      A                      A                      A
 Frequencies --   3039.2292              3058.3095              3085.2737
 Red. masses --      1.0381                 1.0353                 1.1002
 Frc consts  --      5.6495                 5.7053                 6.1706
 IR Inten    --     63.3342                21.7885                37.9301

                     76                     77                     78
                      A                      A                      A
 Frequencies --   3086.9880              3122.6364              3127.9325
 Red. masses --      1.1001                 1.1009                 1.0999
 Frc consts  --      6.1767                 6.3248                 6.3406
 IR Inten    --      0.7164                 8.7851                26.1316

                     79                     80                     81
                      A                      A                      A
 Frequencies --   3130.3093              3130.3920              3173.6390
 Red. masses --      1.1001                 1.1023                 1.0897
 Frc consts  --      6.3512                 6.3644                 6.4664
 IR Inten    --     14.6680                11.2937                27.7826

                     82                     83                     84
                      A                      A                      A
 Frequencies --   3184.1339              3242.8601              3692.3514
 Red. masses --      1.0901                 1.0942                 1.0639
 Frc consts  --      6.5120                 6.7796                 8.5461
 IR Inten    --      7.6128                 1.4644                69.2375

 - Thermochemistry -
 -------------------
 Temperature   298.150 Kelvin.  Pressure   1.00000 Atm.
 Atom     1 has atomic number  6 and mass  12.00000

 Molecular mass:   247.06670 amu.
 Principal axes and moments of inertia in atomic units:
                           1         2         3
     Eigenvalues --  2525.975776248.025817272.29282
           X            0.99995  -0.00301  -0.00911
           Y            0.00362   0.99764   0.06857
           Z            0.00888  -0.06860   0.99760
 This molecule is an asymmetric top.
 Rotational symmetry number  1.
 Warning -- assumption of classical behavior for rotation
           may cause significant error
 Rotational temperatures (Kelvin)      0.03429     0.01386     0.01191
 Rotational constants (GHZ):           0.71447     0.28885     0.24817
 Zero-point vibrational energy     617248.2 (Joules/Mol)
                                  147.52587 (Kcal/Mol)
 Warning -- explicit consideration of  25 degrees of freedom as
           vibrations may cause significant error
 Vibrational temperatures:     37.85    78.84    86.45   142.50   165.62
          (Kelvin)            198.08   201.34   222.43   239.84   262.75
                              314.49   357.03   404.13   429.20   453.80
                              476.46   532.13   575.21   663.46   682.87
                              719.55   762.47   826.74   859.75   864.40
                              893.21   950.12   987.82   997.55  1055.96
                             1071.50  1130.03  1143.04  1178.85  1202.93
                             1277.05  1298.58  1339.25  1371.81  1468.95
                             1487.87  1524.82  1529.70  1545.27  1562.06
                             1627.66  1705.28  1764.68  1777.29  1816.38
                             1871.67  1901.33  1917.25  1939.05  2028.05
                             2057.92  2068.84  2079.49  2087.45  2167.88
                             2176.72  2179.68  2186.40  2190.16  2192.21
                             2206.35  2222.08  2251.85  2320.26  2409.79
                             2604.99  4371.28  4372.77  4400.23  4439.02
                             4441.49  4492.78  4500.40  4503.82  4503.94
                             4566.16  4581.26  4665.75  5312.47

 Zero-point correction=                           0.235097 (Hartree/Particle)
 Thermal correction to Energy=                    0.251397
 Thermal correction to Enthalpy=                  0.252341
 Thermal correction to Gibbs Free Energy=         0.190568
 Sum of electronic and zero-point Energies=          -1106.455525
 Sum of electronic and thermal Energies=             -1106.439225
 Sum of electronic and thermal Enthalpies=           -1106.438281
 Sum of electronic and thermal Free Energies=        -1106.500055

                     E (Thermal)             CV                S
                      KCal/Mol        Cal/Mol-Kelvin    Cal/Mol-Kelvin
 Total                  157.754             60.941            130.014
 Electronic               0.000              0.000              0.000
 Translational            0.889              2.981             42.414
 Rotational               0.889              2.981             33.106
 Vibrational            155.977             54.979             54.493
 Vibration     1          0.593              1.985              6.090
 Vibration     2          0.596              1.976              4.636
 Vibration     3          0.597              1.973              4.454
 Vibration     4          0.604              1.950              3.473
 Vibration     5          0.608              1.937              3.181
 Vibration     6          0.614              1.916              2.836
 Vibration     7          0.615              1.913              2.805
 Vibration     8          0.620              1.898              2.615
 Vibration     9          0.624              1.883              2.472
 Vibration    10          0.630              1.863              2.301
 Vibration    11          0.646              1.813              1.971
 Vibration    12          0.662              1.766              1.744
 Vibration    13          0.681              1.709              1.528
 Vibration    14          0.691              1.677              1.426
 Vibration    15          0.703              1.644              1.334
 Vibration    16          0.714              1.613              1.254
 Vibration    17          0.742              1.534              1.080
 Vibration    18          0.766              1.471              0.963
 Vibration    19          0.819              1.336              0.763
 Vibration    20          0.831              1.306              0.725
 Vibration    21          0.856              1.250              0.658
 Vibration    22          0.885              1.184              0.587
 Vibration    23          0.931              1.086              0.495
 Vibration    24          0.955              1.037              0.454
 Vibration    25          0.959              1.030              0.448

 Optimization completed.
    -- Stationary point found.
 Normal termination of Gaussian 16 at Fri Dec 11 12:38:29 2020.

 ----------------------------------------------------------------------
 # B3LYP/6-311++G(d,p) empiricaldispersion=gd3bj scf=xqc pop=npa geom=c
 heck
 ----------------------------------------------------------------------

 ---------------------------------------
 CID_108409959_JID_7504_Energie_neutraal
 ---------------------------------------
 Structure from the checkpoint file:  "JID_7504.chk"
 Charge =  0 Multiplicity = 1

 SCF Done:  E(RB3LYP) =  -1106.91156190     A.U. after   16 cycles
 Normal termination of Gaussian 16 at Fri Dec 11 12:43:02 2020.

 ----------------------------------------------------------------------
 # B3LYP/6-311++G(d,p) empiricaldispersion=gd3bj scf=xqc pop=npa geom=c
 heck
 ----------------------------------------------------------------------

 -------------------------------------
 CID_108409959_JID_7504_Energie_kation
 -------------------------------------
 Structure from the checkpoint file:  "JID_7504.chk"
 Charge =  1 Multiplicity = 2

 SCF Done:  E(UB3LYP) =  -1106.61723145     A.U. after   28 cycles
 Normal termination of Gaussian 16 at Fri Dec 11 12:53:53 2020.
 Gaussian 16:  ES64L-G16RevA.03 25-Dec-2016

 ----------------------------------------------------------------------
 # B3LYP/6-311++G(d,p) empiricaldispersion=gd3bj scf=xqc pop=npa geom=c
 heck
 ----------------------------------------------------------------------

 ------------------------------------
 CID_108409959_JID_7504_Energie_anion
 ------------------------------------
 Structure from the checkpoint file:  "JID_7504.chk"
 Charge = -1 Multiplicity = 2

                         Standard orientation:
 ---------------------------------------------------------------------
 Center     Atomic      Atomic             Coordinates (Angstroms)
 Number     Number       Type             X           Y           Z
 ---------------------------------------------------------------------
      1          6           0        4.629494    0.649815    0.174066
      2          6           0        3.155214    0.335422    0.163503
      3          6           0        2.278068    1.038395    0.991416
      4          6           0        0.901727    0.799619    1.023179
      5          6           0        0.393883   -0.201554    0.175200
      6          6           0        1.271243   -0.927439   -0.643136
      7          6           0        2.640766   -0.673432   -0.673860
      8          6           0        3.545382   -1.465454   -1.583840
      9          6           0       -1.035728   -0.564079    0.162942
     10          6           0       -2.168022    0.124309   -0.235236
     11          7           0       -3.366609   -0.554415   -0.123538
     12          6           0       -3.182825   -1.745332    0.350372
     13         16           0       -1.517824   -2.151096    0.705960
     14          6           0       -2.143205    1.482305   -0.821577
     15          8           0       -1.150814    2.176605   -0.935824
     16          8           0       -3.362797    1.889181   -1.240207
     17          6           0        0.017523    1.602292    1.940439
     18          1           0        4.980093    0.965035   -0.817001
     19          1           0        4.857577    1.452534    0.881030
     20          1           0        5.227670   -0.226589    0.454758
     21          1           0        2.683254    1.807466    1.645429
     22          1           0        0.862394   -1.701971   -1.286976
     23          1           0        4.065769   -0.816662   -2.299918
     24          1           0        4.321625   -1.998457   -1.019937
     25          1           0        2.978960   -2.206337   -2.155514
     26          1           0       -3.979413   -2.459926    0.522726
     27          1           0       -3.218407    2.781055   -1.607828
     28          1           0        0.600042    2.043424    2.754885
     29          1           0       -0.464155    2.413891    1.385075
     30          1           0       -0.776193    0.989493    2.380120
 ---------------------------------------------------------------------

 SCF Done:  E(UB3LYP) =  -1106.92116107     A.U. after   30 cycles

 The electronic state is 2-A.
 Alpha  occ. eigenvalues --  -88.72444 -19.01618 -18.94603 -14.17065 -10.13409
 Alpha  occ. eigenvalues --  -10.07814 -10.06559 -10.06504 -10.05464 -10.05214
 Alpha  occ. eigenvalues --  -10.04798 -10.04616 -10.04502 -10.04213 -10.03873
 Alpha  occ. eigenvalues --  -10.03844 -10.03438  -7.81137  -5.77409  -5.77063
 Alpha  occ. eigenvalues --   -5.76784  -0.95541  -0.86038  -0.81427  -0.74060
 Alpha  occ. eigenvalues --   -0.68097  -0.65586  -0.63797  -0.61159  -0.60029
 Alpha  occ. eigenvalues --   -0.57021  -0.53523  -0.50145  -0.47806  -0.45386
 Alpha  occ. eigenvalues --   -0.43507  -0.39942  -0.36693  -0.36296  -0.33678
 Alpha  occ. eigenvalues --   -0.33449  -0.33030  -0.32044  -0.30897  -0.30742
 Alpha  occ. eigenvalues --   -0.29905  -0.29105  -0.28664  -0.28604  -0.27719
 Alpha  occ. eigenvalues --   -0.26678  -0.25434  -0.25305  -0.25099  -0.22934
 Alpha  occ. eigenvalues --   -0.21599  -0.21424  -0.20778  -0.17648  -0.14417
 Alpha  occ. eigenvalues --   -0.13685  -0.13248  -0.12052  -0.11140  -0.09514
 Alpha  occ. eigenvalues --    0.04683
 Alpha virt. eigenvalues --    0.07011   0.08666   0.09354   0.09929   0.10045
 Alpha virt. eigenvalues --    0.10204   0.11210   0.11499   0.11659   0.12223
 Alpha virt. eigenvalues --    0.12508   0.12746   0.13252   0.14013   0.14211

  Beta  occ. eigenvalues --  -88.72374 -19.01536 -18.94396 -14.17148 -10.13197
  Beta  occ. eigenvalues --  -10.07664 -10.06568 -10.06500 -10.05490 -10.05078
  Beta  occ. eigenvalues --  -10.04708 -10.04616 -10.04427 -10.04242 -10.03784
  Beta  occ. eigenvalues --  -10.03443 -10.03233  -7.81074  -5.77379  -5.77035
  Beta  occ. eigenvalues --   -5.76549  -0.95275  -0.85709  -0.81301  -0.73897
  Beta  occ. eigenvalues --   -0.67770  -0.65362  -0.63546  -0.60720  -0.59892
  Beta  occ. eigenvalues --   -0.56913  -0.53411  -0.49642  -0.47645  -0.45089
  Beta  occ. eigenvalues --   -0.43297  -0.39603  -0.36543  -0.36121  -0.33501
  Beta  occ. eigenvalues --   -0.33164  -0.32922  -0.31960  -0.30767  -0.29902
  Beta  occ. eigenvalues --   -0.29831  -0.28937  -0.28575  -0.28425  -0.27670
  Beta  occ. eigenvalues --   -0.26495  -0.25206  -0.25052  -0.24640  -0.22552
  Beta  occ. eigenvalues --   -0.21462  -0.21232  -0.20498  -0.16710  -0.13724
  Beta  occ. eigenvalues --   -0.13392  -0.12775  -0.11710  -0.10198  -0.08185
  Beta virt. eigenvalues --    0.06944   0.08580   0.09323   0.09841   0.10017
  Beta virt. eigenvalues --    0.10098   0.10606   0.11162   0.11683   0.12187
  Beta virt. eigenvalues --    0.12610   0.12728   0.13251   0.13437   0.14167

 Mulliken charges and spin densities:
               1          2
     1  C   -0.521052  -0.094220
     2  C    0.779635   0.096484
     3  C   -0.960799  -0.028902
     4  C    0.760544   0.053259
     5  C    0.876091  -0.010886
     6  C   -1.091748   0.084967
     7  C    0.405159   0.029536
     8  C   -0.648535  -0.011418
     9  C    0.673509   0.338895
    10  C   -0.957519   0.063953
    11  N    0.016063  -0.046384
    12  C    0.269167   0.088467
    13  S   -0.686762   0.166817
    14  C   -0.553023   0.116120
    15  O   -0.368277   0.067200
    16  O   -0.173454   0.015646
    17  C   -0.651929  -0.010154
    18  H    0.131884  -0.001008
    19  H    0.124091   0.017542
    20  H    0.094356   0.037215
    21  H    0.049707   0.000435
    22  H    0.140279  -0.003659
    23  H    0.117935   0.011519
    24  H    0.117494   0.005985
    25  H    0.143967   0.001453
    26  H    0.209684  -0.005190
    27  H    0.247055  -0.000341
    28  H    0.115034   0.005881
    29  H    0.201762   0.001004
    30  H    0.139682   0.009784
 Sum of Mulliken charges =  -1.00000   1.00000

 Dipole moment (field-independent basis, Debye):
    X=              4.5296    Y=             -0.5640    Z=              0.5403  Tot=              4.5964
 Quadrupole moment (field-independent basis, Debye-Ang):
   XX=           -146.8739   YY=           -122.1084   ZZ=           -117.2991
   XY=             -0.2816   XZ=             -2.8884   YZ=              3.4255

 Summary of Natural Population Analysis:

                                       Natural Population
                Natural  -----------------------------------------------
    Atom  No    Charge         Core      Valence    Rydberg      Total
 -----------------------------------------------------------------------
      C    1   -0.29233      0.99965     2.28791    0.00477     3.29233
      C    2   -0.00653      0.99950     1.99679    0.01023     3.00653
      C    3   -0.08809      0.99948     2.08369    0.00491     3.08809
      C    4    0.01406      0.99951     1.97654    0.00988     2.98594
      C    5   -0.02982      0.99939     2.01713    0.01331     3.02982
      C    6   -0.06936      0.99949     2.06145    0.00842     3.06936
      C    7   -0.03437      0.99948     2.02746    0.00743     3.03437
      C    8   -0.28985      0.99965     2.28581    0.00439     3.28985
      C    9    0.03230      0.99945     1.95693    0.01131     2.96770
      C   10    0.00159      0.99936     1.98518    0.01387     2.99841
      N   11   -0.23945      0.99967     2.72823    0.01155     3.73945
      C   12   -0.04888      0.99967     2.03178    0.01743     3.04888
      S   13    0.19351      4.99944     2.78655    0.02049     7.80649
      C   14    0.41624      0.99966     1.55987    0.02424     2.58376
      O   15   -0.31452      0.99987     3.30665    0.00800     4.31452
      O   16   -0.33935      0.99988     3.33305    0.00642     4.33935
      C   17   -0.29564      0.99960     2.29079    0.00525     3.29564
      H   18    0.09804      0.00000     0.40087    0.00109     0.40196
      H   19    0.09767      0.00000     0.40130    0.00103     0.40233
      H   20    0.09743      0.00000     0.40121    0.00137     0.40257
      H   21    0.08625      0.00000     0.41217    0.00158     0.41375
      H   22    0.09581      0.00000     0.40264    0.00154     0.40419
      H   23    0.09679      0.00000     0.40213    0.00109     0.40321
      H   24    0.09587      0.00000     0.40308    0.00106     0.40413
      H   25    0.09976      0.00000     0.39938    0.00086     0.40024
      H   26    0.08560      0.00000     0.41299    0.00141     0.41440
      H   27    0.22456      0.00000     0.26983    0.00561     0.27544
      H   28    0.08952      0.00000     0.40912    0.00137     0.41048
      H   29    0.11652      0.00000     0.38226    0.00122     0.38348
      H   30    0.10673      0.00000     0.39226    0.00101     0.39327
 =======================================================================
   * Total *    0.00005     20.99275    43.80506    0.20214    64.99995

 Normal termination of Gaussian 16 at Fri Dec 11 13:05:09 2020.
