 Gaussian 16, Revision A.03,

 -----------------------------------------------------------
 # opt freq B3LYP/6-31G(d) empiricaldispersion=gd3bj scf=xqc
 -----------------------------------------------------------

 ------------------------------
 CID_62034664_JID_8333_neutraal
 ------------------------------
 Symbolic Z-matrix:
 Charge =  0 Multiplicity = 1

 SCF Done:  E(RB3LYP) =  -1581.43653049     A.U. after   15 cycles
 SCF Done:  E(RB3LYP) =  -1581.44816216     A.U. after   12 cycles
 SCF Done:  E(RB3LYP) =  -1581.44997923     A.U. after   12 cycles
 SCF Done:  E(RB3LYP) =  -1581.45049550     A.U. after   12 cycles
 SCF Done:  E(RB3LYP) =  -1581.45078646     A.U. after   13 cycles
 SCF Done:  E(RB3LYP) =  -1581.45091397     A.U. after   12 cycles
 SCF Done:  E(RB3LYP) =  -1581.45105169     A.U. after   12 cycles
 SCF Done:  E(RB3LYP) =  -1581.45130299     A.U. after   13 cycles
 SCF Done:  E(RB3LYP) =  -1581.45152274     A.U. after   13 cycles
 SCF Done:  E(RB3LYP) =  -1581.45177595     A.U. after   13 cycles
 SCF Done:  E(RB3LYP) =  -1581.45213011     A.U. after   11 cycles
 SCF Done:  E(RB3LYP) =  -1581.45212975     A.U. after    8 cycles
 SCF Done:  E(RB3LYP) =  -1581.45212969     A.U. after    8 cycles
 SCF Done:  E(RB3LYP) =  -1581.45212975     A.U. after    8 cycles
 Optimization completed.
    -- Stationary point found.
 Normal termination of Gaussian 16 at Sun Dec 13 21:00:12 2020.

 --------------------------------------------------------------------
 #N Geom=AllCheck Guess=TCheck SCRF=Check GenChk RB3LYP/6-31G(d) Freq
 --------------------------------------------------------------------

 Structure from the checkpoint file:  "JID_8333.chk"
 ------------------------------
 CID_62034664_JID_8333_neutraal
 ------------------------------
 Charge =  0 Multiplicity = 1

 SCF Done:  E(RB3LYP) =  -1581.45212975     A.U. after    1 cycles

  Exact polarizability: 188.157  18.277 146.756  -8.654  10.865 153.218
 Approx polarizability: 237.994  30.667 232.987 -18.586  25.780 271.445

                      1                      2                      3
                      A                      A                      A
 Frequencies --      8.5209                15.3605                20.2912
 Red. masses --      4.6315                 4.2434                 6.5447
 Frc consts  --      0.0002                 0.0006                 0.0016
 IR Inten    --      0.2356                 0.0736                 0.1117

                      4                      5                      6
                      A                      A                      A
 Frequencies --     24.5081                36.4552                71.4252
 Red. masses --      8.1578                 5.9092                 4.1843
 Frc consts  --      0.0029                 0.0046                 0.0126
 IR Inten    --      1.2101                 1.6064                 1.2022

                      7                      8                      9
                      A                      A                      A
 Frequencies --     93.6242                99.8156               111.3096
 Red. masses --      2.2881                 1.4959                 1.1105
 Frc consts  --      0.0118                 0.0088                 0.0081
 IR Inten    --      0.2182                 0.1034                 0.0235

                     10                     11                     12
                      A                      A                      A
 Frequencies --    148.3503               154.6266               162.2085
 Red. masses --      4.9836                 3.1870                 3.8087
 Frc consts  --      0.0646                 0.0449                 0.0590
 IR Inten    --      2.9136                 1.2951                 0.2602

                     13                     14                     15
                      A                      A                      A
 Frequencies --    206.7919               247.2620               255.5040
 Red. masses --      5.2744                 3.3466                 3.4635
 Frc consts  --      0.1329                 0.1206                 0.1332
 IR Inten    --      6.1064                 1.1607                 4.2533

                     16                     17                     18
                      A                      A                      A
 Frequencies --    265.1653               291.2066               304.1967
 Red. masses --      3.4925                 3.5567                 3.1183
 Frc consts  --      0.1447                 0.1777                 0.1700
 IR Inten    --      0.9783                 0.2483                 1.1497

                     19                     20                     21
                      A                      A                      A
 Frequencies --    313.9894               335.8454               384.0572
 Red. masses --      4.9601                 3.0462                 3.1360
 Frc consts  --      0.2881                 0.2024                 0.2725
 IR Inten    --      0.1899                 1.7781                 5.8827

                     22                     23                     24
                      A                      A                      A
 Frequencies --    400.2651               440.3159               452.0659
 Red. masses --      3.6290                 2.9658                 5.1606
 Frc consts  --      0.3426                 0.3388                 0.6214
 IR Inten    --      2.0640                11.0202                12.7320

                     25                     26                     27
                      A                      A                      A
 Frequencies --    494.4888               501.1862               504.5363
 Red. masses --      3.5462                 3.8720                 5.1000
 Frc consts  --      0.5109                 0.5730                 0.7649
 IR Inten    --     25.3242                25.7204                 3.6255

                     28                     29                     30
                      A                      A                      A
 Frequencies --    526.8853               541.1331               570.9780
 Red. masses --      1.7900                 2.4073                 3.4035
 Frc consts  --      0.2928                 0.4153                 0.6538
 IR Inten    --     17.0129               116.3444                38.0875

                     31                     32                     33
                      A                      A                      A
 Frequencies --    584.7286               630.3383               640.7528
 Red. masses --      5.4622                 3.1960                 4.4805
 Frc consts  --      1.1003                 0.7482                 1.0838
 IR Inten    --     39.1598                20.7439                 8.7623

                     34                     35                     36
                      A                      A                      A
 Frequencies --    683.2078               689.4869               702.3745
 Red. masses --      5.1873                 1.3653                 4.6030
 Frc consts  --      1.4266                 0.3824                 1.3379
 IR Inten    --      1.5610                76.7735                 5.1232

                     37                     38                     39
                      A                      A                      A
 Frequencies --    722.7477               795.4331               826.8161
 Red. masses --      1.7664                 2.6138                 3.2386
 Frc consts  --      0.5436                 0.9744                 1.3044
 IR Inten    --    180.0176                32.8108                12.4313

                     40                     41                     42
                      A                      A                      A
 Frequencies --    840.9912               843.7357               884.5427
 Red. masses --      1.3605                 3.2820                 2.6124
 Frc consts  --      0.5669                 1.3766                 1.2043
 IR Inten    --     12.6427                 6.6491                74.2210

                     43                     44                     45
                      A                      A                      A
 Frequencies --    928.8963               991.9774              1012.5096
 Red. masses --      2.3288                 1.9704                 1.8877
 Frc consts  --      1.1839                 1.1424                 1.1402
 IR Inten    --     38.2318                 8.3980                16.9553

                     46                     47                     48
                      A                      A                      A
 Frequencies --   1016.7884              1053.3683              1057.7589
 Red. masses --      1.7057                 1.9435                 1.3883
 Frc consts  --      1.0390                 1.2706                 0.9152
 IR Inten    --      3.1430                26.8529                 1.1576

                     49                     50                     51
                      A                      A                      A
 Frequencies --   1074.6225              1081.9557              1113.2525
 Red. masses --      1.4016                 1.9183                 2.6409
 Frc consts  --      0.9536                 1.3231                 1.9284
 IR Inten    --      1.1048                63.2698                43.8098

                     52                     53                     54
                      A                      A                      A
 Frequencies --   1116.6551              1125.7177              1165.7318
 Red. masses --      7.1939                 3.4367                 2.3904
 Frc consts  --      5.2851                 2.5660                 1.9139
 IR Inten    --    125.5426                27.4321                28.6657

                     55                     56                     57
                      A                      A                      A
 Frequencies --   1168.9380              1188.2726              1212.2031
 Red. masses --      2.0814                 3.2244                 1.7384
 Frc consts  --      1.6756                 2.6824                 1.5050
 IR Inten    --    154.6902                 2.2484                17.2355

                     58                     59                     60
                      A                      A                      A
 Frequencies --   1215.7850              1232.7893              1276.2781
 Red. masses --      1.6197                 1.3390                 1.3664
 Frc consts  --      1.4106                 1.1989                 1.3113
 IR Inten    --     59.6079                50.4423                22.8419

                     61                     62                     63
                      A                      A                      A
 Frequencies --   1317.2423              1327.9285              1339.3163
 Red. masses --      5.3043                 1.4254                 1.2211
 Frc consts  --      5.4226                 1.4809                 1.2906
 IR Inten    --    154.7870                 4.2651                 5.7811

                     64                     65                     66
                      A                      A                      A
 Frequencies --   1368.0332              1390.4059              1404.9730
 Red. masses --      3.2728                 1.3152                 1.5938
 Frc consts  --      3.6088                 1.4980                 1.8537
 IR Inten    --     15.1285                 9.2129                20.4674

                     67                     68                     69
                      A                      A                      A
 Frequencies --   1421.4530              1438.6548              1444.9652
 Red. masses --      1.3069                 1.7734                 1.2356
 Frc consts  --      1.5558                 2.1626                 1.5200
 IR Inten    --      1.0979                62.0036                 0.7420

                     70                     71                     72
                      A                      A                      A
 Frequencies --   1449.0270              1452.9618              1491.2988
 Red. masses --      1.2268                 1.3007                 1.0910
 Frc consts  --      1.5177                 1.6179                 1.4295
 IR Inten    --      3.0030                23.1005                12.9841

                     73                     74                     75
                      A                      A                      A
 Frequencies --   1503.6059              1507.8625              1511.4901
 Red. masses --      1.0450                 1.0418                 1.0966
 Frc consts  --      1.3919                 1.3956                 1.4760
 IR Inten    --      6.1456                 8.0972                11.5737

                     76                     77                     78
                      A                      A                      A
 Frequencies --   1516.5932              1519.6799              1520.9809
 Red. masses --      1.0810                 1.1320                 1.0817
 Frc consts  --      1.4650                 1.5402                 1.4743
 IR Inten    --     11.5719                10.5699                14.0791

                     79                     80                     81
                      A                      A                      A
 Frequencies --   1525.4647              1554.1808              1619.3215
 Red. masses --      1.0937                 5.6242                 5.9449
 Frc consts  --      1.4995                 8.0041                 9.1846
 IR Inten    --      2.3065                21.8127                 6.3093

                     82                     83                     84
                      A                      A                      A
 Frequencies --   1845.4613              3048.4755              3050.9630
 Red. masses --      9.4397                 1.0365                 1.0648
 Frc consts  --     18.9418                 5.6752                 5.8397
 IR Inten    --    221.2623                34.0342                 9.2214

                     85                     86                     87
                      A                      A                      A
 Frequencies --   3061.5102              3066.1809              3070.6575
 Red. masses --      1.0642                 1.0646                 1.0353
 Frc consts  --      5.8770                 5.8967                 5.7514
 IR Inten    --     30.0569                 3.8514                12.1318

                     88                     89                     90
                      A                      A                      A
 Frequencies --   3075.8291              3089.7630              3101.6679
 Red. masses --      1.0662                 1.0952                 1.1019
 Frc consts  --      5.9431                 6.1603                 6.2460
 IR Inten    --     16.4394                12.4631                14.0455

                     91                     92                     93
                      A                      A                      A
 Frequencies --   3102.2632              3112.9945              3134.3746
 Red. masses --      1.1021                 1.0982                 1.1009
 Frc consts  --      6.2493                 6.2702                 6.3726
 IR Inten    --     17.8986                29.1396                 8.5412

                     94                     95                     96
                      A                      A                      A
 Frequencies --   3134.4686              3136.1257              3147.8132
 Red. masses --      1.1004                 1.1019                 1.1031
 Frc consts  --      6.3698                 6.3851                 6.4397
 IR Inten    --     21.4833                 7.0488                 6.5852

                     97                     98                     99
                      A                      A                      A
 Frequencies --   3240.0039              3537.6316              3682.1351
 Red. masses --      1.0936                 1.0747                 1.0639
 Frc consts  --      6.7636                 7.9243                 8.4989
 IR Inten    --      1.6334                19.7301                47.5262

 - Thermochemistry -
 -------------------
 Temperature   298.150 Kelvin.  Pressure   1.00000 Atm.
 Atom     1 has atomic number  6 and mass  12.00000

 Molecular mass:   291.05990 amu.
 Principal axes and moments of inertia in atomic units:
                           1         2         3
     Eigenvalues --  2837.32141********************
           X            0.99995   0.00992   0.00131
           Y           -0.00997   0.97507   0.22166
           Z            0.00092  -0.22166   0.97512
 This molecule is an asymmetric top.
 Rotational symmetry number  1.
 Warning -- assumption of classical behavior for rotation
           may cause significant error
 Rotational temperatures (Kelvin)      0.03053     0.00726     0.00707
 Rotational constants (GHZ):           0.63607     0.15119     0.14730
 Zero-point vibrational energy     736449.7 (Joules/Mol)
                                  176.01571 (Kcal/Mol)
 Warning -- explicit consideration of  31 degrees of freedom as
           vibrations may cause significant error
 Vibrational temperatures:     12.26    22.10    29.19    35.26    52.45
          (Kelvin)            102.76   134.70   143.61   160.15   213.44
                              222.47   233.38   297.53   355.75   367.61
                              381.51   418.98   437.67   451.76   483.21
                              552.57   575.89   633.52   650.42   711.46
                              721.10   725.92   758.07   778.57   821.51
                              841.29   906.92   921.90   982.98   992.02
                             1010.56  1039.87  1144.45  1189.60  1210.00
                             1213.95  1272.66  1336.47  1427.23  1456.78
                             1462.93  1515.56  1521.88  1546.14  1556.69
                             1601.72  1606.62  1619.66  1677.23  1681.84
                             1709.66  1744.09  1749.24  1773.71  1836.28
                             1895.22  1910.59  1926.98  1968.29  2000.48
                             2021.44  2045.15  2069.90  2078.98  2084.83
                             2090.49  2145.65  2163.35  2169.48  2174.70
                             2182.04  2186.48  2188.35  2194.80  2236.12
                             2329.84  2655.21  4386.08  4389.66  4404.83
                             4411.55  4417.99  4425.43  4445.48  4462.61
                             4463.46  4478.90  4509.67  4509.80  4512.19
                             4529.00  4661.64  5089.86  5297.77

 Zero-point correction=                           0.280499 (Hartree/Particle)
 Thermal correction to Energy=                    0.300566
 Thermal correction to Enthalpy=                  0.301510
 Thermal correction to Gibbs Free Energy=         0.226471
 Sum of electronic and zero-point Energies=          -1581.171631
 Sum of electronic and thermal Energies=             -1581.151564
 Sum of electronic and thermal Enthalpies=           -1581.150620
 Sum of electronic and thermal Free Energies=        -1581.225659

                     E (Thermal)             CV                S
                      KCal/Mol        Cal/Mol-Kelvin    Cal/Mol-Kelvin
 Total                  188.608             72.156            157.934
 Electronic               0.000              0.000              0.000
 Translational            0.889              2.981             42.903
 Rotational               0.889              2.981             34.383
 Vibrational            186.831             66.194             80.648
 Vibration     1          0.593              1.987              8.329
 Vibration     2          0.593              1.986              7.158
 Vibration     3          0.593              1.986              6.605
 Vibration     4          0.593              1.985              6.231
 Vibration     5          0.594              1.982              5.443
 Vibration     6          0.598              1.968              4.114
 Vibration     7          0.603              1.954              3.583
 Vibration     8          0.604              1.949              3.458
 Vibration     9          0.607              1.940              3.246
 Vibration    10          0.618              1.904              2.693
 Vibration    11          0.620              1.898              2.615
 Vibration    12          0.622              1.889              2.524
 Vibration    13          0.641              1.830              2.072
 Vibration    14          0.661              1.767              1.750
 Vibration    15          0.666              1.753              1.692
 Vibration    16          0.671              1.737              1.628
 Vibration    17          0.687              1.690              1.467
 Vibration    18          0.695              1.666              1.394
 Vibration    19          0.702              1.647              1.341
 Vibration    20          0.717              1.604              1.232
 Vibration    21          0.753              1.504              1.023
 Vibration    22          0.766              1.470              0.962
 Vibration    23          0.800              1.382              0.826
 Vibration    24          0.811              1.356              0.790
 Vibration    25          0.850              1.262              0.672
 Vibration    26          0.857              1.247              0.655
 Vibration    27          0.860              1.240              0.647
 Vibration    28          0.882              1.190              0.594
 Vibration    29          0.896              1.159              0.563
 Vibration    30          0.927              1.094              0.502
 Vibration    31          0.942              1.064              0.477

                           ! Non-Optimized Parameters !
 Normal termination of Gaussian 16 at Sun Dec 13 21:16:14 2020.

 ----------------------------------------------------------------------
 # B3LYP/6-311++G(d,p) empiricaldispersion=gd3bj scf=xqc pop=npa geom=c
 heck
 ----------------------------------------------------------------------

 --------------------------------------
 CID_62034664_JID_8333_Energie_neutraal
 --------------------------------------
 Structure from the checkpoint file:  "JID_8333.chk"
 Charge =  0 Multiplicity = 1

 SCF Done:  E(RB3LYP) =  -1581.74153202     A.U. after   17 cycles
 Normal termination of Gaussian 16 at Sun Dec 13 21:24:49 2020.

 ----------------------------------------------------------------------
 # B3LYP/6-311++G(d,p) empiricaldispersion=gd3bj scf=xqc pop=npa geom=c
 heck
 ----------------------------------------------------------------------

 ------------------------------------
 CID_62034664_JID_8333_Energie_kation
 ------------------------------------
 Structure from the checkpoint file:  "JID_8333.chk"
 Charge =  1 Multiplicity = 2

 SCF Done:  E(UB3LYP) =  -1581.43040102     A.U. after   33 cycles
 SCF Done:  E(UB3LYP) =  -1581.43040102     a.u. after    1 cycles
 Normal termination of Gaussian 16 at Sun Dec 13 21:48:33 2020.
 Gaussian 16:  ES64L-G16RevA.03 25-Dec-2016

 ----------------------------------------------------------------------
 # B3LYP/6-311++G(d,p) empiricaldispersion=gd3bj scf=xqc pop=npa geom=c
 heck
 ----------------------------------------------------------------------

 -----------------------------------
 CID_62034664_JID_8333_Energie_anion
 -----------------------------------
 Structure from the checkpoint file:  "JID_8333.chk"
 Charge = -1 Multiplicity = 2

                         Standard orientation:
 ---------------------------------------------------------------------
 Center     Atomic      Atomic             Coordinates (Angstroms)
 Number     Number       Type             X           Y           Z
 ---------------------------------------------------------------------
      1          6           0        4.656626    2.426479    0.650565
      2          6           0        3.721187    1.326732    0.252802
      3          6           0        2.680997    0.798233    0.957534
      4          6           0        2.008128   -0.255444    0.256844
      5          6           0        2.524438   -0.542533   -0.984698
      6         16           0        3.875928    0.516689   -1.295206
      7          6           0        2.123471   -1.561611   -2.010386
      8         16           0        0.628178   -1.085561    0.991151
      9          8           0        0.277187   -2.224696    0.130568
     10          8           0        0.873050   -1.292537    2.421455
     11          7           0       -0.533956    0.133298    0.937855
     12          6           0       -1.190704    0.444345   -0.341410
     13          6           0       -2.193714   -0.588818   -0.874797
     14          6           0       -3.269963   -1.014208    0.132638
     15          6           0       -4.097828    0.135343    0.716130
     16          6           0       -4.921892    0.863233   -0.323603
     17          8           0       -5.209858    0.447058   -1.424220
     18          8           0       -5.342921    2.070425    0.130212
     19          1           0        5.697256    2.083173    0.686084
     20          1           0        4.610978    3.272833   -0.045013
     21          1           0        4.388850    2.792955    1.645924
     22          1           0        2.389873    1.127783    1.947566
     23          1           0        1.083952   -1.421212   -2.320730
     24          1           0        2.762265   -1.491688   -2.895156
     25          1           0        2.195761   -2.571982   -1.599881
     26          1           0       -1.161452    0.004267    1.728662
     27          1           0       -1.672726    1.417799   -0.196546
     28          1           0       -0.393494    0.609643   -1.074202
     29          1           0       -2.675461   -0.160819   -1.761303
     30          1           0       -1.650495   -1.482114   -1.192944
     31          1           0       -3.948168   -1.716815   -0.361535
     32          1           0       -2.801971   -1.564048    0.958042
     33          1           0       -4.803368   -0.247890    1.465808
     34          1           0       -3.483867    0.873901    1.244247
     35          1           0       -5.890059    2.450556   -0.582956
 ---------------------------------------------------------------------

 SCF Done:  E(UB3LYP) =  -1581.73905045     A.U. after   33 cycles
 SCF Done:  E(UB3LYP) =  -1581.73905045     a.u. after    1 cycles

 The electronic state is 2-A.
 Alpha  occ. eigenvalues --  -88.95765 -88.76644 -19.07733 -19.02679 -19.01018
 Alpha  occ. eigenvalues --  -19.00975 -14.23927 -10.21769 -10.11521 -10.09812
 Alpha  occ. eigenvalues --  -10.09712 -10.09694 -10.09103 -10.08665 -10.08340
 Alpha  occ. eigenvalues --  -10.07681 -10.07566 -10.07207  -8.01870  -7.85292
 Alpha  occ. eigenvalues --   -5.98162  -5.98128  -5.97960  -5.81586  -5.81226
 Alpha  occ. eigenvalues --   -5.80886  -1.01918  -1.01301  -0.93105  -0.90276
 Alpha  occ. eigenvalues --   -0.82641  -0.78425  -0.71890  -0.68654  -0.66290
 Alpha  occ. eigenvalues --   -0.64846  -0.62399  -0.59551  -0.57655  -0.53895
 Alpha  occ. eigenvalues --   -0.51968  -0.47864  -0.44910  -0.44630  -0.42359
 Alpha  occ. eigenvalues --   -0.41554  -0.40188  -0.39641  -0.39102  -0.38309
 Alpha  occ. eigenvalues --   -0.35443  -0.35037  -0.34551  -0.34227  -0.33985
 Alpha  occ. eigenvalues --   -0.32978  -0.32648  -0.31752  -0.31464  -0.30628
 Alpha  occ. eigenvalues --   -0.30117  -0.28556  -0.26765  -0.26620  -0.25901
 Alpha  occ. eigenvalues --   -0.25648  -0.25117  -0.24789  -0.23856  -0.23215
 Alpha  occ. eigenvalues --   -0.22143  -0.20980  -0.19961  -0.19471  -0.17493
 Alpha  occ. eigenvalues --   -0.15125  -0.13318   0.03893
 Alpha virt. eigenvalues --    0.05270   0.06362   0.06954   0.07661   0.08082
 Alpha virt. eigenvalues --    0.09154   0.09427   0.09565   0.10026   0.10374
 Alpha virt. eigenvalues --    0.11073   0.11250   0.11509   0.11876   0.12054

  Beta  occ. eigenvalues --  -88.95760 -88.76619 -19.07675 -19.02667 -19.01000
  Beta  occ. eigenvalues --  -19.00951 -14.23901 -10.21767 -10.11509 -10.09774
  Beta  occ. eigenvalues --  -10.09554 -10.09271 -10.09113 -10.08638 -10.08335
  Beta  occ. eigenvalues --  -10.07712 -10.07600 -10.07205  -8.01864  -7.85269
  Beta  occ. eigenvalues --   -5.98151  -5.98117  -5.97958  -5.81582  -5.81221
  Beta  occ. eigenvalues --   -5.80787  -1.01849  -1.01248  -0.93046  -0.90231
  Beta  occ. eigenvalues --   -0.82593  -0.78137  -0.71854  -0.68342  -0.66160
  Beta  occ. eigenvalues --   -0.64729  -0.62312  -0.59494  -0.57596  -0.53763
  Beta  occ. eigenvalues --   -0.51821  -0.47777  -0.44676  -0.44485  -0.42254
  Beta  occ. eigenvalues --   -0.41502  -0.40084  -0.39608  -0.39052  -0.38251
  Beta  occ. eigenvalues --   -0.35402  -0.34982  -0.34507  -0.33979  -0.33908
  Beta  occ. eigenvalues --   -0.32878  -0.32253  -0.31698  -0.31370  -0.30578
  Beta  occ. eigenvalues --   -0.30081  -0.28438  -0.26679  -0.26499  -0.25647
  Beta  occ. eigenvalues --   -0.25547  -0.25032  -0.24626  -0.23815  -0.23169
  Beta  occ. eigenvalues --   -0.22079  -0.20892  -0.19896  -0.19432  -0.17321
  Beta  occ. eigenvalues --   -0.14758  -0.12067
  Beta virt. eigenvalues --    0.06224   0.06489   0.07489   0.07662   0.07915
  Beta virt. eigenvalues --    0.08352   0.09145   0.09466   0.09713   0.10301
  Beta virt. eigenvalues --    0.10558   0.11050   0.11306   0.11598   0.11900

 Mulliken charges and spin densities:
               1          2
     1  C   -0.119061  -0.043862
     2  C    0.341767   0.103693
     3  C    0.081485  -0.070283
     4  C   -1.227182   0.018122
     5  C    0.918513   0.254123
     6  S   -0.660194   0.077129
     7  C   -0.696301   0.019035
     8  S    0.015193  -0.053697
     9  O   -0.131925  -0.003058
    10  O   -0.178787   0.000183
    11  N   -0.084839   0.012808
    12  C   -0.292397  -0.325523
    13  C   -0.109862   0.038912
    14  C   -0.349988  -0.088974
    15  C    0.491623  -0.657115
    16  C    0.141423  -0.358691
    17  O   -0.271092   0.008370
    18  O   -0.175209   0.055345
    19  H    0.147509   0.002915
    20  H    0.066918   0.089289
    21  H    0.141787   0.009657
    22  H    0.174118   0.011035
    23  H    0.133349   0.038724
    24  H    0.116745   0.009862
    25  H    0.195375   0.014587
    26  H    0.188878   0.100916
    27  H   -0.109539   0.324611
    28  H    0.176503   0.031280
    29  H    0.144617   0.034805
    30  H    0.155391   0.024483
    31  H    0.107720   0.089858
    32  H    0.300542  -0.098601
    33  H   -0.286493   0.478417
    34  H    0.139422   0.073366
    35  H   -0.486009   0.778279
 Sum of Mulliken charges =  -1.00000   1.00000

 Dipole moment (field-independent basis, Debye):
    X=              6.4620    Y=             -1.4296    Z=             -0.1998  Tot=              6.6212
 Quadrupole moment (field-independent basis, Debye-Ang):
   XX=           -225.5846   YY=           -158.9201   ZZ=           -149.3988
   XY=             23.5704   XZ=             -7.0548   YZ=              7.8446

 Summary of Natural Population Analysis:

                                       Natural Population
                Natural  -----------------------------------------------
    Atom  No    Charge         Core      Valence    Rydberg      Total
 -----------------------------------------------------------------------
      C    1   -0.29715      0.99962     2.29189    0.00565     3.29715
      C    2   -0.07955      0.99951     2.06895    0.01110     3.07955
      C    3   -0.12696      0.99942     2.11602    0.01153     3.12696
      C    4   -0.18540      0.99925     2.16891    0.01724     3.18540
      C    5   -0.00433      0.99944     1.99257    0.01231     3.00433
      S    6    0.20397      4.99939     2.77662    0.02002     7.79603
      C    7   -0.30255      0.99962     2.29756    0.00537     3.30255
      S    8    1.11369      4.99914     1.78543    0.10173     6.88631
      O    9   -0.47010      0.99991     3.46443    0.00576     4.47010
      O   10   -0.46693      0.99991     3.46202    0.00500     4.46693
      N   11   -0.43539      0.99976     2.92299    0.01265     3.93539
      C   12   -0.09899      0.99962     2.08639    0.01298     3.09899
      C   13   -0.20612      0.99962     2.19835    0.00815     3.20612
      C   14   -0.19486      0.99963     2.18567    0.00957     3.19486
      C   15   -0.24464      0.99958     2.23588    0.00918     3.24464
      C   16    0.40729      0.99972     1.56751    0.02548     2.59271
      O   17   -0.30852      0.99987     3.30228    0.00637     4.30852
      O   18   -0.34371      0.99988     3.33716    0.00667     4.34371
      H   19    0.10195      0.00000     0.39723    0.00082     0.39805
      H   20    0.10343      0.00000     0.39528    0.00129     0.39657
      H   21    0.10466      0.00000     0.39461    0.00073     0.39534
      H   22    0.11129      0.00000     0.38767    0.00104     0.38871
      H   23    0.11236      0.00000     0.38644    0.00119     0.38764
      H   24    0.09828      0.00000     0.40097    0.00076     0.40172
      H   25    0.11702      0.00000     0.38214    0.00085     0.38298
      H   26    0.19340      0.00000     0.30447    0.00213     0.30660
      H   27    0.09899      0.00000     0.39992    0.00109     0.40101
      H   28    0.10503      0.00000     0.39379    0.00118     0.39497
      H   29    0.10460      0.00000     0.39443    0.00097     0.39540
      H   30    0.11111      0.00000     0.38777    0.00112     0.38889
      H   31    0.10621      0.00000     0.39283    0.00096     0.39379
      H   32    0.09977      0.00000     0.39895    0.00129     0.40023
      H   33    0.11739      0.00000     0.38160    0.00101     0.38261
      H   34    0.11027      0.00000     0.38852    0.00121     0.38973
      H   35    0.24451      0.00000     0.23289    0.02260     0.25549
 =======================================================================
   * Total *    0.00000     25.99286    50.68015    0.32699    77.00000

 Normal termination of Gaussian 16 at Sun Dec 13 22:12:31 2020.
