 Gaussian 16, Revision A.03,

 -----------------------------------------------------------
 # opt freq B3LYP/6-31G(d) empiricaldispersion=gd3bj scf=xqc
 -----------------------------------------------------------

 -------------------------------
 CID_140139848_JID_7809_neutraal
 -------------------------------
 Symbolic Z-matrix:
 Charge =  0 Multiplicity = 1

 SCF Done:  E(RB3LYP) =  -743.952057299     A.U. after   15 cycles
 SCF Done:  E(RB3LYP) =  -743.961055959     A.U. after   13 cycles
 SCF Done:  E(RB3LYP) =  -743.961829776     A.U. after   12 cycles
 SCF Done:  E(RB3LYP) =  -743.962732114     A.U. after   12 cycles
 SCF Done:  E(RB3LYP) =  -743.963361596     A.U. after   12 cycles
 SCF Done:  E(RB3LYP) =  -743.964037030     A.U. after   12 cycles
 SCF Done:  E(RB3LYP) =  -743.964456263     A.U. after   12 cycles
 SCF Done:  E(RB3LYP) =  -743.965004101     A.U. after   11 cycles
 SCF Done:  E(RB3LYP) =  -743.965374025     A.U. after   12 cycles
 SCF Done:  E(RB3LYP) =  -743.965606475     A.U. after   11 cycles
 SCF Done:  E(RB3LYP) =  -743.965807989     A.U. after    9 cycles
 SCF Done:  E(RB3LYP) =  -743.965813821     A.U. after    9 cycles
 SCF Done:  E(RB3LYP) =  -743.965815801     A.U. after    9 cycles
 SCF Done:  E(RB3LYP) =  -743.965816066     A.U. after    7 cycles
 SCF Done:  E(RB3LYP) =  -743.965816086     A.U. after    6 cycles
 Optimization completed.
    -- Stationary point found.
 Normal termination of Gaussian 16 at Sun Dec 13 12:37:13 2020.

 --------------------------------------------------------------------
 #N Geom=AllCheck Guess=TCheck SCRF=Check GenChk RB3LYP/6-31G(d) Freq
 --------------------------------------------------------------------

 Structure from the checkpoint file:  "JID_7809.chk"
 -------------------------------
 CID_140139848_JID_7809_neutraal
 -------------------------------
 Charge =  0 Multiplicity = 1

 SCF Done:  E(RB3LYP) =  -743.965816086     A.U. after    1 cycles

  Exact polarizability: 241.779   4.937 181.886   3.742   4.239  75.580
 Approx polarizability: 335.500  11.324 304.494   7.947   9.819 119.545

                      1                      2                      3
                      A                      A                      A
 Frequencies --     37.3333                62.9065                75.4839
 Red. masses --      3.7504                 4.7649                 3.3866
 Frc consts  --      0.0031                 0.0111                 0.0114
 IR Inten    --      0.0522                 4.0390                 1.0603

                      4                      5                      6
                      A                      A                      A
 Frequencies --     81.6744               119.1386               136.7555
 Red. masses --      3.2587                 1.9680                 2.1970
 Frc consts  --      0.0128                 0.0165                 0.0242
 IR Inten    --      0.8979                 0.6979                 1.1356

                      7                      8                      9
                      A                      A                      A
 Frequencies --    146.6888               168.8879               207.9338
 Red. masses --      4.3044                 1.2319                 1.4663
 Frc consts  --      0.0546                 0.0207                 0.0374
 IR Inten    --      1.2299                 0.3339                 1.2613

                     10                     11                     12
                      A                      A                      A
 Frequencies --    208.3410               225.9269               247.8572
 Red. masses --      1.1184                 4.6095                 4.7842
 Frc consts  --      0.0286                 0.1386                 0.1732
 IR Inten    --      0.5353                 5.4832                 2.5908

                     13                     14                     15
                      A                      A                      A
 Frequencies --    298.4350               302.4354               326.9006
 Red. masses --      3.7441                 3.9993                 2.7836
 Frc consts  --      0.1965                 0.2155                 0.1753
 IR Inten    --      0.2287                 0.6603                 1.9807

                     16                     17                     18
                      A                      A                      A
 Frequencies --    350.3439               370.4984               387.6890
 Red. masses --      4.7165                 3.8916                 3.1174
 Frc consts  --      0.3411                 0.3147                 0.2761
 IR Inten    --      0.4227                 0.6067                 4.5883

                     19                     20                     21
                      A                      A                      A
 Frequencies --    411.7208               447.1468               515.8124
 Red. masses --      4.4615                 5.6019                 5.1787
 Frc consts  --      0.4456                 0.6599                 0.8118
 IR Inten    --      3.3026                 6.7292                 0.1181

                     22                     23                     24
                      A                      A                      A
 Frequencies --    541.2765               571.2930               601.0742
 Red. masses --      4.0240                 3.3146                 4.9343
 Frc consts  --      0.6946                 0.6374                 1.0503
 IR Inten    --      0.9567                 2.7584                 9.6962

                     25                     26                     27
                      A                      A                      A
 Frequencies --    609.6654               613.6299               690.3299
 Red. masses --      3.7321                 4.2993                 4.5345
 Frc consts  --      0.8173                 0.9538                 1.2732
 IR Inten    --      4.3277                50.8367                13.5323

                     28                     29                     30
                      A                      A                      A
 Frequencies --    715.0248               718.4909               735.7819
 Red. masses --      5.1906                 3.9441                 1.4291
 Frc consts  --      1.5635                 1.1996                 0.4558
 IR Inten    --      2.1125                 1.3017                83.5259

                     31                     32                     33
                      A                      A                      A
 Frequencies --    746.7256               790.5162               823.9893
 Red. masses --      2.7471                 1.5137                 3.3816
 Frc consts  --      0.9025                 0.5573                 1.3527
 IR Inten    --      1.9108                29.1644                23.0795

                     34                     35                     36
                      A                      A                      A
 Frequencies --    830.0302               868.6393               917.4879
 Red. masses --      1.8770                 3.7444                 1.3735
 Frc consts  --      0.7619                 1.6646                 0.6812
 IR Inten    --      2.7333                 7.1112                 1.5096

                     37                     38                     39
                      A                      A                      A
 Frequencies --    951.8463               967.9066               993.6658
 Red. masses --      1.9206                 1.2587                 3.3973
 Frc consts  --      1.0253                 0.6948                 1.9764
 IR Inten    --      4.9106                 1.4634                 2.8816

                     40                     41                     42
                      A                      A                      A
 Frequencies --   1001.6380              1019.8136              1072.2719
 Red. masses --      2.0104                 1.1190                 1.7279
 Frc consts  --      1.1884                 0.6857                 1.1705
 IR Inten    --     54.3700                34.2585                 5.4372

                     43                     44                     45
                      A                      A                      A
 Frequencies --   1077.5308              1093.4735              1097.3957
 Red. masses --      1.5255                 2.1457                 2.2894
 Frc consts  --      1.0435                 1.5116                 1.6244
 IR Inten    --      1.1077                23.3127                 0.6159

                     46                     47                     48
                      A                      A                      A
 Frequencies --   1135.6647              1139.3669              1143.5320
 Red. masses --      2.2464                 2.5328                 1.6493
 Frc consts  --      1.7070                 1.9372                 1.2707
 IR Inten    --      1.5815               150.9847                45.2531

                     49                     50                     51
                      A                      A                      A
 Frequencies --   1163.0222              1207.0300              1250.6522
 Red. masses --      1.3204                 1.2268                 2.7608
 Frc consts  --      1.0523                 1.0531                 2.5442
 IR Inten    --      0.6573                 3.3412                64.0491

                     52                     53                     54
                      A                      A                      A
 Frequencies --   1278.3691              1292.2871              1305.9477
 Red. masses --      3.6382                 1.9361                 2.4897
 Frc consts  --      3.5031                 1.9051                 2.5018
 IR Inten    --     21.5801                34.0077                 7.9835

                     55                     56                     57
                      A                      A                      A
 Frequencies --   1337.2305              1343.9425              1361.6769
 Red. masses --      2.5420                 1.6782                 1.7444
 Frc consts  --      2.6782                 1.7858                 1.9057
 IR Inten    --     69.1883                80.3872                71.1817

                     58                     59                     60
                      A                      A                      A
 Frequencies --   1411.4074              1431.9993              1439.7710
 Red. masses --      4.1744                 1.4177                 3.1755
 Frc consts  --      4.8995                 1.7129                 3.8783
 IR Inten    --    173.6131                30.3215               235.6513

                     61                     62                     63
                      A                      A                      A
 Frequencies --   1442.0012              1469.7116              1474.4166
 Red. masses --      1.2629                 1.0996                 1.5612
 Frc consts  --      1.5472                 1.3994                 1.9996
 IR Inten    --      6.6819                15.5575                80.4432

                     64                     65                     66
                      A                      A                      A
 Frequencies --   1494.5534              1507.3881              1507.9484
 Red. masses --      1.0459                 1.6138                 1.2179
 Frc consts  --      1.3765                 2.1604                 1.6317
 IR Inten    --      8.2447                72.1079                58.1393

                     67                     68                     69
                      A                      A                      A
 Frequencies --   1521.1593              1528.2952              1532.5079
 Red. masses --      1.0952                 1.1243                 2.1879
 Frc consts  --      1.4932                 1.5472                 3.0275
 IR Inten    --      4.9831                 4.1341                 6.8580

                     70                     71                     72
                      A                      A                      A
 Frequencies --   1545.0054              1640.3020              1667.6423
 Red. masses --      1.1879                 7.6047                 7.3163
 Frc consts  --      1.6707                12.0553                11.9879
 IR Inten    --     21.2385                16.2229                19.6218

                     73                     74                     75
                      A                      A                      A
 Frequencies --   1735.3738              1740.8598              1790.5486
 Red. masses --      5.6883                 8.6361                10.7693
 Frc consts  --     10.0929                15.4204                20.3428
 IR Inten    --     10.0750               514.2032               212.1503

                     76                     77                     78
                      A                      A                      A
 Frequencies --   3031.4177              3048.2453              3077.5591
 Red. masses --      1.0372                 1.0396                 1.0999
 Frc consts  --      5.6155                 5.6912                 6.1380
 IR Inten    --     47.2824                45.4317                21.7703

                     79                     80                     81
                      A                      A                      A
 Frequencies --   3086.1839              3107.7425              3115.6212
 Red. masses --      1.0341                 1.1026                 1.1000
 Frc consts  --      5.8032                 6.2742                 6.2910
 IR Inten    --      3.9557                17.9499                15.2738

                     82                     83                     84
                      A                      A                      A
 Frequencies --   3150.1549              3155.6943              3159.9419
 Red. masses --      1.0899                 1.0991                 1.0874
 Frc consts  --      6.3722                 6.4486                 6.3971
 IR Inten    --      7.6803                 1.4891                34.1351

                     85                     86                     87
                      A                      A                      A
 Frequencies --   3174.9257              3181.2805              3197.3494
 Red. masses --      1.0984                 1.1073                 1.0869
 Frc consts  --      6.5233                 6.6026                 6.5469
 IR Inten    --      5.2104                14.3902                 5.4567

                     88                     89                     90
                      A                      A                      A
 Frequencies --   3214.0691              3296.7565              3521.0049
 Red. masses --      1.0942                 1.0924                 1.0747
 Frc consts  --      6.6595                 6.9954                 7.8499
 IR Inten    --     17.8757                 3.4204                 5.9567

 - Thermochemistry -
 -------------------
 Temperature   298.150 Kelvin.  Pressure   1.00000 Atm.
 Atom     1 has atomic number  6 and mass  12.00000

 Molecular mass:   229.12151 amu.
 Principal axes and moments of inertia in atomic units:
                           1         2         3
     Eigenvalues --  1967.603185832.547567732.22636
           X            1.00000  -0.00076   0.00065
           Y            0.00076   1.00000   0.00083
           Z           -0.00065  -0.00083   1.00000
 This molecule is an asymmetric top.
 Rotational symmetry number  1.
 Warning -- assumption of classical behavior for rotation
           may cause significant error
 Rotational temperatures (Kelvin)      0.04402     0.01485     0.01120
 Rotational constants (GHZ):           0.91723     0.30943     0.23341
 Zero-point vibrational energy     691064.5 (Joules/Mol)
                                  165.16839 (Kcal/Mol)
 Warning -- explicit consideration of  26 degrees of freedom as
           vibrations may cause significant error
 Vibrational temperatures:     53.71    90.51   108.60   117.51   171.41
          (Kelvin)            196.76   211.05   242.99   299.17   299.76
                              325.06   356.61   429.38   435.14   470.34
                              504.07   533.06   557.80   592.37   643.34
                              742.14   778.78   821.96   864.81   877.17
                              882.88   993.23  1028.76  1033.75  1058.63
                             1074.37  1137.38  1185.54  1194.23  1249.78
                             1320.06  1369.49  1392.60  1429.66  1441.13
                             1467.28  1542.76  1550.33  1573.26  1578.91
                             1633.97  1639.29  1645.29  1673.33  1736.65
                             1799.41  1839.29  1859.31  1878.97  1923.98
                             1933.63  1959.15  2030.70  2060.33  2071.51
                             2074.72  2114.59  2121.36  2150.33  2168.80
                             2169.60  2188.61  2198.88  2204.94  2222.92
                             2360.03  2399.37  2496.82  2504.71  2576.20
                             4361.53  4385.75  4427.92  4440.33  4471.35
                             4482.68  4532.37  4540.34  4546.45  4568.01
                             4577.15  4600.27  4624.33  4743.30  5065.94

 Zero-point correction=                           0.263213 (Hartree/Particle)
 Thermal correction to Energy=                    0.279277
 Thermal correction to Enthalpy=                  0.280221
 Thermal correction to Gibbs Free Energy=         0.219736
 Sum of electronic and zero-point Energies=           -743.702604
 Sum of electronic and thermal Energies=              -743.686539
 Sum of electronic and thermal Enthalpies=            -743.685595
 Sum of electronic and thermal Free Energies=         -743.746080

                     E (Thermal)             CV                S
                      KCal/Mol        Cal/Mol-Kelvin    Cal/Mol-Kelvin
 Total                  175.249             60.980            127.303
 Electronic               0.000              0.000              0.000
 Translational            0.889              2.981             42.189
 Rotational               0.889              2.981             32.851
 Vibrational            173.472             55.018             52.263
 Vibration     1          0.594              1.982              5.396
 Vibration     2          0.597              1.972              4.364
 Vibration     3          0.599              1.965              4.005
 Vibration     4          0.600              1.962              3.850
 Vibration     5          0.609              1.933              3.114
 Vibration     6          0.614              1.917              2.849
 Vibration     7          0.617              1.906              2.715
 Vibration     8          0.625              1.881              2.448
 Vibration     9          0.641              1.829              2.062
 Vibration    10          0.642              1.828              2.058
 Vibration    11          0.650              1.802              1.911
 Vibration    12          0.661              1.766              1.746
 Vibration    13          0.692              1.677              1.426
 Vibration    14          0.694              1.669              1.403
 Vibration    15          0.711              1.622              1.275
 Vibration    16          0.727              1.575              1.165
 Vibration    17          0.742              1.533              1.078
 Vibration    18          0.756              1.496              1.009
 Vibration    19          0.776              1.445              0.921
 Vibration    20          0.806              1.367              0.804
 Vibration    21          0.871              1.215              0.620
 Vibration    22          0.896              1.159              0.563
 Vibration    23          0.927              1.093              0.502
 Vibration    24          0.959              1.030              0.448
 Vibration    25          0.969              1.011              0.433
 Vibration    26          0.973              1.003              0.427

 Optimization completed.
    -- Stationary point found.
 Normal termination of Gaussian 16 at Sun Dec 13 12:48:50 2020.

 ----------------------------------------------------------------------
 # B3LYP/6-311++G(d,p) empiricaldispersion=gd3bj scf=xqc pop=npa geom=c
 heck
 ----------------------------------------------------------------------

 ---------------------------------------
 CID_140139848_JID_7809_Energie_neutraal
 ---------------------------------------
 Structure from the checkpoint file:  "JID_7809.chk"
 Charge =  0 Multiplicity = 1

 SCF Done:  E(RB3LYP) =  -744.165968662     A.U. after   15 cycles
 Normal termination of Gaussian 16 at Sun Dec 13 12:54:23 2020.

 ----------------------------------------------------------------------
 # B3LYP/6-311++G(d,p) empiricaldispersion=gd3bj scf=xqc pop=npa geom=c
 heck
 ----------------------------------------------------------------------

 -------------------------------------
 CID_140139848_JID_7809_Energie_kation
 -------------------------------------
 Structure from the checkpoint file:  "JID_7809.chk"
 Charge =  1 Multiplicity = 2

 SCF Done:  E(UB3LYP) =  -743.894976599     A.U. after   24 cycles
 Normal termination of Gaussian 16 at Sun Dec 13 13:06:56 2020.
 Gaussian 16:  ES64L-G16RevA.03 25-Dec-2016

 ----------------------------------------------------------------------
 # B3LYP/6-311++G(d,p) empiricaldispersion=gd3bj scf=xqc pop=npa geom=c
 heck
 ----------------------------------------------------------------------

 ------------------------------------
 CID_140139848_JID_7809_Energie_anion
 ------------------------------------
 Structure from the checkpoint file:  "JID_7809.chk"
 Charge = -1 Multiplicity = 2

                         Standard orientation:
 ---------------------------------------------------------------------
 Center     Atomic      Atomic             Coordinates (Angstroms)
 Number     Number       Type             X           Y           Z
 ---------------------------------------------------------------------
      1          6           0        5.344685   -0.711766    0.009673
      2          6           0        4.086183    0.063901    0.257219
      3          6           0        2.899462   -0.209411   -0.302373
      4          6           0        1.675713    0.592409   -0.127088
      5          6           0        0.391559    0.035062   -0.067141
      6          6           0       -0.762879    0.835419   -0.003610
      7          6           0       -0.682059    2.221028    0.048302
      8          6           0        0.597880    2.789006    0.027545
      9          6           0        1.739009    1.999686   -0.066281
     10          7           0       -1.881211   -0.036905    0.001058
     11          6           0       -1.419454   -1.379270   -0.034340
     12          7           0       -2.177509   -2.409866   -0.023466
     13          7           0       -0.026628   -1.302061   -0.061829
     14          6           0        0.790666   -2.473518    0.188166
     15          6           0       -3.219519    0.409570    0.019491
     16          8           0       -3.448704    1.606071    0.057682
     17          6           0       -4.322855   -0.615849   -0.009829
     18          1           0        5.173647   -1.546876   -0.678000
     19          1           0        5.754879   -1.115690    0.944948
     20          1           0        6.125931   -0.072222   -0.423041
     21          1           0        4.160792    0.903570    0.948279
     22          1           0        2.830611   -1.066999   -0.971134
     23          1           0       -1.576171    2.822300    0.098039
     24          1           0        0.695272    3.869821    0.058096
     25          1           0        2.714811    2.468842   -0.140572
     26          1           0       -1.632503   -3.266817   -0.099601
     27          1           0        0.246240   -3.154915    0.849872
     28          1           0        1.046104   -3.006119   -0.735793
     29          1           0        1.710098   -2.170429    0.688536
     30          1           0       -4.247774   -1.255263   -0.892567
     31          1           0       -4.260732   -1.288936    0.848463
     32          1           0       -5.264480   -0.064614   -0.005727
 ---------------------------------------------------------------------

 SCF Done:  E(UB3LYP) =  -744.158756004     A.U. after   33 cycles
 SCF Done:  E(UB3LYP) =  -744.158756004     a.u. after    1 cycles

 The electronic state is 2-A.
 Alpha  occ. eigenvalues --  -19.00632 -14.27640 -14.26347 -14.18104 -10.19185
 Alpha  occ. eigenvalues --  -10.18641 -10.11382 -10.10759 -10.10725 -10.07735
 Alpha  occ. eigenvalues --  -10.07568 -10.06491 -10.06406 -10.06220 -10.06138
 Alpha  occ. eigenvalues --  -10.06039 -10.05988  -0.96557  -0.92795  -0.82745
 Alpha  occ. eigenvalues --   -0.79622  -0.74264  -0.69558  -0.66799  -0.65178
 Alpha  occ. eigenvalues --   -0.63252  -0.61883  -0.57611  -0.54427  -0.51605
 Alpha  occ. eigenvalues --   -0.50612  -0.46955  -0.44212  -0.42301  -0.40746
 Alpha  occ. eigenvalues --   -0.39165  -0.38627  -0.37925  -0.35620  -0.35233
 Alpha  occ. eigenvalues --   -0.35015  -0.34703  -0.32024  -0.31747  -0.31428
 Alpha  occ. eigenvalues --   -0.31269  -0.30912  -0.30528  -0.28524  -0.27183
 Alpha  occ. eigenvalues --   -0.26950  -0.26001  -0.25284  -0.23802  -0.21076
 Alpha  occ. eigenvalues --   -0.19032  -0.18524  -0.17303  -0.17194  -0.12099
 Alpha  occ. eigenvalues --   -0.10178   0.04385
 Alpha virt. eigenvalues --    0.06400   0.07001   0.07177   0.07792   0.08391
 Alpha virt. eigenvalues --    0.09015   0.09540   0.10387   0.10619   0.10925
 Alpha virt. eigenvalues --    0.11310   0.11388   0.11839   0.12592   0.12730

  Beta  occ. eigenvalues --  -19.00571 -14.27659 -14.26344 -14.18093 -10.19131
  Beta  occ. eigenvalues --  -10.18639 -10.11392 -10.10703 -10.10660 -10.07738
  Beta  occ. eigenvalues --  -10.07492 -10.06531 -10.06385 -10.06183 -10.06021
  Beta  occ. eigenvalues --  -10.05910 -10.05877  -0.96473  -0.92752  -0.82724
  Beta  occ. eigenvalues --   -0.79581  -0.74131  -0.69370  -0.66699  -0.65040
  Beta  occ. eigenvalues --   -0.63152  -0.61785  -0.57506  -0.54317  -0.51482
  Beta  occ. eigenvalues --   -0.50545  -0.46789  -0.44118  -0.42189  -0.40654
  Beta  occ. eigenvalues --   -0.39076  -0.38563  -0.37881  -0.35496  -0.35145
  Beta  occ. eigenvalues --   -0.34944  -0.34626  -0.31966  -0.31652  -0.31310
  Beta  occ. eigenvalues --   -0.31176  -0.30836  -0.30462  -0.28433  -0.26997
  Beta  occ. eigenvalues --   -0.26884  -0.25789  -0.25174  -0.23702  -0.20871
  Beta  occ. eigenvalues --   -0.18854  -0.18490  -0.17243  -0.16808  -0.11445
  Beta  occ. eigenvalues --   -0.09971
  Beta virt. eigenvalues --    0.06924   0.07364   0.07424   0.07827   0.08039
  Beta virt. eigenvalues --    0.08509   0.09634   0.09858   0.10518   0.10737
  Beta virt. eigenvalues --    0.11071   0.11409   0.11461   0.12055   0.12756

 Mulliken charges and spin densities:
               1          2
     1  C    0.589879  -1.337984
     2  C   -0.888190   1.031413
     3  C   -0.231614  -0.091752
     4  C    0.907710  -0.042183
     5  C   -0.388901   0.181789
     6  C    0.432380  -0.090982
     7  C   -0.314631   0.120479
     8  C   -0.522564  -0.106713
     9  C   -0.501375  -0.058606
    10  N   -0.037502  -0.017344
    11  C    0.159012  -0.048015
    12  N   -0.439761   0.002395
    13  N   -0.079980   0.151424
    14  C    1.307440  -1.696983
    15  C    0.190092   0.145818
    16  O   -0.311588   0.015966
    17  C   -0.433575  -0.112997
    18  H   -0.376903   0.526211
    19  H   -0.220992   0.367451
    20  H    0.017260   0.112786
    21  H    0.060261   0.079407
    22  H    0.213065  -0.032086
    23  H    0.206492   0.000655
    24  H    0.135349   0.009299
    25  H    0.040175   0.067632
    26  H   -0.001796   0.244540
    27  H   -0.237701   0.355965
    28  H   -0.727342   0.951575
    29  H    0.003657   0.185666
    30  H    0.133414   0.051103
    31  H    0.164717   0.017740
    32  H    0.153516   0.016331
 Sum of Mulliken charges =  -1.00000   1.00000

 Dipole moment (field-independent basis, Debye):
    X=             -4.0337    Y=              4.7150    Z=              0.8112  Tot=              6.2578
 Quadrupole moment (field-independent basis, Debye-Ang):
   XX=           -173.9131   YY=           -155.0200   ZZ=           -120.8697
   XY=             18.1101   XZ=              1.1324   YZ=             -2.5418

 Summary of Natural Population Analysis:

                                       Natural Population
                Natural  -----------------------------------------------
    Atom  No    Charge         Core      Valence    Rydberg      Total
 -----------------------------------------------------------------------
      C    1   -0.30077      0.99966     2.29518    0.00593     3.30077
      C    2   -0.05495      0.99954     2.04687    0.00854     3.05495
      C    3   -0.11442      0.99950     2.10452    0.01040     3.11442
      C    4   -0.03985      0.99948     2.03070    0.00967     3.03985
      C    5    0.07280      0.99946     1.91250    0.01524     2.92720
      C    6    0.12873      0.99945     1.86583    0.00599     2.87127
      C    7   -0.10798      0.99957     2.09344    0.01496     3.10798
      C    8   -0.11914      0.99958     2.11053    0.00903     3.11914
      C    9   -0.07460      0.99954     2.06693    0.00812     3.07460
      N   10   -0.25817      0.99959     2.74733    0.01125     3.75817
      C   11    0.31548      0.99964     1.66720    0.01768     2.68452
      N   12   -0.39105      0.99970     2.88275    0.00860     3.89105
      N   13   -0.23474      0.99960     2.72576    0.00938     3.73474
      C   14   -0.17924      0.99964     2.17080    0.00880     3.17924
      C   15    0.36183      0.99971     1.61612    0.02234     2.63817
      O   16   -0.30264      0.99987     3.29670    0.00607     4.30264
      C   17   -0.33312      0.99963     2.32853    0.00496     3.33312
      H   18    0.10271      0.00000     0.39588    0.00142     0.39729
      H   19    0.10271      0.00000     0.39584    0.00144     0.39729
      H   20    0.09844      0.00000     0.40063    0.00093     0.40156
      H   21    0.08735      0.00000     0.41146    0.00119     0.41265
      H   22    0.09742      0.00000     0.40069    0.00188     0.40258
      H   23    0.11743      0.00000     0.38166    0.00092     0.38257
      H   24    0.09510      0.00000     0.40370    0.00120     0.40490
      H   25    0.09778      0.00000     0.40083    0.00139     0.40222
      H   26    0.17488      0.00000     0.32306    0.00206     0.32512
      H   27    0.09893      0.00000     0.39939    0.00168     0.40107
      H   28    0.10126      0.00000     0.39525    0.00349     0.39874
      H   29    0.11353      0.00000     0.38534    0.00113     0.38647
      H   30    0.12016      0.00000     0.37863    0.00121     0.37984
      H   31    0.12017      0.00000     0.37869    0.00114     0.37983
      H   32    0.10415      0.00000     0.39472    0.00113     0.39585
 =======================================================================
   * Total *    0.00021     16.99315    43.80744    0.19920    60.99979

 Normal termination of Gaussian 16 at Sun Dec 13 13:24:04 2020.
