 Gaussian 16, Revision A.03,

 -----------------------------------------------------------
 # opt freq B3LYP/6-31G(d) empiricaldispersion=gd3bj scf=xqc
 -----------------------------------------------------------

 ------------------------------
 CID_119095860_JID_243_neutraal
 ------------------------------
 Symbolic Z-matrix:
 Charge =  0 Multiplicity = 1

 SCF Done:  E(RB3LYP) =  -504.295024827     A.U. after   15 cycles
 SCF Done:  E(RB3LYP) =  -504.301769060     A.U. after   13 cycles
 SCF Done:  E(RB3LYP) =  -504.303210494     A.U. after   12 cycles
 SCF Done:  E(RB3LYP) =  -504.303257651     A.U. after   10 cycles
 SCF Done:  E(RB3LYP) =  -504.303267165     A.U. after    9 cycles
 SCF Done:  E(RB3LYP) =  -504.303269186     A.U. after    8 cycles
 SCF Done:  E(RB3LYP) =  -504.303270348     A.U. after    8 cycles
 SCF Done:  E(RB3LYP) =  -504.303271432     A.U. after    8 cycles
 SCF Done:  E(RB3LYP) =  -504.303272353     A.U. after    8 cycles
 SCF Done:  E(RB3LYP) =  -504.303273597     A.U. after    8 cycles
 SCF Done:  E(RB3LYP) =  -504.303276401     A.U. after    8 cycles
 SCF Done:  E(RB3LYP) =  -504.303277300     A.U. after    8 cycles
 SCF Done:  E(RB3LYP) =  -504.303277526     A.U. after    7 cycles
 SCF Done:  E(RB3LYP) =  -504.303277756     A.U. after    7 cycles
 Optimization completed.
    -- Stationary point found.
 Normal termination of Gaussian 16 at Tue Dec  8 10:20:51 2020.

 --------------------------------------------------------------------
 #N Geom=AllCheck Guess=TCheck SCRF=Check GenChk RB3LYP/6-31G(d) Freq
 --------------------------------------------------------------------

 Structure from the checkpoint file:  "JID_243.chk"
 ------------------------------
 CID_119095860_JID_243_neutraal
 ------------------------------
 Charge =  0 Multiplicity = 1

 SCF Done:  E(RB3LYP) =  -504.303277756     A.U. after    1 cycles

  Exact polarizability: 105.123   4.769  77.198   0.005   0.003  34.882
 Approx polarizability: 165.994   7.780 147.868   0.004   0.008  53.220

                      1                      2                      3
                      A                      A                      A
 Frequencies --     82.3198               117.1442               119.8829
 Red. masses --      1.1929                 1.6155                 1.5419
 Frc consts  --      0.0048                 0.0131                 0.0131
 IR Inten    --      0.0390                57.4130                69.7265

                      4                      5                      6
                      A                      A                      A
 Frequencies --    213.7457               221.5719               245.4204
 Red. masses --      6.4948                 3.6702                 6.5063
 Frc consts  --      0.1748                 0.1062                 0.2309
 IR Inten    --      0.0069                 4.7496                 5.8723

                      7                      8                      9
                      A                      A                      A
 Frequencies --    324.5935               370.4013               579.8120
 Red. masses --      4.9994                10.9367                 5.0653
 Frc consts  --      0.3103                 0.8841                 1.0033
 IR Inten    --     12.4167                 1.9596                 2.8393

                     10                     11                     12
                      A                      A                      A
 Frequencies --    592.6404               599.8080               621.2624
 Red. masses --      6.1839                 6.9811                 5.1613
 Frc consts  --      1.2797                 1.4798                 1.1737
 IR Inten    --      7.1745                 6.0708                 8.1592

                     13                     14                     15
                      A                      A                      A
 Frequencies --    711.4676               741.6926               743.3468
 Red. masses --      7.0947                10.5902                 9.8065
 Frc consts  --      2.1159                 3.4324                 3.1926
 IR Inten    --      3.1836                 0.2460                 0.3772

                     16                     17                     18
                      A                      A                      A
 Frequencies --    829.0881               874.9345              1062.9635
 Red. masses --      1.4088                12.0433                 2.2273
 Frc consts  --      0.5705                 5.4318                 1.4827
 IR Inten    --      6.2601                14.2810                90.7523

                     19                     20                     21
                      A                      A                      A
 Frequencies --   1091.5217              1098.3780              1163.4004
 Red. masses --      5.9883                 4.0396                 1.2929
 Frc consts  --      4.2035                 2.8714                 1.0310
 IR Inten    --      4.4092                51.6527                 0.0645

                     22                     23                     24
                      A                      A                      A
 Frequencies --   1218.2298              1264.1299              1278.9876
 Red. masses --      9.3550                 1.6195                 4.3276
 Frc consts  --      8.1800                 1.5248                 4.1709
 IR Inten    --     49.0393                23.3917                28.8121

                     25                     26                     27
                      A                      A                      A
 Frequencies --   1320.5418              1375.5981              1438.8919
 Red. masses --      4.8194                 7.2261                 1.8966
 Frc consts  --      4.9516                 8.0563                 2.3136
 IR Inten    --    126.4219                11.1315                20.4999

                     28                     29                     30
                      A                      A                      A
 Frequencies --   1476.8462              1496.1438              1506.7784
 Red. masses --      1.3382                 4.3600                 1.0399
 Frc consts  --      1.7197                 5.7502                 1.3911
 IR Inten    --     45.2001                19.3929                 8.0150

                     31                     32                     33
                      A                      A                      A
 Frequencies --   1531.4270              1550.3052              1568.7321
 Red. masses --      2.4930                 1.5752                 4.0608
 Frc consts  --      3.4448                 2.2306                 5.8878
 IR Inten    --     14.8031                 4.8597               112.3287

                     34                     35                     36
                      A                      A                      A
 Frequencies --   1677.0447              3068.6163              3134.7160
 Red. masses --      4.5210                 1.0323                 1.1066
 Frc consts  --      7.4916                 5.7273                 6.4068
 IR Inten    --      0.6816                39.6635                13.0454

                     37                     38                     39
                      A                      A                      A
 Frequencies --   3162.3057              3260.0585              3655.0921
 Red. masses --      1.1046                 1.0958                 1.0651
 Frc consts  --      6.5083                 6.8618                 8.3841
 IR Inten    --      7.8069                 0.6036                81.6332

 - Thermochemistry -
 -------------------
 Temperature   298.150 Kelvin.  Pressure   1.00000 Atm.
 Atom     1 has atomic number  6 and mass  12.00000

 Molecular mass:   139.04941 amu.
 Principal axes and moments of inertia in atomic units:
                           1         2         3
     Eigenvalues --   574.469161548.674092111.72764
           X            0.99994  -0.01114   0.00002
           Y            0.01114   0.99994  -0.00001
           Z           -0.00002   0.00001   1.00000
 This molecule is an asymmetric top.
 Rotational symmetry number  1.
 Warning -- assumption of classical behavior for rotation
           may cause significant error
 Rotational temperatures (Kelvin)      0.15077     0.05593     0.04102
 Rotational constants (GHZ):           3.14158     1.16535     0.85463
 Zero-point vibrational energy     283454.2 (Joules/Mol)
                                   67.74718 (Kcal/Mol)
 Warning -- explicit consideration of  11 degrees of freedom as
           vibrations may cause significant error
 Vibrational temperatures:    118.44   168.54   172.48   307.53   318.79
          (Kelvin)            353.11   467.02   532.92   834.22   852.68
                              862.99   893.86  1023.64  1067.13  1069.51
                             1192.87  1258.84  1529.37  1570.46  1580.32
                             1673.87  1752.76  1818.80  1840.18  1899.97
                             1979.18  2070.24  2124.85  2152.62  2167.92
                             2203.38  2230.54  2257.06  2412.89  4415.05
                             4510.16  4549.85  4690.50  5258.86

 Zero-point correction=                           0.107962 (Hartree/Particle)
 Thermal correction to Energy=                    0.116523
 Thermal correction to Enthalpy=                  0.117467
 Thermal correction to Gibbs Free Energy=         0.074072
 Sum of electronic and zero-point Energies=           -504.195316
 Sum of electronic and thermal Energies=              -504.186755
 Sum of electronic and thermal Enthalpies=            -504.185811
 Sum of electronic and thermal Free Energies=         -504.229206

                     E (Thermal)             CV                S
                      KCal/Mol        Cal/Mol-Kelvin    Cal/Mol-Kelvin
 Total                   73.119             30.372             91.333
 Electronic               0.000              0.000              0.000
 Translational            0.889              2.981             40.701
 Rotational               0.889              2.981             29.020
 Vibrational             71.342             24.411             21.612
 Vibration     1          0.600              1.961              3.835
 Vibration     2          0.608              1.935              3.147
 Vibration     3          0.609              1.933              3.102
 Vibration     4          0.644              1.820              2.011
 Vibration     5          0.648              1.808              1.946
 Vibration     6          0.660              1.770              1.763
 Vibration     7          0.709              1.626              1.287
 Vibration     8          0.742              1.533              1.078
 Vibration     9          0.936              1.075              0.486
 Vibration    10          0.950              1.047              0.462
 Vibration    11          0.958              1.032              0.450

                           ! Non-Optimized Parameters !
 Normal termination of Gaussian 16 at Tue Dec  8 10:23:10 2020.

 ----------------------------------------------------------------------
 # B3LYP/6-311++G(d,p) empiricaldispersion=gd3bj scf=xqc pop=npa geom=c
 heck
 ----------------------------------------------------------------------

 --------------------------------------
 CID_119095860_JID_243_Energie_neutraal
 --------------------------------------
 Structure from the checkpoint file:  "JID_243.chk"
 Charge =  0 Multiplicity = 1

 SCF Done:  E(RB3LYP) =  -504.445953040     A.U. after   14 cycles
 Normal termination of Gaussian 16 at Tue Dec  8 10:23:54 2020.

 ----------------------------------------------------------------------
 # B3LYP/6-311++G(d,p) empiricaldispersion=gd3bj scf=xqc pop=npa geom=c
 heck
 ----------------------------------------------------------------------

 ------------------------------------
 CID_119095860_JID_243_Energie_kation
 ------------------------------------
 Structure from the checkpoint file:  "JID_243.chk"
 Charge =  1 Multiplicity = 2

 SCF Done:  E(UB3LYP) =  -504.114597766     A.U. after   33 cycles
 SCF Done:  E(UB3LYP) =  -504.116317868     a.u. after    9 cycles
 Normal termination of Gaussian 16 at Tue Dec  8 10:42:23 2020.
 Gaussian 16:  ES64L-G16RevA.03 25-Dec-2016

 ----------------------------------------------------------------------
 # B3LYP/6-311++G(d,p) empiricaldispersion=gd3bj scf=xqc pop=npa geom=c
 heck
 ----------------------------------------------------------------------

 -----------------------------------
 CID_119095860_JID_243_Energie_anion
 -----------------------------------
 Structure from the checkpoint file:  "JID_243.chk"
 Charge = -1 Multiplicity = 2

                         Standard orientation:
 ---------------------------------------------------------------------
 Center     Atomic      Atomic             Coordinates (Angstroms)
 Number     Number       Type             X           Y           Z
 ---------------------------------------------------------------------
      1          6           0        2.920500   -0.735285    0.000119
      2          7           0        1.669243   -0.001432   -0.000118
      3          6           0        1.492126    1.370263   -0.000300
      4          7           0        0.232707    1.783530   -0.000029
      5          6           0       -0.446585    0.595527    0.000324
      6          6           0        0.385579   -0.514357    0.000285
      7          7           0       -0.297383   -1.675684   -0.000123
      8          7           0       -1.581941   -1.330311   -0.000131
      9          7           0       -1.666522    0.018605   -0.000031
     10          8           0       -2.897016    0.625552    0.000305
     11          1           0        3.746928   -0.021562   -0.000298
     12          1           0        2.991382   -1.367354   -0.890082
     13          1           0        2.991553   -1.366535    0.890888
     14          1           0        2.348491    2.032476   -0.000500
     15          1           0       -3.504667   -0.141280   -0.001984
 ---------------------------------------------------------------------

 SCF Done:  E(UB3LYP) =  -504.434690058     A.U. after   33 cycles
 SCF Done:  E(UB3LYP) =  -504.434844762     a.u. after    5 cycles

 The electronic state is 2-A.
 Alpha  occ. eigenvalues --  -19.10464 -14.35129 -14.27519 -14.26691 -14.23489
 Alpha  occ. eigenvalues --  -14.20976 -10.13579 -10.13013 -10.11993 -10.10708
 Alpha  occ. eigenvalues --   -1.06112  -0.96078  -0.91641  -0.80951  -0.75963
 Alpha  occ. eigenvalues --   -0.69273  -0.62672  -0.56696  -0.53258  -0.51175
 Alpha  occ. eigenvalues --   -0.44471  -0.42353  -0.40932  -0.36502  -0.35840
 Alpha  occ. eigenvalues --   -0.35298  -0.33924  -0.30757  -0.30225  -0.27136
 Alpha  occ. eigenvalues --   -0.24781  -0.20561  -0.20253  -0.17284  -0.14233
 Alpha  occ. eigenvalues --   -0.13489   0.04739
 Alpha virt. eigenvalues --    0.06144   0.06979   0.08810   0.10580   0.11080
 Alpha virt. eigenvalues --    0.13461   0.13481   0.14004   0.15656   0.16009
 Alpha virt. eigenvalues --    0.17414   0.17585   0.17738   0.18709   0.19014

  Beta  occ. eigenvalues --  -19.10427 -14.35063 -14.27499 -14.26571 -14.23450
  Beta  occ. eigenvalues --  -14.20967 -10.13478 -10.13010 -10.12004 -10.10632
  Beta  occ. eigenvalues --   -1.06001  -0.95988  -0.91561  -0.80893  -0.75863
  Beta  occ. eigenvalues --   -0.69167  -0.62573  -0.56544  -0.53169  -0.51087
  Beta  occ. eigenvalues --   -0.44367  -0.42295  -0.40724  -0.36356  -0.35771
  Beta  occ. eigenvalues --   -0.35190  -0.33862  -0.30665  -0.30119  -0.26849
  Beta  occ. eigenvalues --   -0.24660  -0.20445  -0.20166  -0.17216  -0.13978
  Beta  occ. eigenvalues --   -0.13142
  Beta virt. eigenvalues --    0.07132   0.07734   0.08115   0.09973   0.11390
  Beta virt. eigenvalues --    0.11957   0.13858   0.13969   0.14273   0.15653
  Beta virt. eigenvalues --    0.16060   0.17429   0.17756   0.17846   0.18951

 Mulliken charges and spin densities:
               1          2
     1  C    2.059588  -2.378599
     2  N   -0.425970   0.310807
     3  C    0.402643  -0.163584
     4  N   -0.252474   0.040126
     5  C    1.239566  -1.207079
     6  C   -0.756239   0.582302
     7  N   -0.247651  -0.053325
     8  N    0.072052   0.115478
     9  N   -0.407814  -0.118020
    10  O    0.136160   0.059212
    11  H   -1.027010   1.184352
    12  H   -0.375794   0.550142
    13  H   -0.571370   0.760875
    14  H   -0.797916   1.010732
    15  H   -0.047770   0.306579
 Sum of Mulliken charges =  -1.00000   1.00000

 Dipole moment (field-independent basis, Debye):
    X=             -6.9620    Y=              0.0252    Z=             -1.1298  Tot=              7.0531
 Quadrupole moment (field-independent basis, Debye-Ang):
   XX=           -129.7127   YY=            -93.9206   ZZ=            -76.3401
   XY=             -1.8069   XZ=             -5.2122   YZ=             -0.0961

 Summary of Natural Population Analysis:

                                       Natural Population
                Natural  -----------------------------------------------
    Atom  No    Charge         Core      Valence    Rydberg      Total
 -----------------------------------------------------------------------
      C    1   -0.17104      0.99963     2.16313    0.00827     3.17104
      N    2   -0.21121      0.99964     2.70130    0.01027     3.71121
      C    3    0.15030      0.99964     1.83285    0.01721     2.84970
      N    4   -0.26288      0.99970     2.75299    0.01018     3.76288
      C    5    0.12528      0.99935     1.86134    0.01403     2.87472
      C    6    0.12964      0.99941     1.85715    0.01380     2.87036
      N    7   -0.14959      0.99970     2.63501    0.01487     3.64959
      N    8   -0.05895      0.99976     2.54206    0.01713     3.55895
      N    9    0.04951      0.99953     2.43724    0.01371     3.45049
      O   10   -0.25177      0.99989     3.24382    0.00806     4.25177
      H   11    0.10978      0.00000     0.38064    0.00958     0.39022
      H   12    0.09879      0.00000     0.39962    0.00159     0.40121
      H   13    0.10434      0.00000     0.39240    0.00326     0.39566
      H   14    0.09726      0.00000     0.40048    0.00226     0.40274
      H   15    0.24054      0.00000     0.25211    0.00735     0.25946
 =======================================================================
   * Total *    0.00000      9.99626    25.85216    0.15158    36.00000

 Normal termination of Gaussian 16 at Tue Dec  8 11:03:25 2020.
