 Gaussian 16, Revision A.03,

 -----------------------------------------------------------
 # opt freq B3LYP/6-31G(d) empiricaldispersion=gd3bj scf=xqc
 -----------------------------------------------------------

 -------------------------------
 CID_152284221_JID_1688_neutraal
 -------------------------------
 Symbolic Z-matrix:
 Charge =  0 Multiplicity = 1

 SCF Done:  E(RB3LYP) =  -542.410142778     A.U. after   18 cycles
 SCF Done:  E(RB3LYP) =  -542.416163011     A.U. after   16 cycles
 SCF Done:  E(RB3LYP) =  -542.419139888     A.U. after   14 cycles
 SCF Done:  E(RB3LYP) =  -542.419852044     A.U. after   14 cycles
 SCF Done:  E(RB3LYP) =  -542.420149524     A.U. after   15 cycles
 SCF Done:  E(RB3LYP) =  -542.421024445     A.U. after   15 cycles
 SCF Done:  E(RB3LYP) =  -542.422939327     A.U. after   15 cycles
 SCF Done:  E(RB3LYP) =  -542.424365762     A.U. after   17 cycles
 SCF Done:  E(RB3LYP) =  -542.425647844     A.U. after   14 cycles
 SCF Done:  E(RB3LYP) =  -542.426237628     A.U. after   13 cycles
 SCF Done:  E(RB3LYP) =  -542.427021709     A.U. after   11 cycles
 SCF Done:  E(RB3LYP) =  -542.427022733     A.U. after   10 cycles
 SCF Done:  E(RB3LYP) =  -542.427023223     A.U. after    9 cycles
 SCF Done:  E(RB3LYP) =  -542.427023437     A.U. after    9 cycles
 SCF Done:  E(RB3LYP) =  -542.427023462     A.U. after    8 cycles
 Optimization completed.
    -- Stationary point found.
 Normal termination of Gaussian 16 at Tue Dec  8 20:55:20 2020.

 --------------------------------------------------------------------
 #N Geom=AllCheck Guess=TCheck SCRF=Check GenChk RB3LYP/6-31G(d) Freq
 --------------------------------------------------------------------

 Structure from the checkpoint file:  "JID_1688.chk"
 -------------------------------
 CID_152284221_JID_1688_neutraal
 -------------------------------
 Charge =  0 Multiplicity = 1

 SCF Done:  E(RB3LYP) =  -542.427023462     A.U. after    1 cycles

  Exact polarizability: 129.889   4.564  88.610   3.032  -0.661  45.777
 Approx polarizability: 206.645   4.920 146.613  16.060   5.654  90.570

                      1                      2                      3
                      A                      A                      A
 Frequencies --     24.2606                61.5735               155.0799
 Red. masses --     10.2546                 7.6561                 9.3556
 Frc consts  --      0.0036                 0.0171                 0.1326
 IR Inten    --      0.7472                 0.1372                 2.0388

                      4                      5                      6
                      A                      A                      A
 Frequencies --    201.6596               239.6374               275.3719
 Red. masses --      8.3785                 4.1478                 4.5335
 Frc consts  --      0.2007                 0.1403                 0.2025
 IR Inten    --      2.2223                 2.9495                 6.8807

                      7                      8                      9
                      A                      A                      A
 Frequencies --    286.4894               295.5932               419.3242
 Red. masses --      3.2052                 4.2167                 1.5022
 Frc consts  --      0.1550                 0.2171                 0.1556
 IR Inten    --     11.7605                 5.4979               113.8335

                     10                     11                     12
                      A                      A                      A
 Frequencies --    429.5048               504.9737               550.5751
 Red. masses --      3.3236                 4.0807                 7.7933
 Frc consts  --      0.3612                 0.6131                 1.3919
 IR Inten    --     13.3105                 0.5255                 6.1163

                     13                     14                     15
                      A                      A                      A
 Frequencies --    555.8312               588.0652               630.3474
 Red. masses --     11.2505                 5.0798                 1.3482
 Frc consts  --      2.0479                 1.0350                 0.3156
 IR Inten    --     10.8758                 5.4137                26.6915

                     16                     17                     18
                      A                      A                      A
 Frequencies --    689.6301               732.8847               764.1510
 Red. masses --      1.7473                 4.8955                 2.4848
 Frc consts  --      0.4896                 1.5492                 0.8549
 IR Inten    --    111.7465                57.5273                81.2829

                     19                     20                     21
                      A                      A                      A
 Frequencies --    801.6915               822.2278               829.8822
 Red. masses --      4.9110                 7.7067                 1.2504
 Frc consts  --      1.8597                 3.0697                 0.5074
 IR Inten    --     30.8755                53.7227                 2.3450

                     22                     23                     24
                      A                      A                      A
 Frequencies --    988.6043              1020.1768              1083.2611
 Red. masses --      2.7565                 1.7022                 1.2831
 Frc consts  --      1.5873                 1.0438                 0.8871
 IR Inten    --      5.9893                 0.4171                 8.4356

                     25                     26                     27
                      A                      A                      A
 Frequencies --   1119.5978              1217.7312              1227.2628
 Red. masses --      4.0108                 3.0119                 1.9062
 Frc consts  --      2.9622                 2.6314                 1.6916
 IR Inten    --     63.4529                14.9656                 8.1830

                     28                     29                     30
                      A                      A                      A
 Frequencies --   1249.7226              1354.1395              1375.3836
 Red. masses --      4.7613                 3.4819                 2.2447
 Frc consts  --      4.3813                 3.7618                 2.5018
 IR Inten    --      5.2002                49.5687                 1.1642

                     31                     32                     33
                      A                      A                      A
 Frequencies --   1443.2804              1538.2118              1559.2881
 Red. masses --      1.8795                 4.4699                 2.0972
 Frc consts  --      2.3067                 6.2313                 3.0043
 IR Inten    --      8.5468                41.9615               117.3440

                     34                     35                     36
                      A                      A                      A
 Frequencies --   1582.7734              1678.6640              1736.4619
 Red. masses --      5.6066                 1.9757                 6.7607
 Frc consts  --      8.2753                 3.2802                12.0108
 IR Inten    --    128.6878               198.9524               304.7478

                     37                     38                     39
                      A                      A                      A
 Frequencies --   2241.6955              2938.8470              3261.9287
 Red. masses --     13.9704                 1.0844                 1.0930
 Frc consts  --     41.3631                 5.5183                 6.8521
 IR Inten    --    355.2656               154.1919                 2.6287

                     40                     41                     42
                      A                      A                      A
 Frequencies --   3305.6213              3484.3697              3623.2667
 Red. masses --      1.1013                 1.0509                 1.0963
 Frc consts  --      7.0899                 7.5175                 8.4800
 IR Inten    --      1.6487                61.2762                49.4400

 - Thermochemistry -
 -------------------
 Temperature   298.150 Kelvin.  Pressure   1.00000 Atm.
 Atom     1 has atomic number  6 and mass  12.00000

 Molecular mass:   151.04941 amu.
 Principal axes and moments of inertia in atomic units:
                           1         2         3
     Eigenvalues --   734.713522440.838342988.81783
           X            0.99999   0.00384  -0.00377
           Y           -0.00391   0.99979  -0.02011
           Z            0.00369   0.02012   0.99979
 This molecule is an asymmetric top.
 Rotational symmetry number  1.
 Warning -- assumption of classical behavior for rotation
           may cause significant error
 Rotational temperatures (Kelvin)      0.11789     0.03549     0.02898
 Rotational constants (GHZ):           2.45639     0.73939     0.60383
 Zero-point vibrational energy     292421.4 (Joules/Mol)
                                   69.89040 (Kcal/Mol)
 Warning -- explicit consideration of  14 degrees of freedom as
           vibrations may cause significant error
 Vibrational temperatures:     34.91    88.59   223.13   290.14   344.78
          (Kelvin)            396.20   412.19   425.29   603.31   617.96
                              726.54   792.15   799.72   846.09   906.93
                              992.22  1054.46  1099.44  1153.46  1183.00
                             1194.02  1422.38  1467.81  1558.57  1610.85
                             1752.04  1765.76  1798.07  1948.30  1978.87
                             2076.56  2213.14  2243.47  2277.26  2415.22
                             2498.38  3225.30  4228.35  4693.19  4756.05
                             5013.23  5213.07

 Zero-point correction=                           0.111377 (Hartree/Particle)
 Thermal correction to Energy=                    0.121131
 Thermal correction to Enthalpy=                  0.122076
 Thermal correction to Gibbs Free Energy=         0.075055
 Sum of electronic and zero-point Energies=           -542.315646
 Sum of electronic and thermal Energies=              -542.305892
 Sum of electronic and thermal Enthalpies=            -542.304948
 Sum of electronic and thermal Free Energies=         -542.351968

                     E (Thermal)             CV                S
                      KCal/Mol        Cal/Mol-Kelvin    Cal/Mol-Kelvin
 Total                   76.011             35.539             98.962
 Electronic               0.000              0.000              0.000
 Translational            0.889              2.981             40.947
 Rotational               0.889              2.981             30.062
 Vibrational             74.234             29.578             27.953
 Vibration     1          0.593              1.985              6.251
 Vibration     2          0.597              1.973              4.406
 Vibration     3          0.620              1.897              2.609
 Vibration     4          0.639              1.838              2.118
 Vibration     5          0.657              1.780              1.806
 Vibration     6          0.677              1.719              1.562
 Vibration     7          0.684              1.699              1.495
 Vibration     8          0.690              1.682              1.442
 Vibration     9          0.782              1.428              0.894
 Vibration    10          0.791              1.406              0.860
 Vibration    11          0.860              1.239              0.646
 Vibration    12          0.906              1.138              0.543
 Vibration    13          0.911              1.127              0.532
 Vibration    14          0.945              1.057              0.471

                           ! Non-Optimized Parameters !
 Normal termination of Gaussian 16 at Tue Dec  8 20:58:08 2020.

 ----------------------------------------------------------------------
 # B3LYP/6-311++G(d,p) empiricaldispersion=gd3bj scf=xqc pop=npa geom=c
 heck
 ----------------------------------------------------------------------

 ---------------------------------------
 CID_152284221_JID_1688_Energie_neutraal
 ---------------------------------------
 Structure from the checkpoint file:  "JID_1688.chk"
 Charge =  0 Multiplicity = 1

 SCF Done:  E(RB3LYP) =  -542.585314391     A.U. after   18 cycles
 Normal termination of Gaussian 16 at Tue Dec  8 21:00:29 2020.

 ----------------------------------------------------------------------
 # B3LYP/6-311++G(d,p) empiricaldispersion=gd3bj scf=xqc pop=npa geom=c
 heck
 ----------------------------------------------------------------------

 -------------------------------------
 CID_152284221_JID_1688_Energie_kation
 -------------------------------------
 Structure from the checkpoint file:  "JID_1688.chk"
 Charge =  1 Multiplicity = 2

 SCF Done:  E(UB3LYP) =  -542.295568869     A.U. after   26 cycles
 Normal termination of Gaussian 16 at Tue Dec  8 21:05:40 2020.
 Gaussian 16:  ES64L-G16RevA.03 25-Dec-2016

 ----------------------------------------------------------------------
 # B3LYP/6-311++G(d,p) empiricaldispersion=gd3bj scf=xqc pop=npa geom=c
 heck
 ----------------------------------------------------------------------

 ------------------------------------
 CID_152284221_JID_1688_Energie_anion
 ------------------------------------
 Structure from the checkpoint file:  "JID_1688.chk"
 Charge = -1 Multiplicity = 2

                         Standard orientation:
 ---------------------------------------------------------------------
 Center     Atomic      Atomic             Coordinates (Angstroms)
 Number     Number       Type             X           Y           Z
 ---------------------------------------------------------------------
      1          6           0        0.915085    1.858607   -0.124912
      2          6           0       -0.415978    1.792411    0.155502
      3          7           0       -0.735125    0.430318    0.313760
      4          6           0        0.382256   -0.345737    0.182234
      5          6           0        1.448038    0.518433   -0.111568
      6          6           0        2.794771    0.050251   -0.278019
      7          8           0        3.130998   -1.135986   -0.207617
      8          7           0        0.368228   -1.708367    0.257479
      9          7           0       -1.965230   -0.065976    0.782624
     10          7           0       -2.749294   -0.334057   -0.176437
     11          7           0       -3.588622   -0.620685   -0.883083
     12          1           0        1.477272    2.761326   -0.321245
     13          1           0       -1.186854    2.538358    0.264743
     14          1           0        3.558918    0.831851   -0.470260
     15          1           0       -0.269379   -2.117038    0.930554
     16          1           0        1.317327   -2.079038    0.257328
 ---------------------------------------------------------------------

 SCF Done:  E(UB3LYP) =  -542.600758005     A.U. after   33 cycles
 SCF Done:  E(UB3LYP) =  -542.600758005     a.u. after    1 cycles

 The electronic state is 2-A.
 Alpha  occ. eigenvalues --  -18.98429 -14.25390 -14.24840 -14.20990 -14.20973
 Alpha  occ. eigenvalues --  -14.17241 -10.13096 -10.12565 -10.07519 -10.05031
 Alpha  occ. eigenvalues --  -10.04478  -0.95518  -0.91192  -0.88649  -0.80338
 Alpha  occ. eigenvalues --   -0.76773  -0.65888  -0.60413  -0.53655  -0.48667
 Alpha  occ. eigenvalues --   -0.45458  -0.44146  -0.38314  -0.35591  -0.35012
 Alpha  occ. eigenvalues --   -0.33795  -0.32674  -0.31461  -0.30108  -0.29559
 Alpha  occ. eigenvalues --   -0.27024  -0.26655  -0.25499  -0.20577  -0.18337
 Alpha  occ. eigenvalues --   -0.14016  -0.11792  -0.09690  -0.08122   0.05629
 Alpha virt. eigenvalues --    0.08117   0.08225   0.09628   0.09980   0.11671
 Alpha virt. eigenvalues --    0.13833   0.14050   0.14658   0.15623   0.16778
 Alpha virt. eigenvalues --    0.17644   0.18161   0.18764   0.19521   0.19802

  Beta  occ. eigenvalues --  -18.98424 -14.25176 -14.24143 -14.21019 -14.20978
  Beta  occ. eigenvalues --  -14.16267 -10.13092 -10.12570 -10.07511 -10.05029
  Beta  occ. eigenvalues --  -10.04471  -0.94403  -0.91166  -0.88103  -0.80123
  Beta  occ. eigenvalues --   -0.76407  -0.65559  -0.60361  -0.53327  -0.48514
  Beta  occ. eigenvalues --   -0.45188  -0.44110  -0.38257  -0.35063  -0.34819
  Beta  occ. eigenvalues --   -0.32748  -0.32566  -0.31135  -0.29210  -0.28735
  Beta  occ. eigenvalues --   -0.26602  -0.25778  -0.24116  -0.20145  -0.16768
  Beta  occ. eigenvalues --   -0.13983  -0.11437  -0.09420  -0.08092
  Beta virt. eigenvalues --    0.08141   0.08198   0.09649   0.09902   0.11774
  Beta virt. eigenvalues --    0.13614   0.14040   0.14522   0.15574   0.16055
  Beta virt. eigenvalues --    0.16760   0.18042   0.18173   0.18748   0.19678

 Mulliken charges and spin densities:
               1          2
     1  C   -0.838317   0.693785
     2  C    0.474428  -0.668057
     3  N    0.426936  -0.077053
     4  C   -0.857523   0.579321
     5  C    1.369980  -0.785110
     6  C   -0.178025  -0.420595
     7  O   -0.388663  -0.001520
     8  N   -0.365574   0.010935
     9  N   -1.117110   0.061376
    10  N    0.553757   0.254795
    11  N   -0.195316   0.563279
    12  H   -0.062351   0.198819
    13  H   -0.253600   0.404852
    14  H    0.054221   0.019773
    15  H    0.103458   0.151301
    16  H    0.273696   0.014098
 Sum of Mulliken charges =  -1.00000   1.00000

 Dipole moment (field-independent basis, Debye):
    X=              5.1226    Y=              1.4756    Z=              0.8740  Tot=              5.4021
 Quadrupole moment (field-independent basis, Debye-Ang):
   XX=           -117.4806   YY=            -74.8022   ZZ=            -76.4447
   XY=              0.9125   XZ=             -3.2983   YZ=             -4.2166

 Summary of Natural Population Analysis:

                                       Natural Population
                Natural  -----------------------------------------------
    Atom  No    Charge         Core      Valence    Rydberg      Total
 -----------------------------------------------------------------------
      C    1   -0.13435      0.99955     2.12623    0.00857     3.13435
      C    2   -0.01984      0.99954     2.00779    0.01251     3.01984
      N    3   -0.10425      0.99958     2.59289    0.01178     3.60425
      C    4    0.21643      0.99948     1.77030    0.01379     2.78357
      C    5   -0.14968      0.99947     2.13991    0.01030     3.14968
      C    6    0.19157      0.99964     1.78950    0.01928     2.80843
      O    7   -0.32977      0.99989     3.32296    0.00693     4.32977
      N    8   -0.39757      0.99969     2.88835    0.00953     3.89757
      N    9   -0.17784      0.99972     2.66135    0.01678     3.67784
      N   10    0.16177      0.99970     2.32368    0.01485     3.33823
      N   11    0.09296      0.99981     2.39343    0.01380     3.40704
      H   12    0.10039      0.00000     0.39856    0.00105     0.39961
      H   13    0.10383      0.00000     0.39481    0.00136     0.39617
      H   14    0.04597      0.00000     0.45139    0.00263     0.45403
      H   15    0.19502      0.00000     0.30311    0.00188     0.30498
      H   16    0.20535      0.00000     0.29276    0.00189     0.29465
 =======================================================================
   * Total *    0.00000     10.99605    27.85702    0.14693    39.00000

 Normal termination of Gaussian 16 at Tue Dec  8 21:11:06 2020.
