 Gaussian 16, Revision A.03,

 -----------------------------------------------------------
 # opt freq B3LYP/6-31G(d) empiricaldispersion=gd3bj scf=xqc
 -----------------------------------------------------------

 ------------------------------
 CID_64808535_JID_6188_neutraal
 ------------------------------
 Symbolic Z-matrix:
 Charge =  0 Multiplicity = 1

 SCF Done:  E(RB3LYP) =  -1035.00039418     A.U. after   14 cycles
 SCF Done:  E(RB3LYP) =  -1035.00146044     A.U. after   13 cycles
 SCF Done:  E(RB3LYP) =  -1034.99739041     A.U. after   14 cycles
 SCF Done:  E(RB3LYP) =  -1035.00568883     A.U. after   12 cycles
 SCF Done:  E(RB3LYP) =  -1035.00489154     A.U. after   13 cycles
 SCF Done:  E(RB3LYP) =  -1035.00738710     A.U. after   12 cycles
 SCF Done:  E(RB3LYP) =  -1035.00756439     A.U. after   12 cycles
 SCF Done:  E(RB3LYP) =  -1035.00764930     A.U. after   12 cycles
 SCF Done:  E(RB3LYP) =  -1035.00798240     A.U. after   11 cycles
 SCF Done:  E(RB3LYP) =  -1035.00825163     A.U. after   11 cycles
 SCF Done:  E(RB3LYP) =  -1035.01038454     A.U. after    7 cycles
 SCF Done:  E(RB3LYP) =  -1035.01038690     A.U. after    8 cycles
 SCF Done:  E(RB3LYP) =  -1035.01039058     A.U. after   10 cycles
 SCF Done:  E(RB3LYP) =  -1035.01039127     A.U. after    8 cycles
 SCF Done:  E(RB3LYP) =  -1035.01039144     A.U. after    7 cycles
 Optimization completed.
    -- Stationary point found.
 Normal termination of Gaussian 16 at Thu Dec 10 21:43:10 2020.

 --------------------------------------------------------------------
 #N Geom=AllCheck Guess=TCheck SCRF=Check GenChk RB3LYP/6-31G(d) Freq
 --------------------------------------------------------------------

 Structure from the checkpoint file:  "JID_6188.chk"
 ------------------------------
 CID_64808535_JID_6188_neutraal
 ------------------------------
 Charge =  0 Multiplicity = 1

 SCF Done:  E(RB3LYP) =  -1035.01039144     A.U. after    1 cycles

  Exact polarizability: 199.253  10.606 147.893  17.045  -9.628 128.799
 Approx polarizability: 262.388  22.934 248.762  33.722 -19.840 204.908

                      1                      2                      3
                      A                      A                      A
 Frequencies --     21.8716                31.6985                36.9776
 Red. masses --      3.9795                 1.0216                 4.1878
 Frc consts  --      0.0011                 0.0006                 0.0034
 IR Inten    --      0.0697                 0.3052                 0.2667

                      4                      5                      6
                      A                      A                      A
 Frequencies --     56.9339                62.3607               138.7897
 Red. masses --      3.8022                 3.2133                 5.6670
 Frc consts  --      0.0073                 0.0074                 0.0643
 IR Inten    --      0.3608                 0.3166                 1.2172

                      7                      8                      9
                      A                      A                      A
 Frequencies --    146.6150               166.0948               196.6509
 Red. masses --      3.8928                 3.5149                 4.4419
 Frc consts  --      0.0493                 0.0571                 0.1012
 IR Inten    --      0.3769                 1.3006                 3.0282

                     10                     11                     12
                      A                      A                      A
 Frequencies --    216.9056               223.8170               237.3773
 Red. masses --      3.5965                 3.3737                 4.0434
 Frc consts  --      0.0997                 0.0996                 0.1342
 IR Inten    --      0.9775                 6.2527                 4.4665

                     13                     14                     15
                      A                      A                      A
 Frequencies --    269.2218               288.7733               302.6735
 Red. masses --      2.7325                 1.7522                 1.5778
 Frc consts  --      0.1167                 0.0861                 0.0852
 IR Inten    --      1.6740                24.8274                47.8764

                     16                     17                     18
                      A                      A                      A
 Frequencies --    349.3227               367.6405               393.0900
 Red. masses --      1.6667                 1.3910                 3.0887
 Frc consts  --      0.1198                 0.1108                 0.2812
 IR Inten    --     22.4044                20.6021                 0.4449

                     19                     20                     21
                      A                      A                      A
 Frequencies --    403.4760               417.0904               446.6341
 Red. masses --      2.8684                 8.3074                 2.9588
 Frc consts  --      0.2751                 0.8515                 0.3477
 IR Inten    --      7.2406                 0.4311                 4.4462

                     22                     23                     24
                      A                      A                      A
 Frequencies --    450.6821               472.6710               532.5795
 Red. masses --      2.8143                 3.0510                 4.9763
 Frc consts  --      0.3368                 0.4016                 0.8316
 IR Inten    --      5.4065                 1.4742                 0.9012

                     25                     26                     27
                      A                      A                      A
 Frequencies --    551.3939               566.0644               697.8852
 Red. masses --      3.6318                 3.5831                 6.5630
 Frc consts  --      0.6506                 0.6764                 1.8833
 IR Inten    --      0.4529                 3.1554                 1.9761

                     28                     29                     30
                      A                      A                      A
 Frequencies --    706.6118               714.2399               736.3557
 Red. masses --      2.7424                 3.2521                 3.1015
 Frc consts  --      0.8068                 0.9775                 0.9908
 IR Inten    --     10.5961                 0.9183                 8.9547

                     31                     32                     33
                      A                      A                      A
 Frequencies --    788.3957               796.7308               840.1756
 Red. masses --      1.1975                 1.3373                 1.2163
 Frc consts  --      0.4386                 0.5002                 0.5059
 IR Inten    --      2.5745                29.5342                 3.3321

                     34                     35                     36
                      A                      A                      A
 Frequencies --    849.4439               873.6580               885.8084
 Red. masses --      2.0716                 4.7676                 2.2038
 Frc consts  --      0.8807                 2.1440                 1.0188
 IR Inten    --      7.3758                11.7267                 3.4334

                     37                     38                     39
                      A                      A                      A
 Frequencies --    904.3867               916.4078               920.8250
 Red. masses --      1.3101                 1.4485                 1.3441
 Frc consts  --      0.6313                 0.7167                 0.6715
 IR Inten    --      1.9804               159.3099                 7.1040

                     40                     41                     42
                      A                      A                      A
 Frequencies --    948.9832               961.1187               981.4898
 Red. masses --      2.8213                 2.5817                 1.2866
 Frc consts  --      1.4970                 1.4051                 0.7302
 IR Inten    --      4.9374                 8.0043                 0.2843

                     43                     44                     45
                      A                      A                      A
 Frequencies --   1020.1443              1025.4409              1037.4145
 Red. masses --      6.1159                 1.4463                 1.5259
 Frc consts  --      3.7500                 0.8961                 0.9675
 IR Inten    --      2.8743                 1.0343                14.5244

                     46                     47                     48
                      A                      A                      A
 Frequencies --   1067.1046              1073.3800              1076.7188
 Red. masses --      1.6565                 1.7375                 1.5229
 Frc consts  --      1.1114                 1.1795                 1.0402
 IR Inten    --     22.5361                34.6737                10.3857

                     49                     50                     51
                      A                      A                      A
 Frequencies --   1080.0421              1111.4236              1122.8213
 Red. masses --      2.2257                 2.3093                 2.3718
 Frc consts  --      1.5297                 1.6807                 1.7618
 IR Inten    --     28.7126                 0.0394                 4.1782

                     52                     53                     54
                      A                      A                      A
 Frequencies --   1134.1078              1137.7287              1145.7937
 Red. masses --      1.5526                 1.5204                 1.1079
 Frc consts  --      1.1766                 1.1596                 0.8570
 IR Inten    --      1.2343                 1.1181                 0.5443

                     55                     56                     57
                      A                      A                      A
 Frequencies --   1194.0583              1205.8625              1207.1439
 Red. masses --      3.0670                 1.4133                 1.1401
 Frc consts  --      2.5764                 1.2108                 0.9789
 IR Inten    --      7.3074                 0.6250                 0.7243

                     58                     59                     60
                      A                      A                      A
 Frequencies --   1219.1246              1246.8206              1255.8408
 Red. masses --      1.1052                 2.7060                 1.8882
 Frc consts  --      0.9678                 2.4785                 1.7546
 IR Inten    --      8.2318                 1.1434                 3.1227

                     61                     62                     63
                      A                      A                      A
 Frequencies --   1274.8051              1301.3922              1326.0188
 Red. masses --      1.3233                 1.3340                 2.0314
 Frc consts  --      1.2671                 1.3311                 2.1045
 IR Inten    --      4.9947                 4.7494                 0.4673

                     64                     65                     66
                      A                      A                      A
 Frequencies --   1356.1203              1389.7267              1407.7799
 Red. masses --      2.3349                 1.7499                 1.3632
 Frc consts  --      2.5299                 1.9912                 1.5918
 IR Inten    --      0.5525                 6.3175                13.7015

                     67                     68                     69
                      A                      A                      A
 Frequencies --   1421.4872              1437.1818              1443.1281
 Red. masses --      1.3155                 1.4106                 1.2409
 Frc consts  --      1.5661                 1.7166                 1.5226
 IR Inten    --     10.8659                 3.4134                 0.3068

                     70                     71                     72
                      A                      A                      A
 Frequencies --   1457.1118              1478.0230              1503.3901
 Red. masses --      2.5259                 1.1050                 1.0878
 Frc consts  --      3.1598                 1.4223                 1.4486
 IR Inten    --      3.4194                 6.0424                 2.5899

                     73                     74                     75
                      A                      A                      A
 Frequencies --   1518.2035              1518.9127              1523.1943
 Red. masses --      1.0703                 1.3356                 1.0909
 Frc consts  --      1.4535                 1.8155                 1.4912
 IR Inten    --      5.8761                 7.2279                 4.1497

                     76                     77                     78
                      A                      A                      A
 Frequencies --   1529.1670              1543.2577              1631.6182
 Red. masses --      1.6418                 1.3669                 5.1399
 Frc consts  --      2.2620                 1.9180                 8.0620
 IR Inten    --     22.2996                 4.3099                 8.5421

                     79                     80                     81
                      A                      A                      A
 Frequencies --   1652.1706              1685.9654              3027.5736
 Red. masses --      5.6328                 1.0951                 1.0594
 Frc consts  --      9.0591                 1.8341                 5.7214
 IR Inten    --     27.9105                46.7505                37.4341

                     82                     83                     84
                      A                      A                      A
 Frequencies --   3046.4269              3076.2202              3105.3585
 Red. masses --      1.0402                 1.1052                 1.0960
 Frc consts  --      5.6880                 6.1620                 6.2269
 IR Inten    --     27.2907                53.4895                16.6568

                     85                     86                     87
                      A                      A                      A
 Frequencies --   3109.6865              3118.3737              3131.7102
 Red. masses --      1.0579                 1.0869                 1.1030
 Frc consts  --      6.0274                 6.2271                 6.3738
 IR Inten    --      9.5166                27.6562                14.0946

                     88                     89                     90
                      A                      A                      A
 Frequencies --   3153.4326              3160.4848              3168.9214
 Red. masses --      1.0548                 1.0599                 1.1044
 Frc consts  --      6.1799                 6.2375                 6.5341
 IR Inten    --     17.4560                11.1413                 8.6562

                     91                     92                     93
                      A                      A                      A
 Frequencies --   3186.2557              3194.3594              3199.9060
 Red. masses --      1.0868                 1.0904                 1.0908
 Frc consts  --      6.5004                 6.5556                 6.5804
 IR Inten    --      4.6548                 6.0796                15.1507

                     94                     95                     96
                      A                      A                      A
 Frequencies --   3213.3493              3226.3659              3241.5142
 Red. masses --      1.0958                 1.1175                 1.1145
 Frc consts  --      6.6662                 6.8535                 6.8999
 IR Inten    --     11.3957                 2.2073                29.7283

                     97                     98                     99
                      A                      A                      A
 Frequencies --   3450.0863              3537.5852              3735.3408
 Red. masses --      1.0491                 1.0920                 1.0658
 Frc consts  --      7.3573                 8.0517                 8.7615
 IR Inten    --      2.9871                 0.4158               113.6726

 - Thermochemistry -
 -------------------
 Temperature   298.150 Kelvin.  Pressure   1.00000 Atm.
 Atom     1 has atomic number  6 and mass  12.00000

 Molecular mass:   237.11874 amu.
 Principal axes and moments of inertia in atomic units:
                           1         2         3
     Eigenvalues --  2025.356276437.767606687.48202
           X            0.99992  -0.00289   0.01209
           Y            0.00537   0.97759  -0.21043
           Z           -0.01121   0.21048   0.97753
 This molecule is an asymmetric top.
 Rotational symmetry number  1.
 Warning -- assumption of classical behavior for rotation
           may cause significant error
 Rotational temperatures (Kelvin)      0.04276     0.01345     0.01295
 Rotational constants (GHZ):           0.89107     0.28034     0.26987
 Zero-point vibrational energy     787815.7 (Joules/Mol)
                                  188.29247 (Kcal/Mol)
 Warning -- explicit consideration of  26 degrees of freedom as
           vibrations may cause significant error
 Vibrational temperatures:     31.47    45.61    53.20    81.92    89.72
          (Kelvin)            199.69   210.95   238.97   282.94   312.08
                              322.02   341.53   387.35   415.48   435.48
                              502.60   528.95   565.57   580.51   600.10
                              642.61   648.43   680.07   766.26   793.33
                              814.44  1004.10  1016.66  1027.63  1059.45
                             1134.33  1146.32  1208.83  1222.16  1257.00
                             1274.48  1301.21  1318.51  1324.86  1365.38
                             1382.84  1412.14  1467.76  1475.38  1492.61
                             1535.33  1544.35  1549.16  1553.94  1599.09
                             1615.49  1631.73  1636.94  1648.54  1717.98
                             1734.97  1736.81  1754.05  1793.90  1806.87
                             1834.16  1872.41  1907.85  1951.15  1999.51
                             2025.48  2045.20  2067.78  2076.34  2096.46
                             2126.55  2163.04  2184.36  2185.38  2191.54
                             2200.13  2220.40  2347.53  2377.11  2425.73
                             4356.00  4383.13  4425.99  4467.92  4474.15
                             4486.64  4505.83  4537.09  4547.23  4559.37
                             4584.31  4595.97  4603.95  4623.29  4642.02
                             4663.82  4963.90  5089.80  5374.32

 Zero-point correction=                           0.300063 (Hartree/Particle)
 Thermal correction to Energy=                    0.317146
 Thermal correction to Enthalpy=                  0.318091
 Thermal correction to Gibbs Free Energy=         0.253753
 Sum of electronic and zero-point Energies=          -1034.710328
 Sum of electronic and thermal Energies=             -1034.693245
 Sum of electronic and thermal Enthalpies=           -1034.692301
 Sum of electronic and thermal Free Energies=        -1034.756638

                     E (Thermal)             CV                S
                      KCal/Mol        Cal/Mol-Kelvin    Cal/Mol-Kelvin
 Total                  199.012             64.772            135.410
 Electronic               0.000              0.000              0.000
 Translational            0.889              2.981             42.292
 Rotational               0.889              2.981             32.833
 Vibrational            197.235             58.811             60.285
 Vibration     1          0.593              1.985              6.457
 Vibration     2          0.594              1.983              5.720
 Vibration     3          0.594              1.982              5.415
 Vibration     4          0.596              1.975              4.561
 Vibration     5          0.597              1.972              4.381
 Vibration     6          0.614              1.915              2.820
 Vibration     7          0.617              1.906              2.716
 Vibration     8          0.624              1.884              2.479
 Vibration     9          0.636              1.845              2.164
 Vibration    10          0.646              1.815              1.985
 Vibration    11          0.649              1.805              1.928
 Vibration    12          0.656              1.783              1.822
 Vibration    13          0.674              1.730              1.601
 Vibration    14          0.685              1.695              1.481
 Vibration    15          0.694              1.669              1.402
 Vibration    16          0.727              1.577              1.169
 Vibration    17          0.740              1.539              1.090
 Vibration    18          0.760              1.485              0.988
 Vibration    19          0.769              1.463              0.950
 Vibration    20          0.780              1.433              0.902
 Vibration    21          0.806              1.368              0.806
 Vibration    22          0.809              1.359              0.794
 Vibration    23          0.830              1.311              0.730
 Vibration    24          0.888              1.178              0.581
 Vibration    25          0.907              1.137              0.541
 Vibration    26          0.922              1.105              0.512

                           ! Non-Optimized Parameters !
 Normal termination of Gaussian 16 at Thu Dec 10 21:55:36 2020.

 ----------------------------------------------------------------------
 # B3LYP/6-311++G(d,p) empiricaldispersion=gd3bj scf=xqc pop=npa geom=c
 heck
 ----------------------------------------------------------------------

 --------------------------------------
 CID_64808535_JID_6188_Energie_neutraal
 --------------------------------------
 Structure from the checkpoint file:  "JID_6188.chk"
 Charge =  0 Multiplicity = 1

 SCF Done:  E(RB3LYP) =  -1035.22687865     A.U. after   16 cycles
 Normal termination of Gaussian 16 at Thu Dec 10 22:02:29 2020.

 ----------------------------------------------------------------------
 # B3LYP/6-311++G(d,p) empiricaldispersion=gd3bj scf=xqc pop=npa geom=c
 heck
 ----------------------------------------------------------------------

 ------------------------------------
 CID_64808535_JID_6188_Energie_kation
 ------------------------------------
 Structure from the checkpoint file:  "JID_6188.chk"
 Charge =  1 Multiplicity = 2

 SCF Done:  E(UB3LYP) =  -1034.93457169     A.U. after   25 cycles
 Normal termination of Gaussian 16 at Thu Dec 10 22:18:00 2020.
 Gaussian 16:  ES64L-G16RevA.03 25-Dec-2016

 ----------------------------------------------------------------------
 # B3LYP/6-311++G(d,p) empiricaldispersion=gd3bj scf=xqc pop=npa geom=c
 heck
 ----------------------------------------------------------------------

 -----------------------------------
 CID_64808535_JID_6188_Energie_anion
 -----------------------------------
 Structure from the checkpoint file:  "JID_6188.chk"
 Charge = -1 Multiplicity = 2

                         Standard orientation:
 ---------------------------------------------------------------------
 Center     Atomic      Atomic             Coordinates (Angstroms)
 Number     Number       Type             X           Y           Z
 ---------------------------------------------------------------------
      1          6           0        4.413271   -0.553085    1.458926
      2          6           0        3.398593   -0.039826    0.467005
      3          6           0        2.312428   -0.835578    0.083876
      4          6           0        1.376804   -0.384600   -0.854053
      5          6           0        1.530954    0.886377   -1.426379
      6          6           0        2.594844    1.696005   -1.029882
      7          6           0        3.520936    1.237129   -0.092677
      8         16           0        0.030779   -1.465766   -1.333004
      9          6           0       -1.452938   -0.425818   -0.979232
     10          6           0       -1.988903   -0.506849    0.459643
     11          6           0       -0.931875   -0.041019    1.492581
     12          8           0       -0.427138    1.267855    1.280921
     13          6           0       -3.244849    0.348380    0.635512
     14          6           0       -3.358170    1.773803    0.166118
     15          6           0       -4.217268    0.702668   -0.461231
     16          7           0       -2.373991   -1.907294    0.704034
     17          1           0        3.967831   -1.277889    2.147604
     18          1           0        5.243596   -1.055864    0.946305
     19          1           0        4.840474    0.262355    2.051236
     20          1           0        2.179930   -1.817016    0.530412
     21          1           0        0.825321    1.234915   -2.173923
     22          1           0        2.705779    2.687071   -1.460574
     23          1           0        4.345800    1.876991    0.209385
     24          1           0       -1.222216    0.602485   -1.261537
     25          1           0       -2.213119   -0.812044   -1.660118
     26          1           0       -1.408272   -0.035929    2.480914
     27          1           0       -0.118813   -0.779669    1.527458
     28          1           0        0.309103    1.200118    0.652777
     29          1           0       -3.708111    0.154788    1.603870
     30          1           0       -3.819785    2.494064    0.835409
     31          1           0       -2.541721    2.186272   -0.416691
     32          1           0       -3.994133    0.402465   -1.480210
     33          1           0       -5.276814    0.676314   -0.223053
     34          1           0       -1.536744   -2.490237    0.677534
     35          1           0       -2.758496   -1.994225    1.644422
 ---------------------------------------------------------------------

 SCF Done:  E(UB3LYP) =  -1035.21594667     A.U. after   33 cycles
 SCF Done:  E(UB3LYP) =  -1035.21594667     a.u. after    2 cycles

 The electronic state is 2-A.
 Alpha  occ. eigenvalues --  -88.73625 -19.00940 -14.19257 -10.10812 -10.10451
 Alpha  occ. eigenvalues --  -10.08915 -10.08548 -10.07479 -10.07260 -10.07100
 Alpha  occ. eigenvalues --  -10.07006 -10.06901 -10.06786 -10.06651 -10.06304
 Alpha  occ. eigenvalues --  -10.05568  -7.82184  -5.78571  -5.78207  -5.77586
 Alpha  occ. eigenvalues --   -0.91231  -0.80099  -0.75736  -0.74943  -0.69307
 Alpha  occ. eigenvalues --   -0.66431  -0.64118  -0.60508  -0.58423  -0.55659
 Alpha  occ. eigenvalues --   -0.51825  -0.50023  -0.49408  -0.46767  -0.43977
 Alpha  occ. eigenvalues --   -0.41244  -0.40317  -0.39509  -0.38679  -0.37089
 Alpha  occ. eigenvalues --   -0.36106  -0.34281  -0.33797  -0.32521  -0.32277
 Alpha  occ. eigenvalues --   -0.31002  -0.30838  -0.29323  -0.28679  -0.27683
 Alpha  occ. eigenvalues --   -0.26753  -0.26030  -0.25924  -0.24154  -0.23388
 Alpha  occ. eigenvalues --   -0.22598  -0.20900  -0.20335  -0.19014  -0.17902
 Alpha  occ. eigenvalues --   -0.16186  -0.14737  -0.13735  -0.11635   0.04656
 Alpha virt. eigenvalues --    0.06377   0.06719   0.07482   0.08124   0.08319
 Alpha virt. eigenvalues --    0.08595   0.09140   0.09808   0.10363   0.10545
 Alpha virt. eigenvalues --    0.11215   0.11472   0.11852   0.12297   0.13147

  Beta  occ. eigenvalues --  -88.73625 -19.00941 -14.19243 -10.10811 -10.10441
  Beta  occ. eigenvalues --  -10.08836 -10.08342 -10.07463 -10.07166 -10.07141
  Beta  occ. eigenvalues --  -10.07000 -10.06884 -10.06779 -10.06667 -10.06191
  Beta  occ. eigenvalues --  -10.05381  -7.82184  -5.78569  -5.78212  -5.77582
  Beta  occ. eigenvalues --   -0.91229  -0.80071  -0.75482  -0.74924  -0.69077
  Beta  occ. eigenvalues --   -0.66273  -0.63939  -0.60448  -0.58247  -0.55544
  Beta  occ. eigenvalues --   -0.51722  -0.49983  -0.49354  -0.46508  -0.43903
  Beta  occ. eigenvalues --   -0.41202  -0.40221  -0.39467  -0.38618  -0.37045
  Beta  occ. eigenvalues --   -0.35991  -0.34183  -0.33737  -0.32440  -0.32142
  Beta  occ. eigenvalues --   -0.30902  -0.30755  -0.29225  -0.28595  -0.27616
  Beta  occ. eigenvalues --   -0.26498  -0.25936  -0.25703  -0.24057  -0.23217
  Beta  occ. eigenvalues --   -0.22557  -0.20709  -0.20312  -0.18989  -0.17860
  Beta  occ. eigenvalues --   -0.15678  -0.14239  -0.13560  -0.11238
  Beta virt. eigenvalues --    0.06740   0.07156   0.07596   0.08329   0.08450
  Beta virt. eigenvalues --    0.08604   0.08810   0.09342   0.10157   0.10488
  Beta virt. eigenvalues --    0.10609   0.11267   0.11607   0.11977   0.12508

 Mulliken charges and spin densities:
               1          2
     1  C    0.380709  -1.059830
     2  C   -0.187616   0.622222
     3  C   -0.568735   0.043422
     4  C    0.458565   0.126964
     5  C   -0.401195   0.045385
     6  C   -0.017861  -0.245695
     7  C   -0.426865   0.175770
     8  S    0.231411  -0.207130
     9  C   -0.951723   0.006442
    10  C    1.317077  -0.910237
    11  C   -0.565104  -0.010080
    12  O   -0.225677  -0.000153
    13  C   -0.693028   0.672903
    14  C    0.346708  -0.721312
    15  C    0.317629  -0.739804
    16  N   -0.301072   0.050976
    17  H   -0.036586   0.175591
    18  H    0.183345  -0.033939
    19  H   -0.173658   0.320249
    20  H    0.092063   0.071188
    21  H   -0.032259   0.195518
    22  H    0.036283   0.123350
    23  H   -0.071205   0.195821
    24  H    0.227541  -0.091918
    25  H   -0.013208   0.272220
    26  H   -0.213087   0.371122
    27  H    0.219657  -0.019544
    28  H    0.445665  -0.068488
    29  H   -0.550851   0.789396
    30  H    0.017990   0.131823
    31  H    0.068517   0.064712
    32  H    0.084457   0.037566
    33  H   -0.271544   0.426247
    34  H    0.190856   0.040809
    35  H    0.082801   0.148433
 Sum of Mulliken charges =  -1.00000   1.00000

 Dipole moment (field-independent basis, Debye):
    X=              2.5421    Y=             -0.6653    Z=             -2.0359  Tot=              3.3241
 Quadrupole moment (field-independent basis, Debye-Ang):
   XX=           -182.1273   YY=           -133.0394   ZZ=           -142.4938
   XY=             -4.5796   XZ=              3.6976   YZ=             -6.7990

 Summary of Natural Population Analysis:

                                       Natural Population
                Natural  -----------------------------------------------
    Atom  No    Charge         Core      Valence    Rydberg      Total
 -----------------------------------------------------------------------
      C    1   -0.29258      0.99964     2.28754    0.00540     3.29258
      C    2   -0.00209      0.99952     1.99316    0.00941     3.00209
      C    3   -0.11176      0.99945     2.10299    0.00932     3.11176
      C    4   -0.06615      0.99940     2.05473    0.01202     3.06615
      C    5   -0.10704      0.99949     2.09701    0.01054     3.10704
      C    6   -0.10624      0.99956     2.09682    0.00985     3.10624
      C    7   -0.07476      0.99952     2.06564    0.00960     3.07476
      S    8    0.10060      4.99955     2.88205    0.01780     7.89940
      C    9   -0.24459      0.99951     2.23166    0.01342     3.24459
      C   10    0.03376      0.99951     1.95126    0.01546     2.96624
      C   11   -0.01758      0.99951     2.00198    0.01608     3.01758
      O   12   -0.37499      0.99990     3.36855    0.00654     4.37499
      C   13   -0.11184      0.99955     2.09745    0.01484     3.11184
      C   14   -0.19260      0.99961     2.18385    0.00914     3.19260
      C   15   -0.19923      0.99962     2.19183    0.00778     3.19923
      N   16   -0.42424      0.99975     2.91346    0.01103     3.92424
      H   17    0.10106      0.00000     0.39812    0.00082     0.39894
      H   18    0.10031      0.00000     0.39888    0.00081     0.39969
      H   19    0.10348      0.00000     0.39529    0.00123     0.39652
      H   20    0.10002      0.00000     0.39880    0.00118     0.39998
      H   21    0.10125      0.00000     0.39738    0.00136     0.39875
      H   22    0.09799      0.00000     0.40119    0.00082     0.40201
      H   23    0.09498      0.00000     0.40413    0.00089     0.40502
      H   24    0.10756      0.00000     0.39091    0.00154     0.39244
      H   25    0.11175      0.00000     0.38683    0.00142     0.38825
      H   26    0.08489      0.00000     0.41375    0.00136     0.41511
      H   27    0.08466      0.00000     0.41398    0.00136     0.41534
      H   28    0.23893      0.00000     0.25775    0.00332     0.26107
      H   29    0.10488      0.00000     0.39291    0.00221     0.39512
      H   30    0.10115      0.00000     0.39807    0.00077     0.39885
      H   31    0.10381      0.00000     0.39517    0.00102     0.39619
      H   32    0.10075      0.00000     0.39828    0.00097     0.39925
      H   33    0.10177      0.00000     0.39716    0.00107     0.39823
      H   34    0.17819      0.00000     0.31995    0.00187     0.32181
      H   35    0.17389      0.00000     0.32432    0.00179     0.32611
 =======================================================================
   * Total *   -0.00000     19.99309    43.80286    0.20405    64.00000

 Normal termination of Gaussian 16 at Thu Dec 10 23:19:06 2020.
