 Gaussian 16, Revision A.03,

 -----------------------------------------------------------
 # opt freq B3LYP/6-31G(d) empiricaldispersion=gd3bj scf=xqc
 -----------------------------------------------------------

 ------------------------------
 CID_81019919_JID_5203_neutraal
 ------------------------------
 Symbolic Z-matrix:
 Charge =  0 Multiplicity = 1

 SCF Done:  E(RB3LYP) =  -642.880901260     A.U. after   12 cycles
 SCF Done:  E(RB3LYP) =  -642.851760546     A.U. after   11 cycles
 SCF Done:  E(RB3LYP) =  -642.883403057     A.U. after   11 cycles
 SCF Done:  E(RB3LYP) =  -642.884169228     A.U. after   10 cycles
 SCF Done:  E(RB3LYP) =  -642.884276659     A.U. after   10 cycles
 SCF Done:  E(RB3LYP) =  -642.884444586     A.U. after   10 cycles
 SCF Done:  E(RB3LYP) =  -642.884563313     A.U. after   10 cycles
 SCF Done:  E(RB3LYP) =  -642.884593049     A.U. after    9 cycles
 SCF Done:  E(RB3LYP) =  -642.884604029     A.U. after    8 cycles
 SCF Done:  E(RB3LYP) =  -642.884606282     A.U. after    8 cycles
 SCF Done:  E(RB3LYP) =  -642.884607010     A.U. after    7 cycles
 SCF Done:  E(RB3LYP) =  -642.884607256     A.U. after    6 cycles
 SCF Done:  E(RB3LYP) =  -642.884607366     A.U. after    6 cycles
 SCF Done:  E(RB3LYP) =  -642.884607439     A.U. after    6 cycles
 SCF Done:  E(RB3LYP) =  -642.884607481     A.U. after    6 cycles
 Optimization completed.
    -- Stationary point found.
 Normal termination of Gaussian 16 at Thu Dec 10 14:58:29 2020.

 --------------------------------------------------------------------
 #N Geom=AllCheck Guess=TCheck SCRF=Check GenChk RB3LYP/6-31G(d) Freq
 --------------------------------------------------------------------

 Structure from the checkpoint file:  "JID_5203.chk"
 ------------------------------
 CID_81019919_JID_5203_neutraal
 ------------------------------
 Charge =  0 Multiplicity = 1

 SCF Done:  E(RB3LYP) =  -642.884607481     A.U. after    1 cycles

  Exact polarizability: 168.528   5.361 151.924  -0.502   0.203 127.426
 Approx polarizability: 204.601   2.301 202.178   0.652  -2.215 195.615

                      1                      2                      3
                      A                      A                      A
 Frequencies --     38.2902                43.7707                54.5498
 Red. masses --      2.8807                 3.0797                 3.3945
 Frc consts  --      0.0025                 0.0035                 0.0060
 IR Inten    --      0.0533                 0.0737                 0.5933

                      4                      5                      6
                      A                      A                      A
 Frequencies --     65.0283                72.1895                96.5537
 Red. masses --      3.2197                 3.2096                 2.8712
 Frc consts  --      0.0080                 0.0099                 0.0158
 IR Inten    --      0.0590                 0.0818                 0.7563

                      7                      8                      9
                      A                      A                      A
 Frequencies --    107.3838               121.9818               139.6051
 Red. masses --      3.1498                 2.9989                 2.4790
 Frc consts  --      0.0214                 0.0263                 0.0285
 IR Inten    --      0.1853                 0.6622                 1.1285

                     10                     11                     12
                      A                      A                      A
 Frequencies --    167.8450               209.9530               213.1068
 Red. masses --      1.6406                 2.2164                 1.6708
 Frc consts  --      0.0272                 0.0576                 0.0447
 IR Inten    --      0.9135                 0.5456                 0.6562

                     13                     14                     15
                      A                      A                      A
 Frequencies --    226.4407               245.5658               257.1001
 Red. masses --      1.1296                 1.1379                 2.3148
 Frc consts  --      0.0341                 0.0404                 0.0902
 IR Inten    --      0.0679                 0.1069                 3.5573

                     16                     17                     18
                      A                      A                      A
 Frequencies --    266.2721               275.1299               284.7537
 Red. masses --      1.3593                 1.8612                 2.0069
 Frc consts  --      0.0568                 0.0830                 0.0959
 IR Inten    --      0.3923                 1.3008                 0.7804

                     19                     20                     21
                      A                      A                      A
 Frequencies --    296.3281               313.9675               363.3676
 Red. masses --      1.9355                 2.0509                 2.1907
 Frc consts  --      0.1001                 0.1191                 0.1704
 IR Inten    --      0.9343                 0.6804                 0.1525

                     22                     23                     24
                      A                      A                      A
 Frequencies --    372.5580               422.2586               433.9305
 Red. masses --      2.2346                 1.9172                 1.8570
 Frc consts  --      0.1827                 0.2014                 0.2060
 IR Inten    --      0.4765                 0.1346                 1.1651

                     25                     26                     27
                      A                      A                      A
 Frequencies --    454.2441               468.2336               494.4421
 Red. masses --      2.3964                 2.7862                 2.1955
 Frc consts  --      0.2913                 0.3599                 0.3162
 IR Inten    --      5.0154                 4.9816                 2.3767

                     28                     29                     30
                      A                      A                      A
 Frequencies --    508.1428               604.9726               740.0188
 Red. masses --      2.7335                 2.4528                 2.0571
 Frc consts  --      0.4159                 0.5289                 0.6637
 IR Inten    --      7.0944                13.7743                 0.6775

                     31                     32                     33
                      A                      A                      A
 Frequencies --    772.3619               788.8467               820.6775
 Red. masses --      1.7127                 2.2656                 1.6349
 Frc consts  --      0.6020                 0.8306                 0.6488
 IR Inten    --     60.5618                 2.5690                17.0611

                     34                     35                     36
                      A                      A                      A
 Frequencies --    824.6094               850.8337               884.0858
 Red. masses --      1.4951                 1.8032                 2.1071
 Frc consts  --      0.5990                 0.7691                 0.9703
 IR Inten    --      3.1418                 1.1647                 0.5527

                     37                     38                     39
                      A                      A                      A
 Frequencies --    889.9701               916.1738               923.8424
 Red. masses --      1.6048                 1.4801                 1.6524
 Frc consts  --      0.7489                 0.7320                 0.8309
 IR Inten    --     11.0299                 3.1386                 0.6142

                     40                     41                     42
                      A                      A                      A
 Frequencies --    946.1030               956.2908               965.8031
 Red. masses --      1.2097                 2.0324                 1.5228
 Frc consts  --      0.6380                 1.0950                 0.8369
 IR Inten    --      0.7561                 6.3729                 4.8318

                     43                     44                     45
                      A                      A                      A
 Frequencies --    982.4533               999.3885              1010.6111
 Red. masses --      1.5555                 1.4699                 2.3167
 Frc consts  --      0.8846                 0.8650                 1.3941
 IR Inten    --      1.4520                 3.3627                17.7124

                     46                     47                     48
                      A                      A                      A
 Frequencies --   1019.0596              1050.6977              1069.8446
 Red. masses --      1.5923                 1.6151                 2.6417
 Frc consts  --      0.9743                 1.0506                 1.7815
 IR Inten    --      2.8188                 2.4687                16.5098

                     49                     50                     51
                      A                      A                      A
 Frequencies --   1087.7133              1094.3699              1128.5701
 Red. masses --      2.2977                 2.3900                 2.0735
 Frc consts  --      1.6017                 1.6865                 1.5560
 IR Inten    --      6.7803                18.7042                 3.9796

                     52                     53                     54
                      A                      A                      A
 Frequencies --   1137.8617              1157.6071              1163.3838
 Red. masses --      1.9089                 2.3044                 2.5695
 Frc consts  --      1.4562                 1.8194                 2.0490
 IR Inten    --     10.1702                 0.9314                68.7500

                     55                     56                     57
                      A                      A                      A
 Frequencies --   1166.5935              1188.7490              1201.2317
 Red. masses --      2.0995                 2.2244                 2.0985
 Frc consts  --      1.6835                 1.8520                 1.7841
 IR Inten    --     42.5489                 5.6168                15.7779

                     58                     59                     60
                      A                      A                      A
 Frequencies --   1214.5800              1215.1369              1248.0763
 Red. masses --      1.7895                 1.7481                 1.4231
 Frc consts  --      1.5554                 1.5208                 1.3060
 IR Inten    --     11.8155                13.1855                24.0842

                     61                     62                     63
                      A                      A                      A
 Frequencies --   1252.9893              1280.7713              1300.7640
 Red. masses --      1.3352                 1.2410                 1.3281
 Frc consts  --      1.2351                 1.1994                 1.3240
 IR Inten    --      1.2223                 4.5865                 2.5537

                     64                     65                     66
                      A                      A                      A
 Frequencies --   1321.9680              1337.4898              1352.7418
 Red. masses --      1.2589                 1.1826                 1.2014
 Frc consts  --      1.2962                 1.2464                 1.2953
 IR Inten    --      0.5760                24.9437                 1.4686

                     67                     68                     69
                      A                      A                      A
 Frequencies --   1357.4942              1359.8353              1375.2563
 Red. masses --      1.2023                 1.2748                 1.2026
 Frc consts  --      1.3054                 1.3889                 1.3401
 IR Inten    --      8.0561                 2.7356                 1.5137

                     70                     71                     72
                      A                      A                      A
 Frequencies --   1394.0959              1400.2801              1407.1428
 Red. masses --      1.3317                 1.3530                 1.3256
 Frc consts  --      1.5249                 1.5631                 1.5465
 IR Inten    --      4.2969                 4.1504                 0.5938

                     73                     74                     75
                      A                      A                      A
 Frequencies --   1412.8353              1415.9142              1420.3865
 Red. masses --      1.2943                 1.3482                 1.4218
 Frc consts  --      1.5222                 1.5925                 1.6901
 IR Inten    --     15.4815                 0.8449                 1.2007

                     76                     77                     78
                      A                      A                      A
 Frequencies --   1426.1810              1432.2222              1439.1851
 Red. masses --      1.3516                 1.3633                 1.2463
 Frc consts  --      1.6197                 1.6477                 1.5209
 IR Inten    --      6.9964                 4.3619                20.0334

                     79                     80                     81
                      A                      A                      A
 Frequencies --   1441.8293              1445.5575              1448.8030
 Red. masses --      1.2501                 1.2994                 1.2604
 Frc consts  --      1.5312                 1.5997                 1.5587
 IR Inten    --      2.0938                11.5351                11.3725

                     82                     83                     84
                      A                      A                      A
 Frequencies --   1507.2717              1509.3937              1513.1595
 Red. masses --      1.0739                 1.1368                 1.0513
 Frc consts  --      1.4375                 1.5260                 1.4182
 IR Inten    --      5.0769                 5.4757                13.5496

                     85                     86                     87
                      A                      A                      A
 Frequencies --   1513.6109              1515.4317              1519.0731
 Red. masses --      1.0662                 1.0747                 1.0566
 Frc consts  --      1.4392                 1.4542                 1.4365
 IR Inten    --      0.8521                 5.1322                 3.2379

                     88                     89                     90
                      A                      A                      A
 Frequencies --   1522.9465              1526.0796              1528.3962
 Red. masses --      1.1333                 1.0971                 1.0679
 Frc consts  --      1.5487                 1.5054                 1.4697
 IR Inten    --      3.3668                 1.9073                 2.0377

                     91                     92                     93
                      A                      A                      A
 Frequencies --   1531.6032              1533.6167              1535.9088
 Red. masses --      1.0624                 1.0541                 1.0771
 Frc consts  --      1.4684                 1.4607                 1.4970
 IR Inten    --      0.5090                 6.2095                 0.8917

                     94                     95                     96
                      A                      A                      A
 Frequencies --   1539.4439              1541.0269              1546.8483
 Red. masses --      1.0494                 1.0734                 1.0905
 Frc consts  --      1.4653                 1.5019                 1.5374
 IR Inten    --      4.5164                 9.6606                 1.9070

                     97                     98                     99
                      A                      A                      A
 Frequencies --   1558.2844              2923.5823              2930.7496
 Red. masses --      1.0845                 1.0732                 1.0747
 Frc consts  --      1.5516                 5.4048                 5.4385
 IR Inten    --      5.4987                67.1438               124.5703

                    100                    101                    102
                      A                      A                      A
 Frequencies --   3013.9857              3016.8008              3020.4418
 Red. masses --      1.0679                 1.0667                 1.0672
 Frc consts  --      5.7154                 5.7198                 5.7362
 IR Inten    --     31.0268                38.1900                56.4030

                    103                    104                    105
                      A                      A                      A
 Frequencies --   3023.1022              3029.1647              3037.9955
 Red. masses --      1.0816                 1.0701                 1.0368
 Frc consts  --      5.8243                 5.7853                 5.6380
 IR Inten    --     10.4023                18.0929                34.9670

                    106                    107                    108
                      A                      A                      A
 Frequencies --   3038.5306              3041.3503              3046.1346
 Red. masses --      1.0471                 1.0769                 1.0421
 Frc consts  --      5.6959                 5.8690                 5.6973
 IR Inten    --     22.6798                 2.4195                19.6489

                    109                    110                    111
                      A                      A                      A
 Frequencies --   3047.8637              3056.4097              3057.8373
 Red. masses --      1.0615                 1.0851                 1.0856
 Frc consts  --      5.8098                 5.9723                 5.9808
 IR Inten    --     30.7477                61.0389                 1.7885

                    112                    113                    114
                      A                      A                      A
 Frequencies --   3059.1933              3075.0309              3079.2664
 Red. masses --      1.0412                 1.0892                 1.1008
 Frc consts  --      5.7411                 6.0684                 6.1499
 IR Inten    --     30.6670                49.8625                23.1273

                    115                    116                    117
                      A                      A                      A
 Frequencies --   3087.7928              3093.3050              3100.5574
 Red. masses --      1.0947                 1.0959                 1.1012
 Frc consts  --      6.1496                 6.1780                 6.2371
 IR Inten    --     48.7308                46.7289                12.4808

                    118                    119                    120
                      A                      A                      A
 Frequencies --   3101.1948              3106.3125              3108.7545
 Red. masses --      1.1003                 1.1011                 1.0922
 Frc consts  --      6.2346                 6.2597                 6.2192
 IR Inten    --     46.2730                68.7629                55.8131

                    121                    122                    123
                      A                      A                      A
 Frequencies --   3113.9273              3120.6973              3124.7947
 Red. masses --      1.1017                 1.0998                 1.1013
 Frc consts  --      6.2940                 6.3105                 6.3360
 IR Inten    --     50.2091                36.7188                34.4158

                    124                    125                    126
                      A                      A                      A
 Frequencies --   3146.3556              3147.8285              3483.9067
 Red. masses --      1.1010                 1.0978                 1.0741
 Frc consts  --      6.4219                 6.4089                 7.6809
 IR Inten    --     20.9547                30.4197                 0.8242

 - Thermochemistry -
 -------------------
 Temperature   298.150 Kelvin.  Pressure   1.00000 Atm.
 Atom     1 has atomic number  6 and mass  12.00000

 Molecular mass:   215.22491 amu.
 Principal axes and moments of inertia in atomic units:
                           1         2         3
     Eigenvalues --  2714.911415118.442196978.98188
           X            0.99943   0.03369   0.00265
           Y           -0.03369   0.99943  -0.00122
           Z           -0.00269   0.00113   1.00000
 This molecule is an asymmetric top.
 Rotational symmetry number  1.
 Warning -- assumption of classical behavior for rotation
           may cause significant error
 Rotational temperatures (Kelvin)      0.03190     0.01692     0.01241
 Rotational constants (GHZ):           0.66475     0.35260     0.25860
 Zero-point vibrational energy    1087000.0 (Joules/Mol)
                                  259.79924 (Kcal/Mol)
 Warning -- explicit consideration of  29 degrees of freedom as
           vibrations may cause significant error
 Vibrational temperatures:     55.09    62.98    78.48    93.56   103.86
          (Kelvin)            138.92   154.50   175.50   200.86   241.49
                              302.08   306.61   325.80   353.31   369.91
                              383.11   395.85   409.70   426.35   451.73
                              522.80   536.03   607.54   624.33   653.56
                              673.68   711.39   731.10   870.42  1064.72
                             1111.26  1134.97  1180.77  1186.43  1224.16
                             1272.00  1280.47  1318.17  1329.20  1361.23
                             1375.89  1389.58  1413.53  1437.90  1454.04
                             1466.20  1511.72  1539.27  1564.98  1574.55
                             1623.76  1637.13  1665.54  1673.85  1678.47
                             1710.34  1728.30  1747.51  1748.31  1795.70
                             1802.77  1842.74  1871.51  1902.02  1924.35
                             1946.29  1953.13  1956.50  1978.69  2005.79
                             2014.69  2024.56  2032.75  2037.18  2043.62
                             2051.96  2060.65  2070.67  2074.47  2079.83
                             2084.50  2168.63  2171.68  2177.10  2177.75
                             2180.37  2185.61  2191.18  2195.69  2199.02
                             2203.64  2206.53  2209.83  2214.92  2217.19
                             2225.57  2242.02  4206.38  4216.70  4336.45
                             4340.50  4345.74  4349.57  4358.29  4371.00
                             4371.77  4375.82  4382.71  4385.20  4397.49
                             4399.55  4401.50  4424.28  4430.38  4442.65
                             4450.58  4461.01  4461.93  4469.29  4472.80
                             4480.25  4489.99  4495.88  4526.90  4529.02
                             5012.56

 Zero-point correction=                           0.414016 (Hartree/Particle)
 Thermal correction to Energy=                    0.433026
 Thermal correction to Enthalpy=                  0.433971
 Thermal correction to Gibbs Free Energy=         0.366753
 Sum of electronic and zero-point Energies=           -642.470591
 Sum of electronic and thermal Energies=              -642.451581
 Sum of electronic and thermal Enthalpies=            -642.450637
 Sum of electronic and thermal Free Energies=         -642.517855

                     E (Thermal)             CV                S
                      KCal/Mol        Cal/Mol-Kelvin    Cal/Mol-Kelvin
 Total                  271.728             70.559            141.472
 Electronic               0.000              0.000              0.000
 Translational            0.889              2.981             42.003
 Rotational               0.889              2.981             32.939
 Vibrational            269.951             64.598             66.530
 Vibration     1          0.594              1.982              5.346
 Vibration     2          0.595              1.980              5.081
 Vibration     3          0.596              1.976              4.645
 Vibration     4          0.597              1.971              4.298
 Vibration     5          0.598              1.967              4.093
 Vibration     6          0.603              1.952              3.523
 Vibration     7          0.606              1.943              3.316
 Vibration     8          0.609              1.931              3.069
 Vibration     9          0.615              1.914              2.809
 Vibration    10          0.625              1.882              2.459
 Vibration    11          0.642              1.826              2.044
 Vibration    12          0.644              1.821              2.017
 Vibration    13          0.650              1.801              1.907
 Vibration    14          0.660              1.770              1.762
 Vibration    15          0.667              1.751              1.681
 Vibration    16          0.672              1.735              1.620
 Vibration    17          0.677              1.719              1.564
 Vibration    18          0.683              1.702              1.505
 Vibration    19          0.690              1.681              1.438
 Vibration    20          0.702              1.647              1.341
 Vibration    21          0.737              1.548              1.108
 Vibration    22          0.744              1.528              1.069
 Vibration    23          0.785              1.422              0.884
 Vibration    24          0.795              1.396              0.846
 Vibration    25          0.813              1.352              0.783
 Vibration    26          0.825              1.321              0.743
 Vibration    27          0.850              1.262              0.672
 Vibration    28          0.863              1.232              0.638
 Vibration    29          0.964              1.021              0.441

 Optimization completed.
    -- Stationary point found.
 Normal termination of Gaussian 16 at Thu Dec 10 15:16:40 2020.

 ----------------------------------------------------------------------
 # B3LYP/6-311++G(d,p) empiricaldispersion=gd3bj scf=xqc pop=npa geom=c
 heck
 ----------------------------------------------------------------------

 --------------------------------------
 CID_81019919_JID_5203_Energie_neutraal
 --------------------------------------
 Structure from the checkpoint file:  "JID_5203.chk"
 Charge =  0 Multiplicity = 1

 SCF Done:  E(RB3LYP) =  -643.071068331     A.U. after   14 cycles
 Normal termination of Gaussian 16 at Thu Dec 10 15:26:35 2020.

 ----------------------------------------------------------------------
 # B3LYP/6-311++G(d,p) empiricaldispersion=gd3bj scf=xqc pop=npa geom=c
 heck
 ----------------------------------------------------------------------

 ------------------------------------
 CID_81019919_JID_5203_Energie_kation
 ------------------------------------
 Structure from the checkpoint file:  "JID_5203.chk"
 Charge =  1 Multiplicity = 2

 SCF Done:  E(UB3LYP) =  -642.771659764     A.U. after   26 cycles
 Normal termination of Gaussian 16 at Thu Dec 10 15:52:34 2020.
 Gaussian 16:  ES64L-G16RevA.03 25-Dec-2016

 ----------------------------------------------------------------------
 # B3LYP/6-311++G(d,p) empiricaldispersion=gd3bj scf=xqc pop=npa geom=c
 heck
 ----------------------------------------------------------------------

 -----------------------------------
 CID_81019919_JID_5203_Energie_anion
 -----------------------------------
 Structure from the checkpoint file:  "JID_5203.chk"
 Charge = -1 Multiplicity = 2

                         Standard orientation:
 ---------------------------------------------------------------------
 Center     Atomic      Atomic             Coordinates (Angstroms)
 Number     Number       Type             X           Y           Z
 ---------------------------------------------------------------------
      1          6           0        0.538092   -2.200626    1.325532
      2          6           0        1.210048   -2.609613    0.015904
      3          8           0        2.617522   -2.413920   -0.010697
      4          6           0        3.091168   -1.081684    0.131277
      5          6           0        2.818176   -0.159918   -1.072846
      6          6           0        1.551381    0.712554   -1.017568
      7          6           0        1.451395    1.662634    0.190401
      8          6           0        2.725290    2.492452    0.399116
      9          6           0        0.244273    2.612060    0.065233
     10          6           0       -1.111267    1.952522   -0.194966
     11          7           0       -1.400195    0.900520    0.778186
     12          6           0       -2.808086    0.502948    0.821279
     13          6           0       -3.292763   -0.195933   -0.458348
     14          6           0       -2.437727   -1.417882   -0.801640
     15          6           0       -4.771220   -0.573902   -0.310896
     16          1           0       -0.475277   -2.614609    1.363295
     17          1           0        0.438080   -1.116056    1.421651
     18          1           0        1.104374   -2.593384    2.177252
     19          1           0        1.087454   -3.686221   -0.143043
     20          1           0        0.727836   -2.102817   -0.832921
     21          1           0        2.717517   -0.632078    1.062199
     22          1           0        4.172693   -1.203062    0.248910
     23          1           0        3.687716    0.496892   -1.199007
     24          1           0        2.789734   -0.792676   -1.968831
     25          1           0        1.515485    1.314414   -1.938308
     26          1           0        0.659496    0.078606   -1.028155
     27          1           0        1.297161    1.050775    1.088507
     28          1           0        2.976773    3.058862   -0.507207
     29          1           0        2.591731    3.213622    1.214082
     30          1           0        3.587913    1.867743    0.651179
     31          1           0        0.176094    3.209971    0.986499
     32          1           0        0.434489    3.328879   -0.746064
     33          1           0       -1.890468    2.739592   -0.199105
     34          1           0       -1.120334    1.508207   -1.196909
     35          1           0       -1.133985    1.232343    1.703620
     36          1           0       -2.929225   -0.188248    1.665951
     37          1           0       -3.473726    1.368298    1.011249
     38          1           0       -3.214702    0.521306   -1.287865
     39          1           0       -2.508068   -2.173220   -0.008573
     40          1           0       -2.772105   -1.881712   -1.736779
     41          1           0       -1.384623   -1.145237   -0.903346
     42          1           0       -5.390411    0.302740   -0.086499
     43          1           0       -5.154202   -1.030271   -1.230397
     44          1           0       -4.908805   -1.298600    0.502032
 ---------------------------------------------------------------------

 SCF Done:  E(UB3LYP) =  -643.056461372     A.U. after   30 cycles

 The electronic state is 2-A.
 Alpha  occ. eigenvalues --  -19.02747 -14.19711 -10.12168 -10.12018 -10.09001
 Alpha  occ. eigenvalues --  -10.08964 -10.07634 -10.07559 -10.07364 -10.06850
 Alpha  occ. eigenvalues --  -10.06726 -10.06348 -10.06326 -10.06185 -10.05909
 Alpha  occ. eigenvalues --   -0.93799  -0.80898  -0.72402  -0.70051  -0.67701
 Alpha  occ. eigenvalues --   -0.65186  -0.62235  -0.58983  -0.58892  -0.56069
 Alpha  occ. eigenvalues --   -0.54134  -0.51762  -0.48759  -0.46295  -0.44422
 Alpha  occ. eigenvalues --   -0.40756  -0.40332  -0.38902  -0.37635  -0.36587
 Alpha  occ. eigenvalues --   -0.35510  -0.35351  -0.34356  -0.33767  -0.32902
 Alpha  occ. eigenvalues --   -0.32064  -0.30940  -0.30229  -0.29335  -0.29153
 Alpha  occ. eigenvalues --   -0.28664  -0.28524  -0.27712  -0.27394  -0.26448
 Alpha  occ. eigenvalues --   -0.25684  -0.25008  -0.24091  -0.23549  -0.22976
 Alpha  occ. eigenvalues --   -0.22542  -0.21946  -0.21479  -0.20806  -0.16320
 Alpha  occ. eigenvalues --   -0.13054   0.04319
 Alpha virt. eigenvalues --    0.06084   0.06675   0.06870   0.07800   0.08327
 Alpha virt. eigenvalues --    0.08464   0.08859   0.09058   0.10098   0.10180
 Alpha virt. eigenvalues --    0.10486   0.11142   0.11531   0.11834   0.12363

  Beta  occ. eigenvalues --  -19.02747 -14.19695 -10.12162 -10.12010 -10.08986
  Beta  occ. eigenvalues --  -10.08940 -10.07629 -10.07554 -10.07356 -10.06841
  Beta  occ. eigenvalues --  -10.06702 -10.06337 -10.06299 -10.06157 -10.05891
  Beta  occ. eigenvalues --   -0.93795  -0.80870  -0.72380  -0.70025  -0.67681
  Beta  occ. eigenvalues --   -0.65165  -0.62197  -0.58952  -0.58850  -0.56012
  Beta  occ. eigenvalues --   -0.54094  -0.51714  -0.48724  -0.46246  -0.44372
  Beta  occ. eigenvalues --   -0.40743  -0.40310  -0.38858  -0.37600  -0.36558
  Beta  occ. eigenvalues --   -0.35488  -0.35308  -0.34332  -0.33742  -0.32881
  Beta  occ. eigenvalues --   -0.32026  -0.30920  -0.30198  -0.29311  -0.29129
  Beta  occ. eigenvalues --   -0.28641  -0.28502  -0.27682  -0.27365  -0.26420
  Beta  occ. eigenvalues --   -0.25661  -0.24978  -0.24064  -0.23511  -0.22945
  Beta  occ. eigenvalues --   -0.22509  -0.21919  -0.21449  -0.20794  -0.16313
  Beta  occ. eigenvalues --   -0.13021
  Beta virt. eigenvalues --    0.06251   0.06760   0.07134   0.07426   0.08127
  Beta virt. eigenvalues --    0.08779   0.08812   0.09184   0.09309   0.10369
  Beta virt. eigenvalues --    0.10582   0.10786   0.11411   0.11734   0.12015

 Mulliken charges and spin densities:
               1          2
     1  C   -0.062337  -0.298177
     2  C   -0.256069  -0.065495
     3  O   -0.110646   0.008408
     4  C   -0.436156  -0.018606
     5  C    0.218235  -0.724053
     6  C    0.351100  -0.296400
     7  C   -1.627482   2.297531
     8  C    1.195569  -1.977769
     9  C    0.707268  -1.556229
    10  C   -0.389996   0.190574
    11  N   -0.085464   0.108096
    12  C    1.065680  -1.692791
    13  C   -1.422699   1.836837
    14  C    0.002520  -0.503110
    15  C    1.022864  -1.670264
    16  H    0.109054  -0.000759
    17  H    0.037269   0.149690
    18  H   -0.019555   0.179634
    19  H    0.061336   0.117030
    20  H    0.059175   0.052352
    21  H    0.035193   0.116830
    22  H   -0.044770   0.215734
    23  H    0.108107   0.024778
    24  H    0.118625   0.083156
    25  H   -0.110700   0.289088
    26  H    0.241280  -0.234223
    27  H    0.145801  -0.044172
    28  H   -0.064401   0.221575
    29  H   -0.361389   0.505726
    30  H   -0.130517   0.269372
    31  H   -0.244887   0.424495
    32  H    0.058814   0.088796
    33  H   -0.624120   0.780894
    34  H    0.116786   0.015919
    35  H    0.019075   0.225673
    36  H   -0.223981   0.361689
    37  H   -0.048474   0.201905
    38  H   -0.015310   0.164550
    39  H    0.066396   0.056173
    40  H   -0.120903   0.253949
    41  H    0.088171   0.009546
    42  H   -0.208342   0.343488
    43  H   -0.147491   0.285257
    44  H   -0.072629   0.203305
 Sum of Mulliken charges =  -1.00000   1.00000

 Dipole moment (field-independent basis, Debye):
    X=              2.7684    Y=             -3.4718    Z=             -1.8897  Tot=              4.8258
 Quadrupole moment (field-independent basis, Debye-Ang):
   XX=           -184.4821   YY=           -160.1466   ZZ=           -135.4620
   XY=              0.7985   XZ=             -1.9801   YZ=             -6.7103

 Summary of Natural Population Analysis:

                                       Natural Population
                Natural  -----------------------------------------------
    Atom  No    Charge         Core      Valence    Rydberg      Total
 -----------------------------------------------------------------------
      C    1   -0.30728      0.99966     2.30270    0.00493     3.30728
      C    2   -0.00948      0.99959     1.99895    0.01094     3.00948
      O    3   -0.30332      0.99989     3.29436    0.00907     4.30332
      C    4   -0.01285      0.99957     2.00019    0.01309     3.01285
      C    5   -0.20761      0.99962     2.20018    0.00781     3.20761
      C    6   -0.19233      0.99960     2.18417    0.00857     3.19233
      C    7   -0.11664      0.99959     2.10664    0.01040     3.11664
      C    8   -0.28527      0.99965     2.27948    0.00614     3.28527
      C    9   -0.18648      0.99961     2.17708    0.00979     3.18648
      C   10   -0.08597      0.99962     2.07505    0.01131     3.08597
      N   11   -0.34358      0.99974     2.83184    0.01200     3.84358
      C   12   -0.08019      0.99960     2.06815    0.01245     3.08019
      C   13   -0.12123      0.99961     2.11188    0.00974     3.12123
      C   14   -0.28460      0.99964     2.27830    0.00666     3.28460
      C   15   -0.28093      0.99965     2.27649    0.00479     3.28093
      H   16    0.10319      0.00000     0.39587    0.00093     0.39681
      H   17    0.10635      0.00000     0.39189    0.00176     0.39365
      H   18    0.09667      0.00000     0.40233    0.00100     0.40333
      H   19    0.08488      0.00000     0.41391    0.00121     0.41512
      H   20    0.07808      0.00000     0.42036    0.00156     0.42192
      H   21    0.08104      0.00000     0.41752    0.00144     0.41896
      H   22    0.08851      0.00000     0.41037    0.00112     0.41149
      H   23    0.09909      0.00000     0.39983    0.00108     0.40091
      H   24    0.10127      0.00000     0.39770    0.00102     0.39873
      H   25    0.09493      0.00000     0.40407    0.00099     0.40507
      H   26    0.10119      0.00000     0.39666    0.00215     0.39881
      H   27    0.09413      0.00000     0.40284    0.00303     0.40587
      H   28    0.09571      0.00000     0.40332    0.00098     0.40429
      H   29    0.10218      0.00000     0.39672    0.00110     0.39782
      H   30    0.09750      0.00000     0.40151    0.00098     0.40250
      H   31    0.09776      0.00000     0.40068    0.00156     0.40224
      H   32    0.09763      0.00000     0.40127    0.00110     0.40237
      H   33    0.08387      0.00000     0.41450    0.00163     0.41613
      H   34    0.08783      0.00000     0.41032    0.00185     0.41217
      H   35    0.17236      0.00000     0.32446    0.00318     0.32764
      H   36    0.09179      0.00000     0.40690    0.00131     0.40821
      H   37    0.08204      0.00000     0.41602    0.00194     0.41796
      H   38    0.09240      0.00000     0.40555    0.00206     0.40760
      H   39    0.09458      0.00000     0.40440    0.00102     0.40542
      H   40    0.09625      0.00000     0.40291    0.00084     0.40375
      H   41    0.10256      0.00000     0.39580    0.00164     0.39744
      H   42    0.10032      0.00000     0.39841    0.00127     0.39968
      H   43    0.09837      0.00000     0.40063    0.00101     0.40163
      H   44    0.09530      0.00000     0.40354    0.00116     0.40470
 =======================================================================
   * Total *   -0.00000     14.99463    45.82575    0.17961    61.00000

 Normal termination of Gaussian 16 at Thu Dec 10 16:22:40 2020.
