 Gaussian 16, Revision A.03,

 -----------------------------------------------------------
 # opt freq B3LYP/6-31G(d) empiricaldispersion=gd3bj scf=xqc
 -----------------------------------------------------------

 ------------------------------
 CID_79865850_JID_7158_neutraal
 ------------------------------
 Symbolic Z-matrix:
 Charge =  0 Multiplicity = 1

 SCF Done:  E(RB3LYP) =  -717.903015670     A.U. after   14 cycles
 SCF Done:  E(RB3LYP) =  -717.908879796     A.U. after   12 cycles
 SCF Done:  E(RB3LYP) =  -717.909962497     A.U. after   12 cycles
 SCF Done:  E(RB3LYP) =  -717.910003121     A.U. after   13 cycles
 SCF Done:  E(RB3LYP) =  -717.910392349     A.U. after   12 cycles
 SCF Done:  E(RB3LYP) =  -717.910529721     A.U. after   11 cycles
 SCF Done:  E(RB3LYP) =  -717.910579624     A.U. after   10 cycles
 SCF Done:  E(RB3LYP) =  -717.910590480     A.U. after    9 cycles
 SCF Done:  E(RB3LYP) =  -717.910591779     A.U. after    8 cycles
 SCF Done:  E(RB3LYP) =  -717.910592397     A.U. after    7 cycles
 SCF Done:  E(RB3LYP) =  -717.910592619     A.U. after    7 cycles
 SCF Done:  E(RB3LYP) =  -717.910592724     A.U. after    6 cycles
 SCF Done:  E(RB3LYP) =  -717.910592750     A.U. after    6 cycles
 Optimization completed.
    -- Stationary point found.
 Normal termination of Gaussian 16 at Fri Dec 11 11:58:07 2020.

 --------------------------------------------------------------------
 #N Geom=AllCheck Guess=TCheck SCRF=Check GenChk RB3LYP/6-31G(d) Freq
 --------------------------------------------------------------------

 Structure from the checkpoint file:  "JID_7158.chk"
 ------------------------------
 CID_79865850_JID_7158_neutraal
 ------------------------------
 Charge =  0 Multiplicity = 1

 SCF Done:  E(RB3LYP) =  -717.910592750     A.U. after    1 cycles

  Exact polarizability: 188.751  -2.100 150.863   2.541   1.128 141.022
 Approx polarizability: 225.570  -0.974 218.065   7.429   5.563 228.171

                      1                      2                      3
                      A                      A                      A
 Frequencies --     33.1025                36.8602                54.7833
 Red. masses --      3.6441                 3.4886                 3.2746
 Frc consts  --      0.0024                 0.0028                 0.0058
 IR Inten    --      0.5099                 0.5085                 0.2973

                      4                      5                      6
                      A                      A                      A
 Frequencies --     87.4664                98.0554               113.9538
 Red. masses --      2.9826                 2.3215                 5.2918
 Frc consts  --      0.0134                 0.0132                 0.0405
 IR Inten    --      0.4150                 0.1268                 3.5068

                      7                      8                      9
                      A                      A                      A
 Frequencies --    163.7677               199.1560               205.4021
 Red. masses --      3.1509                 3.6427                 2.0749
 Frc consts  --      0.0498                 0.0851                 0.0516
 IR Inten    --      0.4922                 1.8013                 0.4072

                     10                     11                     12
                      A                      A                      A
 Frequencies --    221.7142               226.4807               243.3418
 Red. masses --      1.1709                 2.1457                 2.4269
 Frc consts  --      0.0339                 0.0648                 0.0847
 IR Inten    --      0.4257                 0.2161                 1.0339

                     13                     14                     15
                      A                      A                      A
 Frequencies --    263.3225               290.3064               306.0235
 Red. masses --      1.2108                 2.8010                 2.8524
 Frc consts  --      0.0495                 0.1391                 0.1574
 IR Inten    --      1.3323                 3.7846                 0.0357

                     16                     17                     18
                      A                      A                      A
 Frequencies --    310.5402               322.8026               349.3832
 Red. masses --      2.1665                 2.0389                 2.3587
 Frc consts  --      0.1231                 0.1252                 0.1696
 IR Inten    --      0.2370                 0.5719                 1.5853

                     19                     20                     21
                      A                      A                      A
 Frequencies --    368.5633               383.8295               422.3590
 Red. masses --      1.9528                 1.9583                 2.8168
 Frc consts  --      0.1563                 0.1700                 0.2961
 IR Inten    --      7.3694                 1.1086                 1.7088

                     22                     23                     24
                      A                      A                      A
 Frequencies --    425.3018               486.7480               489.7960
 Red. masses --      2.3362                 1.6846                 1.8841
 Frc consts  --      0.2490                 0.2352                 0.2663
 IR Inten    --      2.3787                 1.5224                 1.3919

                     25                     26                     27
                      A                      A                      A
 Frequencies --    500.5670               569.0635               620.0722
 Red. masses --      3.3965                 3.3374                 3.8743
 Frc consts  --      0.5014                 0.6368                 0.8777
 IR Inten    --      6.5639                 1.2731                 3.4602

                     28                     29                     30
                      A                      A                      A
 Frequencies --    657.4891               675.6951               715.5464
 Red. masses --      4.4249                 2.8960                 2.1446
 Frc consts  --      1.1270                 0.7790                 0.6469
 IR Inten    --      0.1033                 0.6151                 4.4001

                     31                     32                     33
                      A                      A                      A
 Frequencies --    755.6312               798.5472               801.6275
 Red. masses --      3.3166                 2.0366                 1.7090
 Frc consts  --      1.1157                 0.7652                 0.6471
 IR Inten    --      2.2151                 6.7097                 7.6615

                     34                     35                     36
                      A                      A                      A
 Frequencies --    803.6133               826.4728               865.4007
 Red. masses --      1.7650                 2.2295                 2.1105
 Frc consts  --      0.6716                 0.8972                 0.9313
 IR Inten    --      4.2105                 7.8964                 1.1244

                     37                     38                     39
                      A                      A                      A
 Frequencies --    884.2185               901.6876               910.0989
 Red. masses --      2.3750                 1.8316                 2.1675
 Frc consts  --      1.0940                 0.8774                 1.0578
 IR Inten    --     19.1758                 2.0522                 5.6283

                     40                     41                     42
                      A                      A                      A
 Frequencies --    934.1480               954.3389               957.3989
 Red. masses --      2.3496                 2.0112                 1.5726
 Frc consts  --      1.2080                 1.0792                 0.8493
 IR Inten    --      4.3931                 3.3503                11.0133

                     43                     44                     45
                      A                      A                      A
 Frequencies --    971.4332               980.0084               988.7102
 Red. masses --      1.4848                 2.4870                 1.9901
 Frc consts  --      0.8256                 1.4073                 1.1462
 IR Inten    --      2.8527                 1.4529                15.1365

                     46                     47                     48
                      A                      A                      A
 Frequencies --   1020.9870              1025.9527              1039.0601
 Red. masses --      1.4178                 2.0795                 1.9486
 Frc consts  --      0.8708                 1.2896                 1.2395
 IR Inten    --      0.6392                10.6427                 0.8766

                     49                     50                     51
                      A                      A                      A
 Frequencies --   1042.4429              1048.8564              1074.0374
 Red. masses --      1.4954                 2.3127                 1.7847
 Frc consts  --      0.9575                 1.4990                 1.2130
 IR Inten    --      0.1804                 1.9836                26.9127

                     52                     53                     54
                      A                      A                      A
 Frequencies --   1095.0322              1105.0564              1126.0395
 Red. masses --      2.2497                 2.3784                 2.3283
 Frc consts  --      1.5894                 1.7112                 1.7394
 IR Inten    --     44.2480                55.7891                22.9753

                     55                     56                     57
                      A                      A                      A
 Frequencies --   1127.3563              1149.8679              1164.9498
 Red. masses --      2.4319                 1.8033                 1.8871
 Frc consts  --      1.8210                 1.4048                 1.5089
 IR Inten    --     13.2872                12.8742                16.1363

                     58                     59                     60
                      A                      A                      A
 Frequencies --   1190.2868              1209.2074              1221.9522
 Red. masses --      1.2208                 1.6268                 1.8756
 Frc consts  --      1.0190                 1.4015                 1.6501
 IR Inten    --      7.1053                37.0043                21.1500

                     61                     62                     63
                      A                      A                      A
 Frequencies --   1231.4584              1256.0118              1259.8717
 Red. masses --      1.1893                 2.1051                 2.1124
 Frc consts  --      1.0626                 1.9567                 1.9755
 IR Inten    --      0.7064                 3.7909                 5.5735

                     64                     65                     66
                      A                      A                      A
 Frequencies --   1275.0214              1287.4665              1300.2673
 Red. masses --      2.1451                 1.2639                 1.2938
 Frc consts  --      2.0546                 1.2343                 1.2888
 IR Inten    --      7.9380                 6.9962                 0.2820

                     67                     68                     69
                      A                      A                      A
 Frequencies --   1307.1690              1312.0530              1314.6214
 Red. masses --      1.3972                 1.2958                 1.2145
 Frc consts  --      1.4066                 1.3143                 1.2366
 IR Inten    --      1.3215                11.3544                 5.3644

                     70                     71                     72
                      A                      A                      A
 Frequencies --   1328.6252              1354.7878              1365.9227
 Red. masses --      1.4650                 1.3954                 1.5026
 Frc consts  --      1.5237                 1.5090                 1.6517
 IR Inten    --      5.1801                15.8329                 6.2400

                     73                     74                     75
                      A                      A                      A
 Frequencies --   1374.2434              1377.2968              1385.0024
 Red. masses --      1.3277                 1.3386                 1.2968
 Frc consts  --      1.4773                 1.4960                 1.4657
 IR Inten    --      5.6457                 7.3856                 5.4752

                     76                     77                     78
                      A                      A                      A
 Frequencies --   1395.6806              1408.2814              1409.5913
 Red. masses --      1.3026                 1.3722                 1.4090
 Frc consts  --      1.4949                 1.6034                 1.6495
 IR Inten    --     14.3076                 9.2505                 0.4352

                     79                     80                     81
                      A                      A                      A
 Frequencies --   1417.2209              1419.5750              1420.6543
 Red. masses --      1.3816                 1.3134                 1.3153
 Frc consts  --      1.6349                 1.5594                 1.5641
 IR Inten    --      2.8644                11.1056                 1.9318

                     82                     83                     84
                      A                      A                      A
 Frequencies --   1428.3862              1442.0130              1455.4671
 Red. masses --      1.2732                 1.2184                 1.3594
 Frc consts  --      1.5305                 1.4927                 1.6967
 IR Inten    --      5.2240                 5.5553                 9.9398

                     85                     86                     87
                      A                      A                      A
 Frequencies --   1504.5467              1506.2704              1510.8661
 Red. masses --      1.0894                 1.0912                 1.0536
 Frc consts  --      1.4530                 1.4586                 1.4170
 IR Inten    --      5.0706                 2.4160                 0.2226

                     88                     89                     90
                      A                      A                      A
 Frequencies --   1512.5915              1517.9680              1519.2673
 Red. masses --      1.0824                 1.0550                 1.0770
 Frc consts  --      1.4591                 1.4323                 1.4647
 IR Inten    --      2.5718                 1.1285                 2.3393

                     91                     92                     93
                      A                      A                      A
 Frequencies --   1521.4124              1526.1210              1528.7943
 Red. masses --      1.0979                 1.0694                 1.0848
 Frc consts  --      1.4973                 1.4675                 1.4939
 IR Inten    --      4.7044                 5.9059                 3.6423

                     94                     95                     96
                      A                      A                      A
 Frequencies --   1532.3996              1534.2087              1538.9574
 Red. masses --      1.0741                 1.0737                 1.0865
 Frc consts  --      1.4860                 1.4890                 1.5161
 IR Inten    --      5.4907                10.5882                13.7434

                     97                     98                     99
                      A                      A                      A
 Frequencies --   1542.0445              1552.7733              1817.7999
 Red. masses --      1.0682                 1.0941                11.9901
 Frc consts  --      1.4966                 1.5542                23.3434
 IR Inten    --      3.5617                 2.6279               129.0831

                    100                    101                    102
                      A                      A                      A
 Frequencies --   2983.3980              3010.7566              3016.7869
 Red. masses --      1.0676                 1.0634                 1.0655
 Frc consts  --      5.5987                 5.6791                 5.7135
 IR Inten    --     41.8062                28.1416                42.2058

                    103                    104                    105
                      A                      A                      A
 Frequencies --   3022.3046              3030.5534              3033.3180
 Red. masses --      1.0633                 1.0690                 1.0652
 Frc consts  --      5.7223                 5.7848                 5.7748
 IR Inten    --     14.6297                19.5794                 7.7908

                    106                    107                    108
                      A                      A                      A
 Frequencies --   3045.3627              3045.5848              3047.1406
 Red. masses --      1.0510                 1.0685                 1.0608
 Frc consts  --      5.7432                 5.8395                 5.8030
 IR Inten    --     32.1777                46.1482                60.0297

                    109                    110                    111
                      A                      A                      A
 Frequencies --   3047.3921              3049.6862              3054.3586
 Red. masses --      1.0432                 1.0918                 1.0603
 Frc consts  --      5.7081                 5.9829                 5.8278
 IR Inten    --     27.0129                11.0792                22.4597

                    112                    113                    114
                      A                      A                      A
 Frequencies --   3056.6954              3057.2654              3061.7011
 Red. masses --      1.0665                 1.0735                 1.0985
 Frc consts  --      5.8711                 5.9120                 6.0673
 IR Inten    --     52.0059                30.3517                10.8542

                    115                    116                    117
                      A                      A                      A
 Frequencies --   3073.5315              3078.9178              3081.6191
 Red. masses --      1.1020                 1.0966                 1.0980
 Frc consts  --      6.1336                 6.1248                 6.1435
 IR Inten    --     49.2163                26.9482                34.8113

                    118                    119                    120
                      A                      A                      A
 Frequencies --   3083.7489              3092.8655              3096.3339
 Red. masses --      1.0942                 1.1006                 1.0919
 Frc consts  --      6.1305                 6.2033                 6.1676
 IR Inten    --     37.0849                26.6701                57.8475

                    121                    122                    123
                      A                      A                      A
 Frequencies --   3099.6514              3105.2037              3111.2546
 Red. masses --      1.0944                 1.1032                 1.1027
 Frc consts  --      6.1953                 6.2672                 6.2890
 IR Inten    --     89.4141                19.8395                47.4838

                    124                    125                    126
                      A                      A                      A
 Frequencies --   3113.0545              3130.0535              3134.4728
 Red. masses --      1.1020                 1.1023                 1.1017
 Frc consts  --      6.2925                 6.3626                 6.3776
 IR Inten    --     42.4971                 5.3913                27.9104

 - Thermochemistry -
 -------------------
 Temperature   298.150 Kelvin.  Pressure   1.00000 Atm.
 Atom     1 has atomic number  6 and mass  12.00000

 Molecular mass:   237.20926 amu.
 Principal axes and moments of inertia in atomic units:
                           1         2         3
     Eigenvalues --  1816.943037263.434207624.83620
           X            0.99999  -0.00197   0.00388
           Y            0.00200   0.99996  -0.00825
           Z           -0.00387   0.00826   0.99996
 This molecule is an asymmetric top.
 Rotational symmetry number  1.
 Warning -- assumption of classical behavior for rotation
           may cause significant error
 Rotational temperatures (Kelvin)      0.04767     0.01192     0.01136
 Rotational constants (GHZ):           0.99328     0.24847     0.23669
 Zero-point vibrational energy    1066301.2 (Joules/Mol)
                                  254.85210 (Kcal/Mol)
 Warning -- explicit consideration of  27 degrees of freedom as
           vibrations may cause significant error
 Vibrational temperatures:     47.63    53.03    78.82   125.84   141.08
          (Kelvin)            163.95   235.63   286.54   295.53   319.00
                              325.86   350.11   378.86   417.69   440.30
                              446.80   464.44   502.68   530.28   552.25
                              607.68   611.91   700.32   704.71   720.20
                              818.76   892.15   945.98   972.17  1029.51
                             1087.18  1148.93  1153.36  1156.22  1189.11
                             1245.12  1272.19  1297.33  1309.43  1344.03
                             1373.08  1377.48  1397.68  1410.01  1422.53
                             1468.97  1476.12  1494.98  1499.84  1509.07
                             1545.30  1575.51  1589.93  1620.12  1622.01
                             1654.40  1676.10  1712.56  1739.78  1758.12
                             1771.79  1807.12  1812.67  1834.47  1852.38
                             1870.79  1880.72  1887.75  1891.45  1911.60
                             1949.24  1965.26  1977.23  1981.62  1992.71
                             2008.07  2026.20  2028.09  2039.06  2042.45
                             2044.00  2055.13  2074.74  2094.09  2164.71
                             2167.19  2173.80  2176.28  2184.02  2185.89
                             2188.97  2195.75  2199.59  2204.78  2207.38
                             2214.22  2218.66  2234.09  2615.41  4292.44
                             4331.81  4340.48  4348.42  4360.29  4364.27
                             4381.60  4381.92  4384.16  4384.52  4387.82
                             4394.54  4397.90  4398.72  4405.10  4422.13
                             4429.88  4433.76  4436.83  4449.94  4454.93
                             4459.71  4467.70  4476.40  4478.99  4503.45
                             4509.81

 Zero-point correction=                           0.406133 (Hartree/Particle)
 Thermal correction to Energy=                    0.423632
 Thermal correction to Enthalpy=                  0.424576
 Thermal correction to Gibbs Free Energy=         0.361021
 Sum of electronic and zero-point Energies=           -717.504460
 Sum of electronic and thermal Energies=              -717.486961
 Sum of electronic and thermal Enthalpies=            -717.486017
 Sum of electronic and thermal Free Energies=         -717.549572

                     E (Thermal)             CV                S
                      KCal/Mol        Cal/Mol-Kelvin    Cal/Mol-Kelvin
 Total                  265.833             69.006            133.764
 Electronic               0.000              0.000              0.000
 Translational            0.889              2.981             42.293
 Rotational               0.889              2.981             32.975
 Vibrational            264.056             63.044             58.495
 Vibration     1          0.594              1.983              5.634
 Vibration     2          0.594              1.982              5.421
 Vibration     3          0.596              1.976              4.637
 Vibration     4          0.601              1.958              3.716
 Vibration     5          0.603              1.951              3.493
 Vibration     6          0.607              1.938              3.200
 Vibration     7          0.623              1.887              2.506
 Vibration     8          0.637              1.841              2.141
 Vibration     9          0.640              1.832              2.084
 Vibration    10          0.648              1.808              1.945
 Vibration    11          0.650              1.801              1.907
 Vibration    12          0.659              1.774              1.778
 Vibration    13          0.670              1.740              1.640
 Vibration    14          0.686              1.692              1.472
 Vibration    15          0.696              1.662              1.384
 Vibration    16          0.699              1.654              1.359
 Vibration    17          0.708              1.630              1.296
 Vibration    18          0.727              1.577              1.169
 Vibration    19          0.741              1.537              1.086
 Vibration    20          0.753              1.505              1.024
 Vibration    21          0.785              1.422              0.884
 Vibration    22          0.787              1.415              0.874
 Vibration    23          0.843              1.279              0.692
 Vibration    24          0.846              1.273              0.684
 Vibration    25          0.856              1.249              0.657
 Vibration    26          0.925              1.098              0.506
 Vibration    27          0.980              0.990              0.416

 Optimization completed.
    -- Stationary point found.
 Normal termination of Gaussian 16 at Fri Dec 11 12:21:03 2020.

 ----------------------------------------------------------------------
 # B3LYP/6-311++G(d,p) empiricaldispersion=gd3bj scf=xqc pop=npa geom=c
 heck
 ----------------------------------------------------------------------

 --------------------------------------
 CID_79865850_JID_7158_Energie_neutraal
 --------------------------------------
 Structure from the checkpoint file:  "JID_7158.chk"
 Charge =  0 Multiplicity = 1

 SCF Done:  E(RB3LYP) =  -718.105427561     A.U. after   14 cycles
 Normal termination of Gaussian 16 at Fri Dec 11 12:32:18 2020.

 ----------------------------------------------------------------------
 # B3LYP/6-311++G(d,p) empiricaldispersion=gd3bj scf=xqc pop=npa geom=c
 heck
 ----------------------------------------------------------------------

 ------------------------------------
 CID_79865850_JID_7158_Energie_kation
 ------------------------------------
 Structure from the checkpoint file:  "JID_7158.chk"
 Charge =  1 Multiplicity = 2

 SCF Done:  E(UB3LYP) =  -717.833302729     A.U. after   23 cycles
 Normal termination of Gaussian 16 at Fri Dec 11 13:00:11 2020.
 Gaussian 16:  ES64L-G16RevA.03 25-Dec-2016

 ----------------------------------------------------------------------
 # B3LYP/6-311++G(d,p) empiricaldispersion=gd3bj scf=xqc pop=npa geom=c
 heck
 ----------------------------------------------------------------------

 -----------------------------------
 CID_79865850_JID_7158_Energie_anion
 -----------------------------------
 Structure from the checkpoint file:  "JID_7158.chk"
 Charge = -1 Multiplicity = 2

                         Standard orientation:
 ---------------------------------------------------------------------
 Center     Atomic      Atomic             Coordinates (Angstroms)
 Number     Number       Type             X           Y           Z
 ---------------------------------------------------------------------
      1          6           0       -3.025552    1.984004   -0.048453
      2          6           0       -3.157377    0.457828   -0.016456
      3          6           0       -3.155693   -0.206102   -1.411014
      4          6           0       -2.449003   -1.565486   -1.211710
      5          6           0       -1.333357   -1.265978   -0.193175
      6          6           0       -1.932573   -0.171367    0.678786
      7          8           0       -1.538704    0.150014    1.782900
      8          6           0       -0.032746   -0.809152   -0.937341
      9          7           0        1.075582   -0.293613   -0.164153
     10          6           0        1.025276    1.127766    0.172768
     11          6           0        2.395032    1.836728    0.145211
     12          6           0        3.346009    1.354676   -0.967676
     13          6           0        4.407405    0.337237   -0.517975
     14          6           0        3.924586   -1.052241   -0.071088
     15          6           0        3.039002   -1.078602    1.192018
     16          6           0        1.537656   -1.190055    0.887980
     17          6           0       -4.401979    0.051111    0.798345
     18          1           0       -3.912128    2.440367   -0.503686
     19          1           0       -2.148638    2.293761   -0.628643
     20          1           0       -2.913416    2.374948    0.967619
     21          1           0       -4.163795   -0.312468   -1.824748
     22          1           0       -2.583949    0.410908   -2.115115
     23          1           0       -2.059878   -1.975650   -2.150355
     24          1           0       -3.150841   -2.302394   -0.804257
     25          1           0       -1.079048   -2.121651    0.440095
     26          1           0        0.310169   -1.694193   -1.492324
     27          1           0       -0.300068   -0.057984   -1.688557
     28          1           0        0.390364    1.603428   -0.584350
     29          1           0        0.540530    1.306256    1.143140
     30          1           0        2.891746    1.745729    1.117515
     31          1           0        2.191050    2.908785    0.026007
     32          1           0        3.880767    2.220682   -1.378612
     33          1           0        2.758448    0.928644   -1.790123
     34          1           0        4.989074    0.784008    0.302650
     35          1           0        5.116484    0.196576   -1.345621
     36          1           0        4.819163   -1.662651    0.108113
     37          1           0        3.384523   -1.529977   -0.898649
     38          1           0        3.243121   -0.201561    1.815655
     39          1           0        3.299196   -1.944337    1.814696
     40          1           0        0.951868   -1.064169    1.814536
     41          1           0        1.352134   -2.211943    0.532429
     42          1           0       -4.306539    0.396399    1.832307
     43          1           0       -5.301220    0.497717    0.358824
     44          1           0       -4.538670   -1.036273    0.816016
 ---------------------------------------------------------------------

 SCF Done:  E(UB3LYP) =  -718.092435236     A.U. after   33 cycles
 SCF Done:  E(UB3LYP) =  -718.092435236     a.u. after    1 cycles

 The electronic state is 2-A.
 Alpha  occ. eigenvalues --  -18.99381 -14.19431 -10.12939 -10.09214 -10.08443
 Alpha  occ. eigenvalues --  -10.08381 -10.08137 -10.06876 -10.06673 -10.06615
 Alpha  occ. eigenvalues --  -10.06514 -10.06494 -10.06484 -10.06482 -10.06445
 Alpha  occ. eigenvalues --  -10.06413 -10.06057  -0.92753  -0.81960  -0.74391
 Alpha  occ. eigenvalues --   -0.70661  -0.67798  -0.67575  -0.62740  -0.59235
 Alpha  occ. eigenvalues --   -0.59088  -0.58524  -0.54780  -0.53413  -0.49549
 Alpha  occ. eigenvalues --   -0.48624  -0.46372  -0.44704  -0.40378  -0.39641
 Alpha  occ. eigenvalues --   -0.37302  -0.36612  -0.35699  -0.35398  -0.34391
 Alpha  occ. eigenvalues --   -0.34239  -0.33560  -0.33252  -0.32906  -0.32161
 Alpha  occ. eigenvalues --   -0.31087  -0.30167  -0.28845  -0.27822  -0.27411
 Alpha  occ. eigenvalues --   -0.26590  -0.26253  -0.26074  -0.25654  -0.25069
 Alpha  occ. eigenvalues --   -0.24668  -0.23819  -0.23418  -0.22764  -0.22400
 Alpha  occ. eigenvalues --   -0.22169  -0.21909  -0.21702  -0.20164  -0.12985
 Alpha  occ. eigenvalues --   -0.10270   0.04495
 Alpha virt. eigenvalues --    0.06279   0.06581   0.07118   0.07707   0.08081
 Alpha virt. eigenvalues --    0.08242   0.08829   0.09760   0.09862   0.10017
 Alpha virt. eigenvalues --    0.10342   0.10965   0.11228   0.11487   0.12479

  Beta  occ. eigenvalues --  -18.99262 -14.19429 -10.12773 -10.09171 -10.08433
  Beta  occ. eigenvalues --  -10.08366 -10.08148 -10.06870 -10.06681 -10.06596
  Beta  occ. eigenvalues --  -10.06495 -10.06490 -10.06479 -10.06462 -10.06438
  Beta  occ. eigenvalues --  -10.06401 -10.06026  -0.92506  -0.81944  -0.74301
  Beta  occ. eigenvalues --   -0.70641  -0.67778  -0.67531  -0.62707  -0.59171
  Beta  occ. eigenvalues --   -0.59028  -0.58494  -0.54633  -0.53305  -0.49520
  Beta  occ. eigenvalues --   -0.48572  -0.46306  -0.44659  -0.40262  -0.39574
  Beta  occ. eigenvalues --   -0.37233  -0.36518  -0.35640  -0.35359  -0.34316
  Beta  occ. eigenvalues --   -0.34203  -0.33501  -0.33199  -0.32859  -0.32128
  Beta  occ. eigenvalues --   -0.30899  -0.30117  -0.28781  -0.27741  -0.27356
  Beta  occ. eigenvalues --   -0.26461  -0.26186  -0.25964  -0.25626  -0.25024
  Beta  occ. eigenvalues --   -0.24623  -0.23732  -0.23355  -0.22541  -0.22342
  Beta  occ. eigenvalues --   -0.22102  -0.21875  -0.21653  -0.20142  -0.12889
  Beta  occ. eigenvalues --   -0.10234
  Beta virt. eigenvalues --    0.06386   0.06837   0.07330   0.07791   0.08175
  Beta virt. eigenvalues --    0.08437   0.08817   0.09146   0.09948   0.10183
  Beta virt. eigenvalues --    0.10392   0.10621   0.11079   0.11374   0.11719

 Mulliken charges and spin densities:
               1          2
     1  C    0.094646  -0.733151
     2  C   -0.343087   1.209463
     3  C   -0.090825  -0.407415
     4  C    0.485969  -1.159529
     5  C   -0.216707   1.223683
     6  C   -0.154987  -0.352601
     7  O   -0.258361   0.052249
     8  C    0.901168  -1.747704
     9  N    0.232639   0.111182
    10  C   -0.228790  -0.119835
    11  C   -0.557036   0.138959
    12  C    0.101587  -0.184005
    13  C   -0.430766  -0.217201
    14  C   -0.001779  -0.089217
    15  C   -0.402482  -0.087175
    16  C    0.185596  -0.468473
    17  C    0.107917  -0.763943
    18  H   -0.184895   0.335756
    19  H   -0.193273   0.331116
    20  H    0.144464   0.021239
    21  H   -0.209041   0.387396
    22  H   -0.076972   0.222697
    23  H   -0.241040   0.404569
    24  H   -0.243503   0.403210
    25  H   -0.136365   0.387548
    26  H   -0.195121   0.405892
    27  H    0.056638   0.103616
    28  H    0.243798  -0.132693
    29  H    0.151078   0.003219
    30  H    0.129013  -0.006423
    31  H    0.039214   0.118581
    32  H    0.006367   0.142954
    33  H   -0.062139   0.200165
    34  H    0.085900   0.044216
    35  H   -0.053001   0.189966
    36  H   -0.052498   0.203194
    37  H   -0.008062   0.145768
    38  H    0.145961  -0.028528
    39  H   -0.013623   0.178419
    40  H    0.175443  -0.000265
    41  H   -0.144571   0.290297
    42  H    0.125107   0.043931
    43  H   -0.004141   0.148289
    44  H    0.090558   0.050583
 Sum of Mulliken charges =  -1.00000   1.00000

 Dipole moment (field-independent basis, Debye):
    X=              2.2073    Y=              2.4819    Z=              2.3414  Tot=              4.0637
 Quadrupole moment (field-independent basis, Debye-Ang):
   XX=           -182.4834   YY=           -153.1134   ZZ=           -146.5208
   XY=              3.6927   XZ=             -0.0281   YZ=             -1.3693

 Summary of Natural Population Analysis:

                                       Natural Population
                Natural  -----------------------------------------------
    Atom  No    Charge         Core      Valence    Rydberg      Total
 -----------------------------------------------------------------------
      C    1   -0.27964      0.99963     2.27255    0.00746     3.27964
      C    2   -0.08939      0.99953     2.07710    0.01276     3.08939
      C    3   -0.18601      0.99961     2.17717    0.00924     3.18601
      C    4   -0.18790      0.99963     2.17910    0.00917     3.18790
      C    5   -0.17010      0.99954     2.15866    0.01190     3.17010
      C    6    0.33478      0.99957     1.64114    0.02451     2.66522
      O    7   -0.28869      0.99987     3.28213    0.00668     4.28869
      C    8   -0.06522      0.99958     2.05301    0.01262     3.06522
      N    9   -0.29295      0.99970     2.77919    0.01406     3.79295
      C   10   -0.08163      0.99961     2.07225    0.00978     3.08163
      C   11   -0.19527      0.99963     2.18713    0.00851     3.19527
      C   12   -0.19326      0.99962     2.18507    0.00857     3.19326
      C   13   -0.18245      0.99962     2.17440    0.00843     3.18245
      C   14   -0.19240      0.99962     2.18391    0.00887     3.19240
      C   15   -0.19564      0.99963     2.18760    0.00842     3.19564
      C   16   -0.08194      0.99961     2.07130    0.01104     3.08194
      C   17   -0.27590      0.99962     2.27077    0.00550     3.27590
      H   18    0.09798      0.00000     0.40109    0.00093     0.40202
      H   19    0.10029      0.00000     0.39870    0.00100     0.39971
      H   20    0.10450      0.00000     0.39457    0.00093     0.39550
      H   21    0.10091      0.00000     0.39776    0.00133     0.39909
      H   22    0.09755      0.00000     0.40108    0.00136     0.40245
      H   23    0.10104      0.00000     0.39783    0.00113     0.39896
      H   24    0.09814      0.00000     0.40036    0.00150     0.40186
      H   25    0.11110      0.00000     0.38676    0.00214     0.38890
      H   26    0.09733      0.00000     0.40078    0.00189     0.40267
      H   27    0.09403      0.00000     0.40412    0.00185     0.40597
      H   28    0.09242      0.00000     0.40614    0.00144     0.40758
      H   29    0.09564      0.00000     0.40294    0.00142     0.40436
      H   30    0.09003      0.00000     0.40873    0.00124     0.40997
      H   31    0.09669      0.00000     0.40248    0.00083     0.40331
      H   32    0.09340      0.00000     0.40571    0.00089     0.40660
      H   33    0.10083      0.00000     0.39759    0.00157     0.39917
      H   34    0.08661      0.00000     0.41231    0.00108     0.41339
      H   35    0.09507      0.00000     0.40405    0.00088     0.40493
      H   36    0.09404      0.00000     0.40505    0.00091     0.40596
      H   37    0.09994      0.00000     0.39853    0.00153     0.40006
      H   38    0.09114      0.00000     0.40758    0.00128     0.40886
      H   39    0.09743      0.00000     0.40173    0.00084     0.40257
      H   40    0.09283      0.00000     0.40552    0.00164     0.40717
      H   41    0.09428      0.00000     0.40420    0.00152     0.40572
      H   42    0.10383      0.00000     0.39519    0.00098     0.39617
      H   43    0.09719      0.00000     0.40191    0.00089     0.40281
      H   44    0.09936      0.00000     0.39963    0.00101     0.40064
 =======================================================================
   * Total *   -0.00000     16.99361    48.79484    0.21155    66.00000

 Normal termination of Gaussian 16 at Fri Dec 11 13:36:49 2020.
