 Gaussian 16, Revision A.03,

 -----------------------------------------------------------
 # opt freq B3LYP/6-31G(d) empiricaldispersion=gd3bj scf=xqc
 -----------------------------------------------------------

 ------------------------------
 CID_131239199_JID_698_neutraal
 ------------------------------
 Symbolic Z-matrix:
 Charge =  0 Multiplicity = 1

 SCF Done:  E(RB3LYP) =  -515.641379341     A.U. after   15 cycles
 SCF Done:  E(RB3LYP) =  -515.645100626     A.U. after   12 cycles
 SCF Done:  E(RB3LYP) =  -515.645391345     A.U. after   12 cycles
 SCF Done:  E(RB3LYP) =  -515.645605870     A.U. after   12 cycles
 SCF Done:  E(RB3LYP) =  -515.646125314     A.U. after   11 cycles
 SCF Done:  E(RB3LYP) =  -515.646490144     A.U. after   12 cycles
 SCF Done:  E(RB3LYP) =  -515.646589259     A.U. after   11 cycles
 SCF Done:  E(RB3LYP) =  -515.646605742     A.U. after   10 cycles
 SCF Done:  E(RB3LYP) =  -515.646610145     A.U. after   10 cycles
 SCF Done:  E(RB3LYP) =  -515.646610499     A.U. after    8 cycles
 SCF Done:  E(RB3LYP) =  -515.646610602     A.U. after    8 cycles
 Optimization completed.
    -- Stationary point found.
 Normal termination of Gaussian 16 at Tue Dec  8 12:25:02 2020.

 --------------------------------------------------------------------
 #N Geom=AllCheck Guess=TCheck SCRF=Check GenChk RB3LYP/6-31G(d) Freq
 --------------------------------------------------------------------

 Structure from the checkpoint file:  "JID_698.chk"
 ------------------------------
 CID_131239199_JID_698_neutraal
 ------------------------------
 Charge =  0 Multiplicity = 1

 SCF Done:  E(RB3LYP) =  -515.646610602     A.U. after    1 cycles

  Exact polarizability: 130.523   6.441  80.253  -1.108   0.448  52.258
 Approx polarizability: 164.900  22.171 124.753  -4.638  -2.213  75.412

                      1                      2                      3
                      A                      A                      A
 Frequencies --     53.3472                69.8712                88.9940
 Red. masses --      4.8643                 2.4452                 3.5728
 Frc consts  --      0.0082                 0.0070                 0.0167
 IR Inten    --      0.8428                 0.4814                 0.8880

                      4                      5                      6
                      A                      A                      A
 Frequencies --    111.4535               140.7303               164.1963
 Red. masses --      2.5847                 1.3202                 2.5432
 Frc consts  --      0.0189                 0.0154                 0.0404
 IR Inten    --      1.4177                 0.2343                 6.3191

                      7                      8                      9
                      A                      A                      A
 Frequencies --    215.8616               222.5905               257.6364
 Red. masses --      2.2723                 3.1434                 1.8632
 Frc consts  --      0.0624                 0.0918                 0.0729
 IR Inten    --      8.5334                 2.1306                 0.3829

                     10                     11                     12
                      A                      A                      A
 Frequencies --    307.0379               317.3000               332.7251
 Red. masses --      1.2095                 2.9472                 2.7014
 Frc consts  --      0.0672                 0.1748                 0.1762
 IR Inten    --     80.0897                14.7370                 4.5959

                     13                     14                     15
                      A                      A                      A
 Frequencies --    380.9718               417.5243               541.0225
 Red. masses --      4.5324                 2.9580                 4.6737
 Frc consts  --      0.3876                 0.3038                 0.8060
 IR Inten    --     14.3729                58.3303                 0.5693

                     16                     17                     18
                      A                      A                      A
 Frequencies --    580.5255               720.2844               738.4577
 Red. masses --      4.0882                 4.2334                 5.6725
 Frc consts  --      0.8117                 1.2941                 1.8225
 IR Inten    --      6.0229                11.4170                10.0889

                     19                     20                     21
                      A                      A                      A
 Frequencies --    813.1855               847.7156               860.5393
 Red. masses --      1.2078                 3.9714                 2.0367
 Frc consts  --      0.4706                 1.6815                 0.8886
 IR Inten    --      4.3147                33.2561                24.4669

                     22                     23                     24
                      A                      A                      A
 Frequencies --    872.8797               980.2665               991.2947
 Red. masses --      3.9769                 2.1608                 1.1550
 Frc consts  --      1.7853                 1.2234                 0.6687
 IR Inten    --     14.2519                21.1057                32.7576

                     25                     26                     27
                      A                      A                      A
 Frequencies --   1088.3424              1102.6720              1129.9410
 Red. masses --      5.3807                 3.0553                 2.0264
 Frc consts  --      3.7551                 2.1888                 1.5244
 IR Inten    --     10.9282                49.1283               275.2526

                     28                     29                     30
                      A                      A                      A
 Frequencies --   1146.0420              1187.2264              1217.6855
 Red. masses --      1.9579                 1.2706                 1.4703
 Frc consts  --      1.5151                 1.0551                 1.2845
 IR Inten    --     24.3311                 0.7635                16.6122

                     31                     32                     33
                      A                      A                      A
 Frequencies --   1269.0632              1280.2997              1323.1942
 Red. masses --      1.7624                 1.6916                 2.6858
 Frc consts  --      1.6723                 1.6337                 2.7706
 IR Inten    --     37.2363               330.0911               171.2950

                     34                     35                     36
                      A                      A                      A
 Frequencies --   1357.9735              1372.1987              1400.8079
 Red. masses --      1.4887                 1.7039                 1.2064
 Frc consts  --      1.6175                 1.8903                 1.3948
 IR Inten    --     28.2565                 7.5899                44.0224

                     37                     38                     39
                      A                      A                      A
 Frequencies --   1412.6319              1442.7865              1494.4478
 Red. masses --      1.3494                 1.3482                 1.2133
 Frc consts  --      1.5865                 1.6535                 1.5965
 IR Inten    --     52.5745                64.4121                15.7196

                     40                     41                     42
                      A                      A                      A
 Frequencies --   1509.8302              1511.5454              1520.7260
 Red. masses --      1.0778                 1.0488                 1.0469
 Frc consts  --      1.4476                 1.4119                 1.4265
 IR Inten    --      3.1273                 4.5682                 8.3801

                     43                     44                     45
                      A                      A                      A
 Frequencies --   1529.1046              1541.5862              1706.9755
 Red. masses --      1.0509                 1.0546                 5.7489
 Frc consts  --      1.4477                 1.4766                 9.8693
 IR Inten    --      6.9905                 1.8345               237.4820

                     46                     47                     48
                      A                      A                      A
 Frequencies --   1797.6970              3029.4710              3062.8292
 Red. masses --     10.7045                 1.0678                 1.0355
 Frc consts  --     20.3821                 5.7742                 5.7234
 IR Inten    --    440.2444                39.3156                22.4125

                     49                     50                     51
                      A                      A                      A
 Frequencies --   3068.8995              3101.7687              3133.2547
 Red. masses --      1.0294                 1.0959                 1.1031
 Frc consts  --      5.7124                 6.2119                 6.3803
 IR Inten    --     43.2579                10.3472                29.7705

                     52                     53                     54
                      A                      A                      A
 Frequencies --   3140.1395              3144.3313              3169.9342
 Red. masses --      1.1071                 1.1027                 1.1068
 Frc consts  --      6.4317                 6.4234                 6.5527
 IR Inten    --     26.8599                23.8653                21.5256

                     55                     56                     57
                      A                      A                      A
 Frequencies --   3222.0448              3258.7873              3716.7326
 Red. masses --      1.0904                 1.0899                 1.0683
 Frc consts  --      6.6695                 6.8197                 8.6946
 IR Inten    --      0.9993                 1.1648                42.8052

 - Thermochemistry -
 -------------------
 Temperature   298.150 Kelvin.  Pressure   1.00000 Atm.
 Atom     1 has atomic number  6 and mass  12.00000

 Molecular mass:   145.07389 amu.
 Principal axes and moments of inertia in atomic units:
                           1         2         3
     Eigenvalues --   526.172273428.995763883.54050
           X            0.99999  -0.00375  -0.00050
           Y            0.00376   0.99991   0.01307
           Z            0.00045  -0.01307   0.99991
 This molecule is an asymmetric top.
 Rotational symmetry number  1.
 Warning -- assumption of classical behavior for rotation
           may cause significant error
 Rotational temperatures (Kelvin)      0.16461     0.02526     0.02230
 Rotational constants (GHZ):           3.42994     0.52632     0.46472
 Zero-point vibrational energy     457077.4 (Joules/Mol)
                                  109.24413 (Kcal/Mol)
 Warning -- explicit consideration of  16 degrees of freedom as
           vibrations may cause significant error
 Vibrational temperatures:     76.75   100.53   128.04   160.36   202.48
          (Kelvin)            236.24   310.58   320.26   370.68   441.76
                              456.52   478.72   548.13   600.72   778.41
                              835.25  1036.33  1062.48  1169.99  1219.67
                             1238.12  1255.88  1410.38  1426.25  1565.88
                             1586.50  1625.73  1648.90  1708.15  1751.98
                             1825.90  1842.07  1903.78  1953.82  1974.29
                             2015.45  2032.46  2075.85  2150.18  2172.31
                             2174.78  2187.99  2200.04  2218.00  2455.96
                             2586.49  4358.73  4406.73  4415.46  4462.75
                             4508.05  4517.96  4523.99  4560.83  4635.80
                             4688.67  5347.55

 Zero-point correction=                           0.174092 (Hartree/Particle)
 Thermal correction to Energy=                    0.185785
 Thermal correction to Enthalpy=                  0.186729
 Thermal correction to Gibbs Free Energy=         0.136003
 Sum of electronic and zero-point Energies=           -515.472519
 Sum of electronic and thermal Energies=              -515.460826
 Sum of electronic and thermal Enthalpies=            -515.459882
 Sum of electronic and thermal Free Energies=         -515.510608

                     E (Thermal)             CV                S
                      KCal/Mol        Cal/Mol-Kelvin    Cal/Mol-Kelvin
 Total                  116.582             40.649            106.762
 Electronic               0.000              0.000              0.000
 Translational            0.889              2.981             40.827
 Rotational               0.889              2.981             30.328
 Vibrational            114.804             34.688             35.607
 Vibration     1          0.596              1.976              4.689
 Vibration     2          0.598              1.968              4.157
 Vibration     3          0.602              1.957              3.682
 Vibration     4          0.607              1.940              3.243
 Vibration     5          0.615              1.913              2.794
 Vibration     6          0.623              1.886              2.501
 Vibration     7          0.645              1.817              1.994
 Vibration     8          0.648              1.807              1.938
 Vibration     9          0.667              1.750              1.678
 Vibration    10          0.697              1.660              1.378
 Vibration    11          0.704              1.641              1.324
 Vibration    12          0.715              1.610              1.247
 Vibration    13          0.751              1.511              1.035
 Vibration    14          0.781              1.432              0.900
 Vibration    15          0.896              1.159              0.563
 Vibration    16          0.937              1.073              0.484

                           ! Non-Optimized Parameters !
 Normal termination of Gaussian 16 at Tue Dec  8 12:28:33 2020.

 ----------------------------------------------------------------------
 # B3LYP/6-311++G(d,p) empiricaldispersion=gd3bj scf=xqc pop=npa geom=c
 heck
 ----------------------------------------------------------------------

 --------------------------------------
 CID_131239199_JID_698_Energie_neutraal
 --------------------------------------
 Structure from the checkpoint file:  "JID_698.chk"
 Charge =  0 Multiplicity = 1

 SCF Done:  E(RB3LYP) =  -515.810746576     A.U. after   14 cycles
 Normal termination of Gaussian 16 at Tue Dec  8 12:31:06 2020.

 ----------------------------------------------------------------------
 # B3LYP/6-311++G(d,p) empiricaldispersion=gd3bj scf=xqc pop=npa geom=c
 heck
 ----------------------------------------------------------------------

 ------------------------------------
 CID_131239199_JID_698_Energie_kation
 ------------------------------------
 Structure from the checkpoint file:  "JID_698.chk"
 Charge =  1 Multiplicity = 2

 SCF Done:  E(UB3LYP) =  -515.504130591     A.U. after   23 cycles
 Normal termination of Gaussian 16 at Tue Dec  8 12:49:51 2020.
 Gaussian 16:  ES64L-G16RevA.03 25-Dec-2016

 ----------------------------------------------------------------------
 # B3LYP/6-311++G(d,p) empiricaldispersion=gd3bj scf=xqc pop=npa geom=c
 heck
 ----------------------------------------------------------------------

 -----------------------------------
 CID_131239199_JID_698_Energie_anion
 -----------------------------------
 Structure from the checkpoint file:  "JID_698.chk"
 Charge = -1 Multiplicity = 2

                         Standard orientation:
 ---------------------------------------------------------------------
 Center     Atomic      Atomic             Coordinates (Angstroms)
 Number     Number       Type             X           Y           Z
 ---------------------------------------------------------------------
      1          6           0       -4.043543   -0.736625    0.176770
      2          6           0       -2.647408   -0.836416   -0.423841
      3          7           0       -1.716244    0.097180    0.218129
      4          6           0       -0.360636   -0.123904    0.096573
      5          6           0        0.602722    0.815286    0.004737
      6          6           0        2.026073    0.486459   -0.019885
      7          8           0        2.922858    1.304395   -0.119327
      8          8           0        2.268662   -0.855387    0.077677
      9          6           0        3.652362   -1.216976    0.046841
     10          8           0       -2.091293    1.435264   -0.083049
     11          1           0       -4.021079   -0.952026    1.250312
     12          1           0       -4.714944   -1.452907   -0.307637
     13          1           0       -4.453647    0.266375    0.028629
     14          1           0       -2.232043   -1.837969   -0.271343
     15          1           0       -2.674476   -0.645001   -1.506247
     16          1           0       -0.097514   -1.175745    0.148910
     17          1           0        0.362751    1.867619   -0.065880
     18          1           0        4.116672   -0.898788   -0.890926
     19          1           0        4.193192   -0.755493    0.877913
     20          1           0        3.674722   -2.304325    0.134016
     21          1           0       -2.319165    1.806880    0.785774
 ---------------------------------------------------------------------

 SCF Done:  E(UB3LYP) =  -515.802837646     A.U. after   32 cycles

 The electronic state is 2-A.
 Alpha  occ. eigenvalues --  -19.04772 -19.04478 -18.97885 -14.27011 -10.16949
 Alpha  occ. eigenvalues --  -10.12373 -10.09350 -10.09255 -10.04766 -10.04067
 Alpha  occ. eigenvalues --   -0.98401  -0.97132  -0.89299  -0.77166  -0.67783
 Alpha  occ. eigenvalues --   -0.63673  -0.59521  -0.52161  -0.48862  -0.45504
 Alpha  occ. eigenvalues --   -0.41845  -0.39962  -0.37690  -0.37325  -0.35526
 Alpha  occ. eigenvalues --   -0.33670  -0.33383  -0.31341  -0.28839  -0.27912
 Alpha  occ. eigenvalues --   -0.26901  -0.26405  -0.25035  -0.24505  -0.20815
 Alpha  occ. eigenvalues --   -0.19405  -0.19323  -0.15868  -0.10632   0.04654
 Alpha virt. eigenvalues --    0.07097   0.07807   0.08096   0.09442   0.10107
 Alpha virt. eigenvalues --    0.10828   0.11388   0.12086   0.12289   0.12984
 Alpha virt. eigenvalues --    0.13887   0.15828   0.16470   0.17257   0.17823

  Beta  occ. eigenvalues --  -19.04758 -19.04372 -18.97794 -14.27008 -10.16877
  Beta  occ. eigenvalues --  -10.12369 -10.09297 -10.09093 -10.04709 -10.04057
  Beta  occ. eigenvalues --   -0.98325  -0.96918  -0.89169  -0.76980  -0.67638
  Beta  occ. eigenvalues --   -0.63590  -0.59458  -0.51967  -0.48669  -0.45435
  Beta  occ. eigenvalues --   -0.41747  -0.39867  -0.37604  -0.37220  -0.35424
  Beta  occ. eigenvalues --   -0.33544  -0.33299  -0.31271  -0.28531  -0.27777
  Beta  occ. eigenvalues --   -0.26820  -0.26309  -0.24978  -0.24440  -0.20526
  Beta  occ. eigenvalues --   -0.19136  -0.19074  -0.15779  -0.10371
  Beta virt. eigenvalues --    0.06993   0.07780   0.08944   0.09451   0.09953
  Beta virt. eigenvalues --    0.10594   0.11043   0.11305   0.12526   0.12643
  Beta virt. eigenvalues --    0.13469   0.14310   0.15807   0.16622   0.17364

 Mulliken charges and spin densities:
               1          2
     1  C    1.214990  -1.739097
     2  C    0.196720  -0.315744
     3  N   -0.097181   0.145841
     4  C   -0.892998   0.432167
     5  C    0.962482  -0.621728
     6  C   -0.072556  -0.231195
     7  O   -0.348642   0.030941
     8  O   -0.152950   0.006280
     9  C   -0.121517  -0.131733
    10  O   -0.121356  -0.003967
    11  H   -0.483656   0.636203
    12  H   -0.427506   0.558211
    13  H   -0.197385   0.349856
    14  H   -0.418589   0.551571
    15  H   -0.157576   0.316631
    16  H   -0.068718   0.270021
    17  H    0.074604   0.141184
    18  H    0.125420   0.035718
    19  H    0.123946   0.037363
    20  H    0.055387   0.070731
    21  H   -0.192919   0.460747
 Sum of Mulliken charges =  -1.00000   1.00000

 Dipole moment (field-independent basis, Debye):
    X=              6.5011    Y=             -1.5311    Z=             -0.1116  Tot=              6.6799
 Quadrupole moment (field-independent basis, Debye-Ang):
   XX=           -126.2003   YY=            -93.2991   ZZ=            -81.4692
   XY=            -12.8342   XZ=              1.9171   YZ=             -1.4928

 Summary of Natural Population Analysis:

                                       Natural Population
                Natural  -----------------------------------------------
    Atom  No    Charge         Core      Valence    Rydberg      Total
 -----------------------------------------------------------------------
      C    1   -0.28910      0.99966     2.28441    0.00502     3.28910
      C    2   -0.08406      0.99961     2.07253    0.01192     3.08406
      N    3   -0.09587      0.99962     2.58064    0.01561     3.59587
      C    4    0.07112      0.99950     1.91678    0.01260     2.92888
      C    5   -0.20729      0.99950     2.19629    0.01150     3.20729
      C    6    0.39334      0.99965     1.58295    0.02406     2.60666
      O    7   -0.31683      0.99987     3.31140    0.00556     4.31683
      O    8   -0.28991      0.99987     3.28188    0.00816     4.28991
      C    9   -0.10288      0.99961     2.09476    0.00852     3.10288
      O   10   -0.28488      0.99991     3.27626    0.00872     4.28488
      H   11    0.09940      0.00000     0.39820    0.00240     0.40060
      H   12    0.10089      0.00000     0.39702    0.00209     0.39911
      H   13    0.10334      0.00000     0.39454    0.00213     0.39666
      H   14    0.09867      0.00000     0.39889    0.00244     0.40133
      H   15    0.09006      0.00000     0.40820    0.00174     0.40994
      H   16    0.10141      0.00000     0.39637    0.00222     0.39859
      H   17    0.11316      0.00000     0.38581    0.00103     0.38684
      H   18    0.08712      0.00000     0.41139    0.00149     0.41288
      H   19    0.08734      0.00000     0.41121    0.00145     0.41266
      H   20    0.08579      0.00000     0.41317    0.00104     0.41421
      H   21    0.23919      0.00000     0.25217    0.00864     0.26081
 =======================================================================
   * Total *    0.00000      9.99679    28.86487    0.13834    39.00000

 Normal termination of Gaussian 16 at Tue Dec  8 13:05:07 2020.
