 Gaussian 16, Revision A.03,

 -----------------------------------------------------------
 # opt freq B3LYP/6-31G(d) empiricaldispersion=gd3bj scf=xqc
 -----------------------------------------------------------

 --------------------------------
 CID_116181741_JID_10957_neutraal
 --------------------------------
 Symbolic Z-matrix:
 Charge =  0 Multiplicity = 1

 SCF Done:  E(RB3LYP) =  -1330.89446248     A.U. after   15 cycles
 SCF Done:  E(RB3LYP) =  -1330.90076583     A.U. after   14 cycles
 SCF Done:  E(RB3LYP) =  -1330.90075283     A.U. after   14 cycles
 SCF Done:  E(RB3LYP) =  -1330.90293886     A.U. after   13 cycles
 SCF Done:  E(RB3LYP) =  -1330.90717081     A.U. after   15 cycles
 SCF Done:  E(RB3LYP) =  -1330.90808419     A.U. after   13 cycles
 SCF Done:  E(RB3LYP) =  -1330.90849075     A.U. after   13 cycles
 SCF Done:  E(RB3LYP) =  -1330.90918494     A.U. after   12 cycles
 SCF Done:  E(RB3LYP) =  -1330.90962110     A.U. after   12 cycles
 SCF Done:  E(RB3LYP) =  -1330.91044446     A.U. after   13 cycles
 SCF Done:  E(RB3LYP) =  -1330.91230973     A.U. after    9 cycles
 SCF Done:  E(RB3LYP) =  -1330.91230945     A.U. after   10 cycles
 SCF Done:  E(RB3LYP) =  -1330.91231003     A.U. after    9 cycles
 SCF Done:  E(RB3LYP) =  -1330.91231012     A.U. after    7 cycles
 SCF Done:  E(RB3LYP) =  -1330.91231015     A.U. after    7 cycles
 Optimization completed.
    -- Stationary point found.
 Normal termination of Gaussian 16 at Sat Dec 12 17:12:30 2020.

 --------------------------------------------------------------------
 #N Geom=AllCheck Guess=TCheck SCRF=Check GenChk RB3LYP/6-31G(d) Freq
 --------------------------------------------------------------------

 Structure from the checkpoint file:  "JID_10957.chk"
 --------------------------------
 CID_116181741_JID_10957_neutraal
 --------------------------------
 Charge =  0 Multiplicity = 1

 SCF Done:  E(RB3LYP) =  -1330.91231015     A.U. after    1 cycles

  Exact polarizability: 192.986  -3.022 168.294 -17.846 -12.740 141.210
 Approx polarizability: 254.387  -8.957 304.176 -35.336 -26.756 229.551

                      1                      2                      3
                      A                      A                      A
 Frequencies --     12.3980                30.6417                35.0556
 Red. masses --      7.7376                 5.1853                 5.8558
 Frc consts  --      0.0007                 0.0029                 0.0042
 IR Inten    --      0.0540                 1.4376                 1.0702

                      4                      5                      6
                      A                      A                      A
 Frequencies --     45.0212                46.4678                63.3742
 Red. masses --      6.8276                 6.6907                 6.9505
 Frc consts  --      0.0082                 0.0085                 0.0164
 IR Inten    --      0.9403                 1.3244                 1.5857

                      7                      8                      9
                      A                      A                      A
 Frequencies --     79.6464               105.4791               143.5820
 Red. masses --      7.7937                 3.2237                 5.2091
 Frc consts  --      0.0291                 0.0211                 0.0633
 IR Inten    --      4.3373                 9.0680                 0.5876

                     10                     11                     12
                      A                      A                      A
 Frequencies --    157.5728               173.0260               201.8462
 Red. masses --      5.3077                 5.4913                 5.0731
 Frc consts  --      0.0776                 0.0969                 0.1218
 IR Inten    --      0.8190                 3.3296                 3.2787

                     13                     14                     15
                      A                      A                      A
 Frequencies --    207.1831               224.9918               245.0723
 Red. masses --      1.2520                 2.4062                 3.0106
 Frc consts  --      0.0317                 0.0718                 0.1065
 IR Inten    --      0.6946                 2.5261                 5.4756

                     16                     17                     18
                      A                      A                      A
 Frequencies --    259.8803               287.9605               301.9210
 Red. masses --      3.6778                 2.3671                 2.3878
 Frc consts  --      0.1463                 0.1156                 0.1282
 IR Inten    --     10.1842                 2.5866                 1.8978

                     19                     20                     21
                      A                      A                      A
 Frequencies --    312.3292               331.2841               334.5157
 Red. masses --      1.7601                 2.9725                 3.5542
 Frc consts  --      0.1012                 0.1922                 0.2343
 IR Inten    --      4.2342                 3.0915                 2.9649

                     22                     23                     24
                      A                      A                      A
 Frequencies --    376.3884               407.7879               428.3560
 Red. masses --      7.8837                 5.0076                 2.8919
 Frc consts  --      0.6580                 0.4906                 0.3126
 IR Inten    --     10.8969                 8.4258                 3.6029

                     25                     26                     27
                      A                      A                      A
 Frequencies --    435.1196               478.8601               516.1678
 Red. masses --      3.4761                 4.5268                 4.5507
 Frc consts  --      0.3878                 0.6116                 0.7144
 IR Inten    --     10.6720                12.3193                14.1715

                     28                     29                     30
                      A                      A                      A
 Frequencies --    523.7798               537.7603               559.8730
 Red. masses --      2.9016                 2.1172                 3.7551
 Frc consts  --      0.4690                 0.3607                 0.6935
 IR Inten    --      1.6212                 6.5853                20.1381

                     31                     32                     33
                      A                      A                      A
 Frequencies --    604.8075               629.1239               639.0817
 Red. masses --      2.4824                 2.7682                 1.7583
 Frc consts  --      0.5350                 0.6455                 0.4231
 IR Inten    --     66.8168                21.7016               100.1363

                     34                     35                     36
                      A                      A                      A
 Frequencies --    644.0885               677.7199               679.0625
 Red. masses --      3.4041                 2.0133                 2.3351
 Frc consts  --      0.8320                 0.5448                 0.6344
 IR Inten    --     31.5457                57.3309                28.5279

                     37                     38                     39
                      A                      A                      A
 Frequencies --    717.4142               747.9468               765.5274
 Red. masses --      3.2356                 4.0696                 4.7021
 Frc consts  --      0.9812                 1.3414                 1.6235
 IR Inten    --     40.7099                 6.5349                33.0496

                     40                     41                     42
                      A                      A                      A
 Frequencies --    772.7841               775.6456               812.8991
 Red. masses --      4.4507                 3.8285                 2.6975
 Frc consts  --      1.5660                 1.3571                 1.0502
 IR Inten    --     55.1084                43.3627                 0.2339

                     43                     44                     45
                      A                      A                      A
 Frequencies --    862.3642               875.3883               916.3717
 Red. masses --      2.9878                 1.5405                 2.9310
 Frc consts  --      1.3091                 0.6955                 1.4501
 IR Inten    --     11.8924                 3.4332                 3.8190

                     46                     47                     48
                      A                      A                      A
 Frequencies --    940.4962               950.0706               965.5510
 Red. masses --      1.7957                 1.6265                 1.5175
 Frc consts  --      0.9358                 0.8650                 0.8336
 IR Inten    --      0.4185                10.7854                10.7335

                     49                     50                     51
                      A                      A                      A
 Frequencies --    976.9302               988.3529              1016.4829
 Red. masses --      1.2276                 1.3684                 7.2295
 Frc consts  --      0.6903                 0.7876                 4.4011
 IR Inten    --     14.8534                 0.5304                 2.4424

                     52                     53                     54
                      A                      A                      A
 Frequencies --   1023.6262              1042.7954              1063.2595
 Red. masses --      1.8429                 1.5727                 6.3605
 Frc consts  --      1.1377                 1.0076                 4.2366
 IR Inten    --     10.2359                25.7135                85.9937

                     55                     56                     57
                      A                      A                      A
 Frequencies --   1087.7040              1127.9608              1141.3955
 Red. masses --      1.9132                 1.6758                 2.4189
 Frc consts  --      1.3336                 1.2562                 1.8567
 IR Inten    --      4.5282                15.2459                25.6063

                     58                     59                     60
                      A                      A                      A
 Frequencies --   1141.7137              1156.0595              1194.2446
 Red. masses --      2.7201                 2.0644                 2.3027
 Frc consts  --      2.0891                 1.6256                 1.9350
 IR Inten    --     22.8593                 3.8606               254.6894

                     61                     62                     63
                      A                      A                      A
 Frequencies --   1201.4102              1263.2321              1278.2310
 Red. masses --      2.6963                 1.9553                 1.6951
 Frc consts  --      2.2930                 1.8383                 1.6318
 IR Inten    --     94.7391                57.7388                15.1179

                     64                     65                     66
                      A                      A                      A
 Frequencies --   1293.4420              1315.8089              1319.2461
 Red. masses --      1.2378                 1.7798                 2.4909
 Frc consts  --      1.2201                 1.8155                 2.5542
 IR Inten    --     29.0564                10.7738                40.2967

                     67                     68                     69
                      A                      A                      A
 Frequencies --   1330.4251              1345.7240              1367.3856
 Red. masses --      1.3512                 1.4036                 1.1905
 Frc consts  --      1.4091                 1.4976                 1.3115
 IR Inten    --      3.5576                10.1848                 9.1541

                     70                     71                     72
                      A                      A                      A
 Frequencies --   1385.2990              1396.4600              1408.5427
 Red. masses --      1.6027                 1.8670                 1.3842
 Frc consts  --      1.8121                 2.1451                 1.6180
 IR Inten    --     51.5838                40.2292                26.7122

                     73                     74                     75
                      A                      A                      A
 Frequencies --   1442.2829              1447.6801              1467.5023
 Red. masses --      1.2992                 2.9599                 1.8026
 Frc consts  --      1.5923                 3.6548                 2.2872
 IR Inten    --     24.8627               104.4923               120.6834

                     76                     77                     78
                      A                      A                      A
 Frequencies --   1475.2009              1479.0933              1508.6132
 Red. masses --      1.3385                 1.1682                 1.3625
 Frc consts  --      1.7162                 1.5058                 1.8270
 IR Inten    --      3.1039                17.8954                24.3459

                     79                     80                     81
                      A                      A                      A
 Frequencies --   1510.3660              1519.5321              1526.6179
 Red. masses --      1.1132                 1.2969                 2.0952
 Frc consts  --      1.4962                 1.7643                 2.8770
 IR Inten    --     20.1533                34.6008                 1.0092

                     82                     83                     84
                      A                      A                      A
 Frequencies --   1531.7979              1542.3334              1558.3321
 Red. masses --      1.0964                 1.0596                 1.0807
 Frc consts  --      1.5158                 1.4851                 1.5463
 IR Inten    --     26.9305                 5.2334                22.9710

                     85                     86                     87
                      A                      A                      A
 Frequencies --   1621.8229              1660.9243              1788.1557
 Red. masses --      8.0817                 5.6043                 5.4065
 Frc consts  --     12.5245                 9.1089                10.1854
 IR Inten    --     37.3979                 8.0322               322.7329

                     88                     89                     90
                      A                      A                      A
 Frequencies --   1832.4589              3050.4660              3052.5792
 Red. masses --     10.0912                 1.0594                 1.0594
 Frc consts  --     19.9646                 5.8080                 5.8161
 IR Inten    --    263.4583                13.1196                10.1638

                     91                     92                     93
                      A                      A                      A
 Frequencies --   3067.6609              3070.2076              3077.5093
 Red. masses --      1.0666                 1.0768                 1.0297
 Frc consts  --      5.9139                 5.9801                 5.7459
 IR Inten    --     30.8292                26.3924                19.1096

                     94                     95                     96
                      A                      A                      A
 Frequencies --   3110.8683              3122.4840              3140.9717
 Red. masses --      1.1009                 1.1006                 1.1016
 Frc consts  --      6.2770                 6.3223                 6.4034
 IR Inten    --     18.6114                15.0138                12.2683

                     97                     98                     99
                      A                      A                      A
 Frequencies --   3168.1070              3177.8561              3181.4414
 Red. masses --      1.1046                 1.0893                 1.0904
 Frc consts  --      6.5324                 6.4812                 6.5025
 IR Inten    --      3.9315                 0.8078                26.4663

                    100                    101                    102
                      A                      A                      A
 Frequencies --   3193.1135              3230.3757              3243.0809
 Red. masses --      1.1069                 1.0913                 1.0932
 Frc consts  --      6.6494                 6.7096                 6.7744
 IR Inten    --     12.7110                 1.4311                 2.5427

                    103                    104                    105
                      A                      A                      A
 Frequencies --   3597.2275              3615.5647              3697.8919
 Red. masses --      1.0748                 1.0764                 1.0642
 Frc consts  --      8.1942                 8.2901                 8.5738
 IR Inten    --     19.8952                33.3893                80.5028

 - Thermochemistry -
 -------------------
 Temperature   298.150 Kelvin.  Pressure   1.00000 Atm.
 Atom     1 has atomic number  6 and mass  12.00000

 Molecular mass:   299.09398 amu.
 Principal axes and moments of inertia in atomic units:
                           1         2         3
     Eigenvalues --  2925.80774********************
           X            0.99991   0.01289   0.00366
           Y           -0.01284   0.99983  -0.01348
           Z           -0.00383   0.01343   0.99990
 This molecule is an asymmetric top.
 Rotational symmetry number  1.
 Warning -- assumption of classical behavior for rotation
           may cause significant error
 Rotational temperatures (Kelvin)      0.02960     0.00797     0.00739
 Rotational constants (GHZ):           0.61684     0.16609     0.15392
 Zero-point vibrational energy     780058.1 (Joules/Mol)
                                  186.43837 (Kcal/Mol)
 Warning -- explicit consideration of  31 degrees of freedom as
           vibrations may cause significant error
 Vibrational temperatures:     17.84    44.09    50.44    64.78    66.86
          (Kelvin)             91.18   114.59   151.76   206.58   226.71
                              248.95   290.41   298.09   323.71   352.60
                              373.91   414.31   434.40   449.37   476.64
                              481.29   541.54   586.72   616.31   626.04
                              688.97   742.65   753.60   773.72   805.53
                              870.18   905.17   919.50   926.70   975.09
                              977.02  1032.20  1076.13  1101.42  1111.86
                             1115.98  1169.58  1240.75  1259.49  1318.45
                             1353.16  1366.94  1389.21  1405.58  1422.02
                             1462.49  1472.77  1500.35  1529.79  1564.96
                             1622.88  1642.21  1642.67  1663.31  1718.25
                             1728.56  1817.51  1839.09  1860.97  1893.16
                             1898.10  1914.19  1936.20  1967.36  1993.14
                             2009.19  2026.58  2075.12  2082.89  2111.41
                             2122.49  2128.09  2170.56  2173.08  2186.27
                             2196.46  2203.92  2219.07  2242.09  2333.44
                             2389.70  2572.76  2636.50  4388.94  4391.98
                             4413.68  4417.34  4427.85  4475.85  4492.56
                             4519.16  4558.20  4572.23  4577.38  4594.18
                             4647.79  4666.07  5175.61  5201.99  5320.44

 Zero-point correction=                           0.297108 (Hartree/Particle)
 Thermal correction to Energy=                    0.317524
 Thermal correction to Enthalpy=                  0.318468
 Thermal correction to Gibbs Free Energy=         0.245171
 Sum of electronic and zero-point Energies=          -1330.615202
 Sum of electronic and thermal Energies=             -1330.594786
 Sum of electronic and thermal Enthalpies=           -1330.593842
 Sum of electronic and thermal Free Energies=        -1330.667139

                     E (Thermal)             CV                S
                      KCal/Mol        Cal/Mol-Kelvin    Cal/Mol-Kelvin
 Total                  199.249             75.517            154.267
 Electronic               0.000              0.000              0.000
 Translational            0.889              2.981             42.984
 Rotational               0.889              2.981             34.277
 Vibrational            197.472             69.555             77.007
 Vibration     1          0.593              1.987              7.584
 Vibration     2          0.594              1.984              5.787
 Vibration     3          0.594              1.982              5.521
 Vibration     4          0.595              1.979              5.025
 Vibration     5          0.595              1.979              4.962
 Vibration     6          0.597              1.972              4.349
 Vibration     7          0.600              1.963              3.900
 Vibration     8          0.605              1.945              3.350
 Vibration     9          0.616              1.910              2.756
 Vibration    10          0.621              1.894              2.579
 Vibration    11          0.627              1.876              2.402
 Vibration    12          0.639              1.837              2.116
 Vibration    13          0.641              1.830              2.068
 Vibration    14          0.650              1.803              1.919
 Vibration    15          0.660              1.771              1.766
 Vibration    16          0.668              1.746              1.663
 Vibration    17          0.685              1.696              1.486
 Vibration    18          0.694              1.670              1.406
 Vibration    19          0.701              1.650              1.350
 Vibration    20          0.714              1.613              1.254
 Vibration    21          0.716              1.607              1.238
 Vibration    22          0.747              1.520              1.054
 Vibration    23          0.772              1.453              0.934
 Vibration    24          0.790              1.409              0.864
 Vibration    25          0.796              1.394              0.842
 Vibration    26          0.835              1.297              0.713
 Vibration    27          0.871              1.214              0.619
 Vibration    28          0.879              1.197              0.601
 Vibration    29          0.893              1.167              0.570
 Vibration    30          0.915              1.118              0.524
 Vibration    31          0.963              1.022              0.441

 Optimization completed.
    -- Stationary point found.
 Normal termination of Gaussian 16 at Sat Dec 12 17:35:04 2020.

 ----------------------------------------------------------------------
 # B3LYP/6-311++G(d,p) empiricaldispersion=gd3bj scf=xqc pop=npa geom=c
 heck
 ----------------------------------------------------------------------

 ----------------------------------------
 CID_116181741_JID_10957_Energie_neutraal
 ----------------------------------------
 Structure from the checkpoint file:  "JID_10957.chk"
 Charge =  0 Multiplicity = 1

 SCF Done:  E(RB3LYP) =  -1331.22212900     A.U. after   17 cycles
 Normal termination of Gaussian 16 at Sat Dec 12 17:46:03 2020.

 ----------------------------------------------------------------------
 # B3LYP/6-311++G(d,p) empiricaldispersion=gd3bj scf=xqc pop=npa geom=c
 heck
 ----------------------------------------------------------------------

 --------------------------------------
 CID_116181741_JID_10957_Energie_kation
 --------------------------------------
 Structure from the checkpoint file:  "JID_10957.chk"
 Charge =  1 Multiplicity = 2

 SCF Done:  E(UB3LYP) =  -1330.91816459     A.U. after   33 cycles
 SCF Done:  E(UB3LYP) =  -1330.91816459     a.u. after    1 cycles
 Normal termination of Gaussian 16 at Sat Dec 12 18:16:17 2020.
 Gaussian 16:  ES64L-G16RevA.03 25-Dec-2016

 ----------------------------------------------------------------------
 # B3LYP/6-311++G(d,p) empiricaldispersion=gd3bj scf=xqc pop=npa geom=c
 heck
 ----------------------------------------------------------------------

 -------------------------------------
 CID_116181741_JID_10957_Energie_anion
 -------------------------------------
 Structure from the checkpoint file:  "JID_10957.chk"
 Charge = -1 Multiplicity = 2

                         Standard orientation:
 ---------------------------------------------------------------------
 Center     Atomic      Atomic             Coordinates (Angstroms)
 Number     Number       Type             X           Y           Z
 ---------------------------------------------------------------------
      1          6           0        3.485082    0.898864    2.099846
      2          6           0        2.937840   -0.348829    1.416085
      3          6           0        1.409914   -0.384474    1.214585
      4          7           0        0.764882    0.890648    0.938405
      5          6           0        0.641846    1.615615   -0.233739
      6          8           0        0.609316    2.844062   -0.204770
      7          7           0        0.541192    0.941057   -1.438316
      8          6           0        0.067151   -0.424200   -1.665431
      9          6           0       -1.171583   -0.793531   -0.870745
     10          7           0       -1.180910   -2.021330   -0.333138
     11          6           0       -2.260102   -2.397739    0.364603
     12          6           0       -3.371051   -1.584305    0.568757
     13          6           0       -3.354057   -0.303002    0.007771
     14          6           0       -2.237089    0.098872   -0.721695
     15          6           0       -4.486253    0.654662    0.154121
     16          8           0       -4.528246    1.755759   -0.351894
     17          8           0       -5.489502    0.165120    0.922930
     18         16           0        3.887486   -0.769120   -0.145458
     19          8           0        2.998517   -1.716776   -0.936830
     20          6           0        3.884978    0.833473   -1.026626
     21          1           0        3.193263    1.809418    1.569353
     22          1           0        4.578247    0.870463    2.168264
     23          1           0        3.096214    0.966358    3.122985
     24          1           0        3.186232   -1.229892    2.021052
     25          1           0        1.176731   -1.125422    0.451124
     26          1           0        0.964408   -0.760170    2.142761
     27          1           0        0.789553    1.546618    1.708843
     28          1           0        0.358397    1.609937   -2.174007
     29          1           0       -0.160934   -0.489025   -2.735501
     30          1           0        0.861085   -1.151394   -1.476789
     31          1           0       -2.228623   -3.400713    0.785150
     32          1           0       -4.220479   -1.929854    1.145345
     33          1           0       -2.205416    1.095496   -1.147611
     34          1           0       -6.170025    0.863058    0.949020
     35          1           0        2.866374    1.110763   -1.301693
     36          1           0        4.364428    1.603600   -0.418236
     37          1           0        4.473884    0.666302   -1.932067
 ---------------------------------------------------------------------

 SCF Done:  E(UB3LYP) =  -1331.24361821     A.U. after   30 cycles

 The electronic state is 2-A.
 Alpha  occ. eigenvalues --  -88.86177 -19.02953 -18.99765 -18.97902 -18.95354
 Alpha  occ. eigenvalues --  -14.23359 -14.22786 -14.14905 -10.19381 -10.13750
 Alpha  occ. eigenvalues --  -10.12923 -10.11894 -10.11202 -10.10369 -10.08784
 Alpha  occ. eigenvalues --  -10.06640 -10.05863 -10.03199 -10.03145 -10.02712
 Alpha  occ. eigenvalues --   -7.93910  -5.90176  -5.90056  -5.89489  -0.96506
 Alpha  occ. eigenvalues --   -0.94668  -0.92482  -0.87043  -0.83022  -0.81067
 Alpha  occ. eigenvalues --   -0.79317  -0.73110  -0.67440  -0.66599  -0.64073
 Alpha  occ. eigenvalues --   -0.62179  -0.58108  -0.57185  -0.53308  -0.51318
 Alpha  occ. eigenvalues --   -0.49188  -0.47497  -0.45381  -0.41374  -0.40614
 Alpha  occ. eigenvalues --   -0.39631  -0.39275  -0.37660  -0.37272  -0.36768
 Alpha  occ. eigenvalues --   -0.35358  -0.35215  -0.34181  -0.33898  -0.32888
 Alpha  occ. eigenvalues --   -0.32104  -0.31832  -0.31430  -0.31156  -0.30579
 Alpha  occ. eigenvalues --   -0.30186  -0.28836  -0.28434  -0.28062  -0.26719
 Alpha  occ. eigenvalues --   -0.26152  -0.25036  -0.24802  -0.22217  -0.19087
 Alpha  occ. eigenvalues --   -0.18756  -0.17679  -0.16291  -0.15245  -0.14908
 Alpha  occ. eigenvalues --   -0.14332  -0.13789  -0.12021  -0.11617   0.03398
 Alpha virt. eigenvalues --    0.04920   0.06794   0.07836   0.08049   0.08918
 Alpha virt. eigenvalues --    0.09090   0.09859   0.10047   0.10459   0.11002
 Alpha virt. eigenvalues --    0.11490   0.11994   0.12112   0.12840   0.12999

  Beta  occ. eigenvalues --  -88.86176 -19.02883 -18.99762 -18.97902 -18.95041
  Beta  occ. eigenvalues --  -14.23352 -14.22782 -14.14429 -10.19382 -10.13500
  Beta  occ. eigenvalues --  -10.12921 -10.11891 -10.11195 -10.10351 -10.08788
  Beta  occ. eigenvalues --  -10.06654 -10.05872 -10.03071 -10.02905 -10.02581
  Beta  occ. eigenvalues --   -7.93909  -5.90175  -5.90055  -5.89488  -0.96203
  Beta  occ. eigenvalues --   -0.94666  -0.92475  -0.86572  -0.83003  -0.80975
  Beta  occ. eigenvalues --   -0.78807  -0.73098  -0.67429  -0.65945  -0.63877
  Beta  occ. eigenvalues --   -0.62146  -0.57989  -0.57097  -0.52594  -0.51279
  Beta  occ. eigenvalues --   -0.49142  -0.47375  -0.45071  -0.41352  -0.40554
  Beta  occ. eigenvalues --   -0.39618  -0.39212  -0.37640  -0.37178  -0.36731
  Beta  occ. eigenvalues --   -0.35227  -0.35048  -0.33997  -0.33867  -0.32859
  Beta  occ. eigenvalues --   -0.31884  -0.31716  -0.31367  -0.30498  -0.30099
  Beta  occ. eigenvalues --   -0.29845  -0.28763  -0.28341  -0.27992  -0.26699
  Beta  occ. eigenvalues --   -0.26051  -0.24730  -0.23765  -0.22061  -0.18747
  Beta  occ. eigenvalues --   -0.17811  -0.17632  -0.16267  -0.15185  -0.14393
  Beta  occ. eigenvalues --   -0.13458  -0.12735  -0.11125  -0.11084
  Beta virt. eigenvalues --    0.05081   0.06788   0.07815   0.08056   0.08901
  Beta virt. eigenvalues --    0.09064   0.09488   0.09858   0.09983   0.10395
  Beta virt. eigenvalues --    0.10963   0.11487   0.12049   0.12181   0.12808

 Mulliken charges and spin densities:
               1          2
     1  C   -0.333277  -0.473816
     2  C   -0.172141   0.336656
     3  C   -0.373623  -0.167031
     4  N   -0.146372   0.019848
     5  C   -0.091124  -0.119211
     6  O   -0.300301   0.012028
     7  N   -0.230515   0.029451
     8  C   -1.075450  -0.001929
     9  C   -0.022739  -0.032519
    10  N    0.020103   0.221177
    11  C   -0.095321  -0.014424
    12  C   -0.268250   0.183317
    13  C    0.662473   0.083061
    14  C   -0.676441   0.173064
    15  C    0.055101   0.151060
    16  O   -0.398842   0.111047
    17  O   -0.222820   0.016696
    18  S    0.568418  -0.092607
    19  O   -0.405473   0.002439
    20  C   -0.657518  -0.024473
    21  H    0.196146   0.014902
    22  H   -0.031790   0.185685
    23  H    0.011722   0.136048
    24  H    0.225967   0.059194
    25  H    0.244368  -0.001075
    26  H    0.075605   0.090083
    27  H    0.310740   0.024316
    28  H    0.318901   0.002470
    29  H    0.140456   0.004790
    30  H    0.338117  -0.001590
    31  H    0.135392  -0.002217
    32  H    0.160340  -0.004390
    33  H    0.234049  -0.007909
    34  H    0.261683  -0.001188
    35  H    0.299786   0.018718
    36  H    0.083157   0.040025
    37  H    0.159470   0.028303
 Sum of Mulliken charges =  -1.00000   1.00000

 Dipole moment (field-independent basis, Debye):
    X=              7.9834    Y=              0.2328    Z=              1.6518  Tot=              8.1558
 Quadrupole moment (field-independent basis, Debye-Ang):
   XX=           -180.3336   YY=           -168.1439   ZZ=           -131.9148
   XY=             10.7777   XZ=             -1.9340   YZ=             -4.0797

 Summary of Natural Population Analysis:

                                       Natural Population
                Natural  -----------------------------------------------
    Atom  No    Charge         Core      Valence    Rydberg      Total
 -----------------------------------------------------------------------
      C    1   -0.30325      0.99963     2.29669    0.00693     3.30325
      C    2   -0.19114      0.99956     2.17670    0.01487     3.19114
      C    3   -0.11074      0.99956     2.09683    0.01435     3.11074
      N    4   -0.32827      0.99967     2.81880    0.00980     3.82827
      C    5    0.40556      0.99969     1.57111    0.02363     2.59444
      O    6   -0.34601      0.99988     3.34089    0.00524     4.34601
      N    7   -0.33586      0.99968     2.82587    0.01032     3.83586
      C    8   -0.11092      0.99957     2.10066    0.01069     3.11092
      C    9    0.07991      0.99954     1.90675    0.01380     2.92009
      N   10   -0.18559      0.99967     2.67281    0.01311     3.68559
      C   11    0.01137      0.99960     1.97495    0.01408     2.98863
      C   12   -0.09184      0.99954     2.08471    0.00760     3.09184
      C   13   -0.02029      0.99945     2.00764    0.01320     3.02029
      C   14   -0.07572      0.99948     2.06918    0.00707     3.07572
      C   15    0.42591      0.99967     1.55056    0.02387     2.57409
      O   16   -0.29606      0.99987     3.28909    0.00711     4.29606
      O   17   -0.35193      0.99988     3.34630    0.00575     4.35193
      S   18    0.57249      4.99943     2.37070    0.05738     7.42751
      O   19   -0.47853      0.99993     3.47170    0.00689     4.47853
      C   20   -0.38754      0.99961     2.38096    0.00697     3.38754
      H   21    0.10832      0.00000     0.39046    0.00121     0.39168
      H   22    0.10217      0.00000     0.39626    0.00157     0.39783
      H   23    0.10672      0.00000     0.39225    0.00103     0.39328
      H   24    0.10599      0.00000     0.39263    0.00137     0.39401
      H   25    0.13086      0.00000     0.36700    0.00214     0.36914
      H   26    0.10291      0.00000     0.39610    0.00099     0.39709
      H   27    0.19102      0.00000     0.30692    0.00206     0.30898
      H   28    0.19470      0.00000     0.30404    0.00126     0.30530
      H   29    0.09895      0.00000     0.40006    0.00100     0.40105
      H   30    0.11879      0.00000     0.37943    0.00177     0.38121
      H   31    0.07969      0.00000     0.41903    0.00128     0.42031
      H   32    0.10206      0.00000     0.39697    0.00097     0.39794
      H   33    0.10757      0.00000     0.39137    0.00107     0.39243
      H   34    0.23094      0.00000     0.26606    0.00300     0.26906
      H   35    0.12338      0.00000     0.37479    0.00183     0.37662
      H   36    0.10639      0.00000     0.39202    0.00159     0.39361
      H   37    0.10798      0.00000     0.39071    0.00131     0.39202
 =======================================================================
   * Total *    0.00000     23.99291    54.70900    0.29809    79.00000

 Normal termination of Gaussian 16 at Sat Dec 12 18:42:56 2020.
