 Gaussian 16, Revision A.03,

 -----------------------------------------------------------
 # opt freq B3LYP/6-31G(d) empiricaldispersion=gd3bj scf=xqc
 -----------------------------------------------------------

 -------------------------------
 CID_123182953_JID_2291_neutraal
 -------------------------------
 Symbolic Z-matrix:
 Charge =  0 Multiplicity = 1

 SCF Done:  E(RB3LYP) =  -570.806116186     A.U. after   15 cycles
 SCF Done:  E(RB3LYP) =  -570.808239413     A.U. after   13 cycles
 SCF Done:  E(RB3LYP) =  -570.808526803     A.U. after   12 cycles
 SCF Done:  E(RB3LYP) =  -570.808677718     A.U. after   12 cycles
 SCF Done:  E(RB3LYP) =  -570.808881048     A.U. after   11 cycles
 SCF Done:  E(RB3LYP) =  -570.808986307     A.U. after   12 cycles
 SCF Done:  E(RB3LYP) =  -570.809042105     A.U. after   12 cycles
 SCF Done:  E(RB3LYP) =  -570.809050097     A.U. after   10 cycles
 SCF Done:  E(RB3LYP) =  -570.809053017     A.U. after    9 cycles
 SCF Done:  E(RB3LYP) =  -570.809056252     A.U. after   10 cycles
 SCF Done:  E(RB3LYP) =  -570.809057209     A.U. after   10 cycles
 SCF Done:  E(RB3LYP) =  -570.809057314     A.U. after    8 cycles
 Optimization completed.
    -- Stationary point found.
 Normal termination of Gaussian 16 at Wed Dec  9 16:55:59 2020.

 --------------------------------------------------------------------
 #N Geom=AllCheck Guess=TCheck SCRF=Check GenChk RB3LYP/6-31G(d) Freq
 --------------------------------------------------------------------

 Structure from the checkpoint file:  "JID_2291.chk"
 -------------------------------
 CID_123182953_JID_2291_neutraal
 -------------------------------
 Charge =  0 Multiplicity = 1

 SCF Done:  E(RB3LYP) =  -570.809057314     A.U. after    1 cycles

  Exact polarizability: 112.675   8.807 100.185  -6.269   9.750  77.051
 Approx polarizability: 161.650  19.657 173.998 -15.602  20.781 125.168

                      1                      2                      3
                      A                      A                      A
 Frequencies --     27.8398                50.3444                80.2101
 Red. masses --      4.0855                 4.6964                 4.5480
 Frc consts  --      0.0019                 0.0070                 0.0172
 IR Inten    --      0.9374                 1.7928                 4.9922

                      4                      5                      6
                      A                      A                      A
 Frequencies --    119.1198               145.6287               209.8929
 Red. masses --      2.5620                 2.0161                 2.8174
 Frc consts  --      0.0214                 0.0252                 0.0731
 IR Inten    --      3.6066                 0.5630                 0.4461

                      7                      8                      9
                      A                      A                      A
 Frequencies --    255.8299               292.9311               338.7587
 Red. masses --      4.3286                 4.7889                 2.9187
 Frc consts  --      0.1669                 0.2421                 0.1973
 IR Inten    --     11.6766                 1.7680                 8.9743

                     10                     11                     12
                      A                      A                      A
 Frequencies --    389.6324               411.4032               445.5666
 Red. masses --      2.6226                 3.5684                 2.9027
 Frc consts  --      0.2346                 0.3558                 0.3395
 IR Inten    --      0.0682                24.9767                 5.7380

                     13                     14                     15
                      A                      A                      A
 Frequencies --    467.5360               493.4516               549.5176
 Red. masses --      1.4320                 3.1560                 3.4815
 Frc consts  --      0.1844                 0.4528                 0.6194
 IR Inten    --     48.9619                19.5429                41.9773

                     16                     17                     18
                      A                      A                      A
 Frequencies --    630.1673               688.5289               716.4173
 Red. masses --      4.7785                 6.8749                 5.4976
 Frc consts  --      1.1180                 1.9203                 1.6625
 IR Inten    --     11.2880                 1.4826                 9.5085

                     19                     20                     21
                      A                      A                      A
 Frequencies --    737.6637               782.9749               826.2801
 Red. masses --      3.7552                 2.8851                 2.0011
 Frc consts  --      1.2039                 1.0421                 0.8050
 IR Inten    --     29.2704                29.1508                 5.4223

                     22                     23                     24
                      A                      A                      A
 Frequencies --    864.3261               900.1874               957.2275
 Red. masses --      2.7103                 1.2520                 2.1340
 Frc consts  --      1.1930                 0.5978                 1.1521
 IR Inten    --      9.4634                 0.5574                 9.0337

                     25                     26                     27
                      A                      A                      A
 Frequencies --    981.6103              1000.2459              1013.8313
 Red. masses --      1.3661                 1.4432                 5.3274
 Frc consts  --      0.7756                 0.8507                 3.2263
 IR Inten    --      0.3558                 0.0942                 3.6478

                     28                     29                     30
                      A                      A                      A
 Frequencies --   1018.2664              1106.1709              1121.1418
 Red. masses --      2.9926                 2.0103                 1.5734
 Frc consts  --      1.8282                 1.4493                 1.1652
 IR Inten    --     12.2772                 3.1442                 3.7792

                     31                     32                     33
                      A                      A                      A
 Frequencies --   1141.4694              1163.4635              1217.5807
 Red. masses --      1.5170                 1.3000                 1.6637
 Frc consts  --      1.1645                 1.0368                 1.4532
 IR Inten    --     40.5476                 4.1492                 8.6567

                     34                     35                     36
                      A                      A                      A
 Frequencies --   1234.1045              1241.0014              1258.8681
 Red. masses --      2.5936                 3.2012                 1.2816
 Frc consts  --      2.3273                 2.9047                 1.1966
 IR Inten    --      3.9532                56.5631                 3.5491

                     37                     38                     39
                      A                      A                      A
 Frequencies --   1300.4533              1334.2994              1382.8479
 Red. masses --      3.7740                 1.9817                 1.3331
 Frc consts  --      3.7605                 2.0788                 1.5019
 IR Inten    --      1.2875                 0.3044                 8.0992

                     40                     41                     42
                      A                      A                      A
 Frequencies --   1420.2618              1463.7430              1477.0843
 Red. masses --      2.2618                 2.0674                 1.2079
 Frc consts  --      2.6881                 2.6097                 1.5527
 IR Inten    --    163.0366                19.6837                 8.8537

                     43                     44                     45
                      A                      A                      A
 Frequencies --   1496.2319              1509.1438              1533.7603
 Red. masses --      1.0540                 1.1080                 1.1471
 Frc consts  --      1.3902                 1.4868                 1.5899
 IR Inten    --     25.0741                 8.5742                62.1230

                     46                     47                     48
                      A                      A                      A
 Frequencies --   1545.2714              1589.8649              1622.8650
 Red. masses --      2.0863                 1.6480                 6.8023
 Frc consts  --      2.9351                 2.4543                10.5553
 IR Inten    --      5.7338                45.1870                17.9224

                     49                     50                     51
                      A                      A                      A
 Frequencies --   1655.5676              1721.8595              3059.6645
 Red. masses --      5.2875                 8.0899                 1.0413
 Frc consts  --      8.5387                14.1315                 5.7434
 IR Inten    --     65.1602               228.3194                30.7418

                     52                     53                     54
                      A                      A                      A
 Frequencies --   3080.5691              3125.3126              3131.4573
 Red. masses --      1.0593                 1.1051                 1.0993
 Frc consts  --      5.9228                 6.3599                 6.3514
 IR Inten    --      6.9666                 5.9825                19.1442

                     55                     56                     57
                      A                      A                      A
 Frequencies --   3170.6975              3177.8534              3190.6341
 Red. masses --      1.0875                 1.0898                 1.0997
 Frc consts  --      6.4416                 6.4844                 6.5961
 IR Inten    --     20.3284                26.5896                10.7074

                     58                     59                     60
                      A                      A                      A
 Frequencies --   3193.3174              3214.6504              3470.6586
 Red. masses --      1.0947                 1.0938                 1.0636
 Frc consts  --      6.5771                 6.6597                 7.5483
 IR Inten    --     18.3326                 3.2158                68.3468

 - Thermochemistry -
 -------------------
 Temperature   298.150 Kelvin.  Pressure   1.00000 Atm.
 Atom     1 has atomic number  6 and mass  12.00000

 Molecular mass:   166.07423 amu.
 Principal axes and moments of inertia in atomic units:
                           1         2         3
     Eigenvalues --   972.690063190.296883424.88579
           X            0.99997  -0.00679   0.00261
           Y            0.00665   0.99872   0.05015
           Z           -0.00295  -0.05013   0.99874
 This molecule is an asymmetric top.
 Rotational symmetry number  1.
 Warning -- assumption of classical behavior for rotation
           may cause significant error
 Rotational temperatures (Kelvin)      0.08905     0.02715     0.02529
 Rotational constants (GHZ):           1.85541     0.56570     0.52695
 Zero-point vibrational energy     465031.9 (Joules/Mol)
                                  111.14529 (Kcal/Mol)
 Warning -- explicit consideration of  15 degrees of freedom as
           vibrations may cause significant error
 Vibrational temperatures:     40.06    72.43   115.40   171.39   209.53
          (Kelvin)            301.99   368.08   421.46   487.40   560.59
                              591.92   641.07   672.68   709.97   790.63
                              906.67   990.64  1030.76  1061.33  1126.53
                             1188.83  1243.57  1295.17  1377.24  1412.32
                             1439.13  1458.68  1465.06  1591.53  1613.07
                             1642.32  1673.96  1751.83  1775.60  1785.52
                             1811.23  1871.06  1919.76  1989.61  2043.44
                             2106.00  2125.19  2152.74  2171.32  2206.74
                             2223.30  2287.46  2334.94  2381.99  2477.37
                             4402.17  4432.25  4496.63  4505.47  4561.93
                             4572.22  4590.61  4594.47  4625.16  4993.50

 Zero-point correction=                           0.177121 (Hartree/Particle)
 Thermal correction to Energy=                    0.188320
 Thermal correction to Enthalpy=                  0.189264
 Thermal correction to Gibbs Free Energy=         0.138618
 Sum of electronic and zero-point Energies=           -570.631936
 Sum of electronic and thermal Energies=              -570.620737
 Sum of electronic and thermal Enthalpies=            -570.619793
 Sum of electronic and thermal Free Energies=         -570.670439

                     E (Thermal)             CV                S
                      KCal/Mol        Cal/Mol-Kelvin    Cal/Mol-Kelvin
 Total                  118.173             41.118            106.593
 Electronic               0.000              0.000              0.000
 Translational            0.889              2.981             41.230
 Rotational               0.889              2.981             30.742
 Vibrational            116.395             35.157             34.621
 Vibration     1          0.593              1.984              5.978
 Vibration     2          0.595              1.977              4.804
 Vibration     3          0.600              1.963              3.886
 Vibration     4          0.609              1.933              3.115
 Vibration     5          0.617              1.907              2.729
 Vibration     6          0.642              1.826              2.045
 Vibration     7          0.666              1.753              1.690
 Vibration     8          0.688              1.687              1.457
 Vibration     9          0.719              1.598              1.218
 Vibration    10          0.758              1.492              1.002
 Vibration    11          0.775              1.445              0.922
 Vibration    12          0.805              1.371              0.809
 Vibration    13          0.825              1.322              0.744
 Vibration    14          0.849              1.265              0.675
 Vibration    15          0.905              1.141              0.545

                           ! Non-Optimized Parameters !
 Normal termination of Gaussian 16 at Wed Dec  9 17:01:07 2020.

 ----------------------------------------------------------------------
 # B3LYP/6-311++G(d,p) empiricaldispersion=gd3bj scf=xqc pop=npa geom=c
 heck
 ----------------------------------------------------------------------

 ---------------------------------------
 CID_123182953_JID_2291_Energie_neutraal
 ---------------------------------------
 Structure from the checkpoint file:  "JID_2291.chk"
 Charge =  0 Multiplicity = 1

 SCF Done:  E(RB3LYP) =  -570.977779873     A.U. after   15 cycles
 Normal termination of Gaussian 16 at Wed Dec  9 17:03:35 2020.

 ----------------------------------------------------------------------
 # B3LYP/6-311++G(d,p) empiricaldispersion=gd3bj scf=xqc pop=npa geom=c
 heck
 ----------------------------------------------------------------------

 -------------------------------------
 CID_123182953_JID_2291_Energie_kation
 -------------------------------------
 Structure from the checkpoint file:  "JID_2291.chk"
 Charge =  1 Multiplicity = 2

 SCF Done:  E(UB3LYP) =  -570.653759394     A.U. after   28 cycles
 Normal termination of Gaussian 16 at Wed Dec  9 17:09:31 2020.
 Gaussian 16:  ES64L-G16RevA.03 25-Dec-2016

 ----------------------------------------------------------------------
 # B3LYP/6-311++G(d,p) empiricaldispersion=gd3bj scf=xqc pop=npa geom=c
 heck
 ----------------------------------------------------------------------

 ------------------------------------
 CID_123182953_JID_2291_Energie_anion
 ------------------------------------
 Structure from the checkpoint file:  "JID_2291.chk"
 Charge = -1 Multiplicity = 2

                         Standard orientation:
 ---------------------------------------------------------------------
 Center     Atomic      Atomic             Coordinates (Angstroms)
 Number     Number       Type             X           Y           Z
 ---------------------------------------------------------------------
      1          6           0       -1.609434    1.801238   -0.516624
      2          7           0       -2.179750    0.527208   -0.139826
      3          6           0       -1.596236   -0.494587    0.538159
      4          8           0       -2.033681   -1.644390    0.404288
      5          6           0       -0.417939   -0.171411    1.442044
      6          6           0        0.880524   -0.126465    0.660815
      7          6           0        1.785616    0.926501    0.806054
      8          6           0        2.964798    0.915246    0.059722
      9          7           0        3.288945   -0.052016   -0.804954
     10          6           0        2.413762   -1.057889   -0.939712
     11          6           0        1.211304   -1.143469   -0.240976
     12          8           0       -3.154964    0.119664   -1.067073
     13          1           0       -0.908715    2.126428    0.251434
     14          1           0       -2.415372    2.534586   -0.601811
     15          1           0       -1.086510    1.724875   -1.477329
     16          1           0       -0.570808    0.767563    1.981981
     17          1           0       -0.385977   -0.977663    2.181237
     18          1           0        1.582337    1.743993    1.493016
     19          1           0        3.682682    1.727304    0.161851
     20          1           0        2.689213   -1.837997   -1.646891
     21          1           0        0.537555   -1.980638   -0.395424
     22          1           0       -3.173982   -0.851967   -0.889215
 ---------------------------------------------------------------------

 SCF Done:  E(UB3LYP) =  -570.972217615     A.U. after   33 cycles
 SCF Done:  E(UB3LYP) =  -570.972217615     a.u. after    1 cycles

 The electronic state is 2-A.
 Alpha  occ. eigenvalues --  -19.06073 -18.99234 -14.28983 -14.17771 -10.16703
 Alpha  occ. eigenvalues --  -10.10730 -10.08324 -10.08287 -10.07632 -10.07135
 Alpha  occ. eigenvalues --  -10.05668 -10.05632  -1.00628  -0.91868  -0.81901
 Alpha  occ. eigenvalues --   -0.77821  -0.70627  -0.63979  -0.63147  -0.60172
 Alpha  occ. eigenvalues --   -0.51225  -0.50163  -0.48645  -0.40959  -0.39757
 Alpha  occ. eigenvalues --   -0.39590  -0.36995  -0.36169  -0.34994  -0.32968
 Alpha  occ. eigenvalues --   -0.31385  -0.30997  -0.30564  -0.29692  -0.28863
 Alpha  occ. eigenvalues --   -0.27288  -0.26885  -0.24311  -0.23569  -0.17624
 Alpha  occ. eigenvalues --   -0.15926  -0.14721  -0.13875  -0.13142   0.04720
 Alpha virt. eigenvalues --    0.07071   0.08506   0.09041   0.09210   0.09492
 Alpha virt. eigenvalues --    0.10343   0.10806   0.11042   0.11904   0.12673
 Alpha virt. eigenvalues --    0.13173   0.13928   0.15596   0.15916   0.16559

  Beta  occ. eigenvalues --  -19.06054 -18.99190 -14.28959 -14.17526 -10.16611
  Beta  occ. eigenvalues --  -10.10682 -10.08308 -10.08248 -10.07634 -10.06918
  Beta  occ. eigenvalues --  -10.05663 -10.05592  -1.00571  -0.91777  -0.81568
  Beta  occ. eigenvalues --   -0.77748  -0.70297  -0.63812  -0.62994  -0.60068
  Beta  occ. eigenvalues --   -0.51142  -0.49969  -0.48419  -0.40813  -0.39699
  Beta  occ. eigenvalues --   -0.39428  -0.36882  -0.36021  -0.34852  -0.32827
  Beta  occ. eigenvalues --   -0.31313  -0.30918  -0.30406  -0.29622  -0.28632
  Beta  occ. eigenvalues --   -0.27050  -0.26452  -0.24193  -0.23385  -0.17340
  Beta  occ. eigenvalues --   -0.15107  -0.14303  -0.13603  -0.12948
  Beta virt. eigenvalues --    0.07560   0.08648   0.09042   0.09226   0.09494
  Beta virt. eigenvalues --    0.10134   0.10480   0.11200   0.11632   0.12397
  Beta virt. eigenvalues --    0.13163   0.13498   0.14245   0.15597   0.16162

 Mulliken charges and spin densities:
               1          2
     1  C    0.554071  -0.925584
     2  N   -0.247438   0.186358
     3  C   -0.100006   0.001647
     4  O   -0.370293   0.031150
     5  C    2.342761  -3.222027
     6  C   -0.252830   0.866431
     7  C   -0.308907   0.604408
     8  C    1.045839  -1.624495
     9  N   -0.163801   0.150518
    10  C   -0.260335  -0.366384
    11  C   -1.488913   1.813169
    12  O   -0.079764  -0.010442
    13  H   -0.164960   0.323491
    14  H   -0.199597   0.374828
    15  H   -0.010984   0.182722
    16  H   -0.485980   0.669907
    17  H   -0.123424   0.340907
    18  H   -1.069740   1.254087
    19  H   -0.039770   0.183037
    20  H    0.095139   0.036420
    21  H    0.120673   0.089382
    22  H    0.208260   0.040469
 Sum of Mulliken charges =  -1.00000   1.00000

 Dipole moment (field-independent basis, Debye):
    X=             -1.6098    Y=             -2.0863    Z=             -3.2326  Tot=              4.1706
 Quadrupole moment (field-independent basis, Debye-Ang):
   XX=           -123.1819   YY=           -101.4290   ZZ=           -101.7758
   XY=             -0.9507   XZ=              0.5408   YZ=             -3.5972

 Summary of Natural Population Analysis:

                                       Natural Population
                Natural  -----------------------------------------------
    Atom  No    Charge         Core      Valence    Rydberg      Total
 -----------------------------------------------------------------------
      C    1   -0.17783      0.99963     2.16948    0.00872     3.17783
      N    2   -0.08692      0.99959     2.57453    0.01281     3.58692
      C    3    0.34205      0.99963     1.63567    0.02264     2.65795
      O    4   -0.34159      0.99988     3.33561    0.00611     4.34159
      C    5   -0.23963      0.99956     2.22933    0.01074     3.23963
      C    6    0.03046      0.99950     1.95926    0.01079     2.96954
      C    7   -0.12162      0.99950     2.11166    0.01046     3.12162
      C    8    0.02657      0.99959     1.95755    0.01629     2.97343
      N    9   -0.21328      0.99971     2.70168    0.01188     3.71328
      C   10    0.03012      0.99959     1.95623    0.01406     2.96988
      C   11   -0.12745      0.99950     2.11879    0.00916     3.12745
      O   12   -0.28646      0.99990     3.27956    0.00699     4.28646
      H   13    0.10899      0.00000     0.38937    0.00163     0.39101
      H   14    0.10005      0.00000     0.39871    0.00124     0.39995
      H   15    0.09761      0.00000     0.40128    0.00112     0.40239
      H   16    0.11322      0.00000     0.38362    0.00316     0.38678
      H   17    0.12299      0.00000     0.37510    0.00191     0.37701
      H   18    0.10352      0.00000     0.39382    0.00266     0.39648
      H   19    0.08554      0.00000     0.41304    0.00142     0.41446
      H   20    0.08351      0.00000     0.41535    0.00113     0.41649
      H   21    0.10745      0.00000     0.39143    0.00112     0.39255
      H   22    0.24269      0.00000     0.25394    0.00337     0.25731
 =======================================================================
   * Total *   -0.00000     11.99558    31.84500    0.15942    44.00000

 Normal termination of Gaussian 16 at Wed Dec  9 17:16:33 2020.
