 Gaussian 16, Revision A.03,

 -----------------------------------------------------------
 # opt freq B3LYP/6-31G(d) empiricaldispersion=gd3bj scf=xqc
 -----------------------------------------------------------

 -------------------------------
 CID_116562363_JID_7592_neutraal
 -------------------------------
 Symbolic Z-matrix:
 Charge =  0 Multiplicity = 1

 SCF Done:  E(RB3LYP) =  -714.288411805     A.U. after   14 cycles
 SCF Done:  E(RB3LYP) =  -714.288412497     A.U. after    9 cycles
 SCF Done:  E(RB3LYP) =  -714.288410099     A.U. after   10 cycles
 SCF Done:  E(RB3LYP) =  -714.288411866     A.U. after    9 cycles
 SCF Done:  E(RB3LYP) =  -714.288413132     A.U. after    8 cycles
 SCF Done:  E(RB3LYP) =  -714.288413095     A.U. after    8 cycles
 SCF Done:  E(RB3LYP) =  -714.288413187     A.U. after    8 cycles
 SCF Done:  E(RB3LYP) =  -714.288413344     A.U. after    7 cycles
 SCF Done:  E(RB3LYP) =  -714.288413327     A.U. after    8 cycles
 SCF Done:  E(RB3LYP) =  -714.288413365     A.U. after    7 cycles
 Optimization completed.
    -- Stationary point found.
 Normal termination of Gaussian 16 at Wed Dec 30 14:18:21 2020.

 --------------------------------------------------------------------
 #N Geom=AllCheck Guess=TCheck SCRF=Check GenChk RB3LYP/6-31G(d) Freq
 --------------------------------------------------------------------

 Structure from the checkpoint file:  "JID_7592.chk"
 -------------------------------
 CID_116562363_JID_7592_neutraal
 -------------------------------
 Charge =  0 Multiplicity = 1

 SCF Done:  E(RB3LYP) =  -714.288413365     A.U. after    1 cycles

  Exact polarizability: 185.396  11.442 175.118 -14.419   3.039 117.323
 Approx polarizability: 258.938  13.707 282.664 -27.971  13.029 175.817

                      1                      2                      3
                      A                      A                      A
 Frequencies --     34.5173                47.7572                61.2000
 Red. masses --      4.5657                 3.9773                 3.6997
 Frc consts  --      0.0032                 0.0053                 0.0082
 IR Inten    --      1.1380                 0.2374                 1.1352

                      4                      5                      6
                      A                      A                      A
 Frequencies --     80.3452                95.0040               126.2064
 Red. masses --      3.1735                 4.3087                 2.9804
 Frc consts  --      0.0121                 0.0229                 0.0280
 IR Inten    --      0.0634                 1.0307                 1.8789

                      7                      8                      9
                      A                      A                      A
 Frequencies --    153.4117               197.5186               222.2934
 Red. masses --      3.8918                 3.1938                 2.7112
 Frc consts  --      0.0540                 0.0734                 0.0789
 IR Inten    --      0.7900                 1.5692                 1.7478

                     10                     11                     12
                      A                      A                      A
 Frequencies --    242.0057               266.3274               283.1551
 Red. masses --      1.6703                 2.0997                 1.6258
 Frc consts  --      0.0576                 0.0877                 0.0768
 IR Inten    --      2.1270                 2.8135                 0.3214

                     13                     14                     15
                      A                      A                      A
 Frequencies --    333.0024               343.7534               374.3162
 Red. masses --      2.2220                 3.9728                 2.1202
 Frc consts  --      0.1452                 0.2766                 0.1750
 IR Inten    --     11.4329                 0.7021                 4.7553

                     16                     17                     18
                      A                      A                      A
 Frequencies --    393.6328               415.0768               420.6688
 Red. masses --      2.1376                 2.9973                 3.0348
 Frc consts  --      0.1951                 0.3043                 0.3164
 IR Inten    --      0.8047                 0.0841                 0.6194

                     19                     20                     21
                      A                      A                      A
 Frequencies --    429.6375               442.4107               491.9279
 Red. masses --      3.8925                 3.3469                 4.6981
 Frc consts  --      0.4233                 0.3860                 0.6698
 IR Inten    --      2.7820                 2.5747                 0.7736

                     22                     23                     24
                      A                      A                      A
 Frequencies --    572.4038               584.1878               632.6833
 Red. masses --      2.5969                 2.6243                 3.6493
 Frc consts  --      0.5013                 0.5277                 0.8607
 IR Inten    --      4.1725                 8.1448                 0.9743

                     25                     26                     27
                      A                      A                      A
 Frequencies --    634.4705               690.9773               710.6650
 Red. masses --      4.3096                 4.4819                 2.1337
 Frc consts  --      1.0221                 1.2608                 0.6349
 IR Inten    --      2.6896                 2.2880                28.4673

                     28                     29                     30
                      A                      A                      A
 Frequencies --    742.8187               765.5159               796.5500
 Red. masses --      2.1055                 2.6805                 2.1202
 Frc consts  --      0.6845                 0.9255                 0.7926
 IR Inten    --     23.5936                 3.8982                 9.1242

                     31                     32                     33
                      A                      A                      A
 Frequencies --    830.3712               873.4079               883.2459
 Red. masses --      2.5722                 1.2533                 1.6667
 Frc consts  --      1.0449                 0.5633                 0.7661
 IR Inten    --     20.1041                 0.6830                 3.7699

                     34                     35                     36
                      A                      A                      A
 Frequencies --    903.7156               921.0851               927.6309
 Red. masses --      2.1360                 2.5758                 2.1636
 Frc consts  --      1.0278                 1.2876                 1.0969
 IR Inten    --      2.5670                10.2232                 5.6121

                     37                     38                     39
                      A                      A                      A
 Frequencies --    958.8050               977.0331               986.6029
 Red. masses --      1.3895                 1.9389                 2.0301
 Frc consts  --      0.7526                 1.0905                 1.1643
 IR Inten    --      4.7209                 7.4528                 5.2339

                     40                     41                     42
                      A                      A                      A
 Frequencies --    992.0670              1005.6356              1013.8018
 Red. masses --      1.3819                 1.5305                 1.9922
 Frc consts  --      0.8013                 0.9119                 1.2064
 IR Inten    --      1.9847                 3.2171                 2.2078

                     43                     44                     45
                      A                      A                      A
 Frequencies --   1025.3465              1034.4926              1052.1982
 Red. masses --      3.3680                 2.5038                 2.0100
 Frc consts  --      2.0862                 1.5787                 1.3111
 IR Inten    --      4.8027                10.4986                22.0982

                     46                     47                     48
                      A                      A                      A
 Frequencies --   1064.4808              1089.8808              1108.3129
 Red. masses --      1.9415                 2.1664                 2.1661
 Frc consts  --      1.2961                 1.5161                 1.5677
 IR Inten    --      1.3310                 9.7544                 5.2270

                     49                     50                     51
                      A                      A                      A
 Frequencies --   1119.4834              1127.7204              1129.8802
 Red. masses --      1.6780                 1.8925                 2.1121
 Frc consts  --      1.2390                 1.4180                 1.5886
 IR Inten    --      0.7403                14.6257                 5.4662

                     52                     53                     54
                      A                      A                      A
 Frequencies --   1163.8831              1189.7699              1194.2489
 Red. masses --      1.3511                 2.0531                 1.1166
 Frc consts  --      1.0784                 1.7123                 0.9383
 IR Inten    --      9.9642                19.1214                 3.7506

                     55                     56                     57
                      A                      A                      A
 Frequencies --   1209.5502              1215.2734              1222.5087
 Red. masses --      1.3841                 1.3125                 1.2715
 Frc consts  --      1.1930                 1.1421                 1.1196
 IR Inten    --      4.9196                 5.5306                 0.6363

                     58                     59                     60
                      A                      A                      A
 Frequencies --   1227.9816              1262.2269              1275.8641
 Red. masses --      1.3237                 1.5927                 1.6697
 Frc consts  --      1.1760                 1.4950                 1.6014
 IR Inten    --     37.9275                43.7263                93.8908

                     61                     62                     63
                      A                      A                      A
 Frequencies --   1298.2421              1318.6153              1329.5646
 Red. masses --      1.3169                 1.9142                 1.2870
 Frc consts  --      1.3078                 1.9610                 1.3404
 IR Inten    --      8.2028                16.4888                 2.8732

                     64                     65                     66
                      A                      A                      A
 Frequencies --   1354.1988              1356.9955              1372.0977
 Red. masses --      2.2415                 1.4413                 1.6416
 Frc consts  --      2.4218                 1.5637                 1.8209
 IR Inten    --      1.6638                 3.5464                 7.9064

                     67                     68                     69
                      A                      A                      A
 Frequencies --   1377.5259              1382.0295              1392.2820
 Red. masses --      1.7895                 1.4995                 1.3397
 Frc consts  --      2.0007                 1.6875                 1.5301
 IR Inten    --      3.0215                 4.9460                12.9732

                     70                     71                     72
                      A                      A                      A
 Frequencies --   1404.9776              1409.5314              1423.4061
 Red. masses --      1.3820                 1.4189                 1.4495
 Frc consts  --      1.6073                 1.6609                 1.7303
 IR Inten    --     15.4068                12.2177                 4.2093

                     73                     74                     75
                      A                      A                      A
 Frequencies --   1434.2311              1483.8529              1494.1812
 Red. masses --      1.4290                 1.1893                 1.7944
 Frc consts  --      1.7319                 1.5428                 2.3603
 IR Inten    --     12.3869                 0.4103                11.2750

                     76                     77                     78
                      A                      A                      A
 Frequencies --   1502.6188              1514.9618              1519.7439
 Red. masses --      1.2864                 1.0511                 1.0923
 Frc consts  --      1.7113                 1.4213                 1.4864
 IR Inten    --     12.9207                12.0497                 4.0191

                     79                     80                     81
                      A                      A                      A
 Frequencies --   1522.8565              1527.5963              1530.5163
 Red. masses --      1.0923                 1.0846                 1.0800
 Frc consts  --      1.4925                 1.4912                 1.4906
 IR Inten    --      9.0803                 2.0587                 0.5149

                     82                     83                     84
                      A                      A                      A
 Frequencies --   1540.2475              1547.5930              1551.6950
 Red. masses --      1.0623                 1.8835                 1.1369
 Frc consts  --      1.4849                 2.6578                 1.6129
 IR Inten    --      2.3338                 2.3441                 5.8615

                     85                     86                     87
                      A                      A                      A
 Frequencies --   1639.7182              1661.2091              1764.2130
 Red. masses --      5.2804                 5.1837                11.1474
 Frc consts  --      8.3648                 8.4283                20.4421
 IR Inten    --      7.5897                20.8681               134.6248

                     88                     89                     90
                      A                      A                      A
 Frequencies --   2924.5421              2935.4133              2946.2424
 Red. masses --      1.0740                 1.0703                 1.0646
 Frc consts  --      5.4121                 5.4335                 5.4446
 IR Inten    --     49.3334                28.5325               214.6110

                     91                     92                     93
                      A                      A                      A
 Frequencies --   3022.9993              3041.4712              3042.2271
 Red. masses --      1.0821                 1.0704                 1.0770
 Frc consts  --      5.8262                 5.8340                 5.8726
 IR Inten    --     25.3916                36.7011                23.3494

                     94                     95                     96
                      A                      A                      A
 Frequencies --   3050.3335              3054.1669              3069.0366
 Red. masses --      1.0772                 1.0695                 1.0768
 Frc consts  --      5.9053                 5.8780                 5.9756
 IR Inten    --     46.3670                39.4178                20.9842

                     97                     98                     99
                      A                      A                      A
 Frequencies --   3071.2272              3073.4151              3093.0357
 Red. masses --      1.0757                 1.0713                 1.0991
 Frc consts  --      5.9782                 5.9621                 6.1950
 IR Inten    --     50.9397                19.3985                10.7745

                    100                    101                    102
                      A                      A                      A
 Frequencies --   3095.8994              3114.2713              3122.6344
 Red. masses --      1.0974                 1.1036                 1.0984
 Frc consts  --      6.1972                 6.3064                 6.3103
 IR Inten    --     41.4341                30.7242                45.8828

                    103                    104                    105
                      A                      A                      A
 Frequencies --   3152.1815              3181.3713              3191.7638
 Red. masses --      1.0899                 1.0855                 1.0889
 Frc consts  --      6.3807                 6.4729                 6.5358
 IR Inten    --     14.8960                 5.9078                29.2606

                    106                    107                    108
                      A                      A                      A
 Frequencies --   3199.0672              3207.3068              3224.6537
 Red. masses --      1.0930                 1.0962                 1.0930
 Frc consts  --      6.5904                 6.6440                 6.6963
 IR Inten    --      4.2683                36.1851                 8.4658

 - Thermochemistry -
 -------------------
 Temperature   298.150 Kelvin.  Pressure   1.00000 Atm.
 Atom     1 has atomic number  6 and mass  12.00000

 Molecular mass:   231.16231 amu.
 Principal axes and moments of inertia in atomic units:
                           1         2         3
     Eigenvalues --  2685.621365000.914216289.87909
           X            0.99999   0.00130  -0.00409
           Y           -0.00129   1.00000   0.00186
           Z            0.00409  -0.00185   0.99999
 This molecule is an asymmetric top.
 Rotational symmetry number  1.
 Warning -- assumption of classical behavior for rotation
           may cause significant error
 Rotational temperatures (Kelvin)      0.03225     0.01732     0.01377
 Rotational constants (GHZ):           0.67200     0.36088     0.28693
 Zero-point vibrational energy     885469.3 (Joules/Mol)
                                  211.63224 (Kcal/Mol)
 Warning -- explicit consideration of  23 degrees of freedom as
           vibrations may cause significant error
 Vibrational temperatures:     49.66    68.71    88.05   115.60   136.69
          (Kelvin)            181.58   220.73   284.19   319.83   348.19
                              383.19   407.40   479.12   494.58   538.56
                              566.35   597.20   605.25   618.15   636.53
                              707.77   823.56   840.52   910.29   912.86
                              994.16  1022.49  1068.75  1101.41  1146.06
                             1194.72  1256.64  1270.79  1300.25  1325.24
                             1334.65  1379.51  1405.73  1419.50  1427.36
                             1446.89  1458.63  1475.24  1488.40  1513.88
                             1531.55  1568.10  1594.62  1610.69  1622.54
                             1625.65  1674.57  1711.81  1718.26  1740.27
                             1748.51  1758.92  1766.79  1816.06  1835.68
                             1867.88  1897.19  1912.95  1948.39  1952.41
                             1974.14  1981.95  1988.43  2003.18  2021.45
                             2028.00  2047.96  2063.54  2134.93  2149.79
                             2161.93  2179.69  2186.57  2191.05  2197.87
                             2202.07  2216.07  2226.64  2232.54  2359.19
                             2390.11  2538.31  4207.76  4223.40  4238.99
                             4349.42  4376.00  4377.09  4388.75  4394.26
                             4415.66  4418.81  4421.96  4450.19  4454.31
                             4480.74  4492.77  4535.29  4577.28  4592.24
                             4602.74  4614.60  4639.56

 Zero-point correction=                           0.337257 (Hartree/Particle)
 Thermal correction to Energy=                    0.352949
 Thermal correction to Enthalpy=                  0.353893
 Thermal correction to Gibbs Free Energy=         0.293772
 Sum of electronic and zero-point Energies=           -713.951156
 Sum of electronic and thermal Energies=              -713.935464
 Sum of electronic and thermal Enthalpies=            -713.934520
 Sum of electronic and thermal Free Energies=         -713.994642

                     E (Thermal)             CV                S
                      KCal/Mol        Cal/Mol-Kelvin    Cal/Mol-Kelvin
 Total                  221.479             61.723            126.537
 Electronic               0.000              0.000              0.000
 Translational            0.889              2.981             42.216
 Rotational               0.889              2.981             32.802
 Vibrational            219.701             55.762             51.519
 Vibration     1          0.594              1.983              5.551
 Vibration     2          0.595              1.978              4.908
 Vibration     3          0.597              1.973              4.418
 Vibration     4          0.600              1.962              3.882
 Vibration     5          0.603              1.953              3.554
 Vibration     6          0.611              1.927              3.003
 Vibration     7          0.619              1.899              2.629
 Vibration     8          0.637              1.843              2.156
 Vibration     9          0.648              1.807              1.940
 Vibration    10          0.658              1.776              1.788
 Vibration    11          0.672              1.735              1.620
 Vibration    12          0.682              1.705              1.515
 Vibration    13          0.715              1.610              1.245
 Vibration    14          0.723              1.588              1.195
 Vibration    15          0.745              1.525              1.062
 Vibration    16          0.761              1.484              0.986
 Vibration    17          0.778              1.437              0.909
 Vibration    18          0.783              1.425              0.890
 Vibration    19          0.791              1.406              0.860
 Vibration    20          0.802              1.378              0.819
 Vibration    21          0.848              1.268              0.679
 Vibration    22          0.929              1.091              0.500
 Vibration    23          0.941              1.066              0.478

 Optimization completed.
    -- Stationary point found.
 Normal termination of Gaussian 16 at Wed Dec 30 14:33:33 2020.

 ----------------------------------------------------------------------
 # B3LYP/6-311++G(d,p) empiricaldispersion=gd3bj scf=xqc pop=npa geom=c
 heck
 ----------------------------------------------------------------------

 ---------------------------------------
 CID_116562363_JID_7592_Energie_neutraal
 ---------------------------------------
 Structure from the checkpoint file:  "JID_7592.chk"
 Charge =  0 Multiplicity = 1

 SCF Done:  E(RB3LYP) =  -714.479123488     A.U. after   15 cycles
 Normal termination of Gaussian 16 at Wed Dec 30 14:41:22 2020.

 ----------------------------------------------------------------------
 # B3LYP/6-311++G(d,p) empiricaldispersion=gd3bj scf=xqc pop=npa geom=c
 heck
 ----------------------------------------------------------------------

 -------------------------------------
 CID_116562363_JID_7592_Energie_kation
 -------------------------------------
 Structure from the checkpoint file:  "JID_7592.chk"
 Charge =  1 Multiplicity = 2

 SCF Done:  E(UB3LYP) =  -714.188224825     A.U. after   30 cycles
 Normal termination of Gaussian 16 at Wed Dec 30 15:02:52 2020.
 Gaussian 16:  ES64L-G16RevA.03 25-Dec-2016

 ----------------------------------------------------------------------
 # B3LYP/6-311++G(d,p) empiricaldispersion=gd3bj scf=xqc pop=npa geom=c
 heck
 ----------------------------------------------------------------------

 ------------------------------------
 CID_116562363_JID_7592_Energie_anion
 ------------------------------------
 Structure from the checkpoint file:  "JID_7592.chk"
 Charge = -1 Multiplicity = 2

                         Standard orientation:
 ---------------------------------------------------------------------
 Center     Atomic      Atomic             Coordinates (Angstroms)
 Number     Number       Type             X           Y           Z
 ---------------------------------------------------------------------
      1          6           0        2.177063   -2.169069   -1.450755
      2          6           0       -1.437552   -0.853640   -0.485060
      3          6           0       -2.283378   -1.948748   -0.309403
      4          6           0       -3.594291   -1.761751    0.130734
      5          6           0       -4.057517   -0.474026    0.417269
      6          6           0       -3.211208    0.618500    0.262303
      7          6           0       -1.898828    0.440800   -0.202111
      8          6           0       -1.033298    1.655240   -0.336710
      9          8           0       -1.332757    2.692970    0.238580
     10          6           0        0.193823    1.626649   -1.244786
     11          6           0        1.458171    2.200537   -0.577189
     12          6           0        2.262950    1.197514    0.268383
     13          6           0        1.485707    0.671904    1.493587
     14          6           0        2.107405   -0.635347    1.986848
     15          6           0        1.979340   -1.730295    0.910689
     16          7           0        1.927557   -1.156862   -0.441043
     17          6           0        2.797815    0.009697   -0.572378
     18          1           0        3.195684   -2.599679   -1.391078
     19          1           0        1.460033   -2.989677   -1.331568
     20          1           0        2.043614   -1.740793   -2.450151
     21          1           0       -1.916857   -2.950565   -0.516393
     22          1           0       -4.253358   -2.616586    0.256208
     23          1           0       -5.076262   -0.327127    0.764918
     24          1           0       -3.542648    1.625403    0.493107
     25          1           0        0.381176    0.633091   -1.652701
     26          1           0       -0.078109    2.272335   -2.090723
     27          1           0        2.119441    2.594598   -1.359327
     28          1           0        1.156713    3.054752    0.039933
     29          1           0        3.141368    1.740285    0.644332
     30          1           0        1.478708    1.430927    2.283464
     31          1           0        0.440036    0.481272    1.236766
     32          1           0        3.165832   -0.464962    2.222827
     33          1           0        1.632455   -0.976266    2.912966
     34          1           0        2.821567   -2.442172    1.005017
     35          1           0        1.055439   -2.304399    1.059613
     36          1           0       -0.404772   -1.008410   -0.782918
     37          1           0        2.833267    0.287394   -1.632218
     38          1           0        3.838616   -0.232936   -0.281938
 ---------------------------------------------------------------------

 SCF Done:  E(UB3LYP) =  -714.482979036     A.U. after   33 cycles
 SCF Done:  E(UB3LYP) =  -714.482979036     a.u. after    1 cycles

 The electronic state is 2-A.
 Alpha  occ. eigenvalues --  -18.92234 -14.20399 -10.09444 -10.08951 -10.08892
 Alpha  occ. eigenvalues --  -10.06677 -10.06320 -10.06278 -10.04786 -10.04383
 Alpha  occ. eigenvalues --  -10.03199 -10.03130 -10.03030 -10.02325 -10.02240
 Alpha  occ. eigenvalues --  -10.01859 -10.01656  -0.86319  -0.82903  -0.70862
 Alpha  occ. eigenvalues --   -0.70137  -0.66425  -0.62299  -0.60426  -0.60123
 Alpha  occ. eigenvalues --   -0.59202  -0.54276  -0.52088  -0.48859  -0.46571
 Alpha  occ. eigenvalues --   -0.45583  -0.42173  -0.39928  -0.39296  -0.38424
 Alpha  occ. eigenvalues --   -0.36670  -0.35712  -0.33513  -0.32747  -0.32092
 Alpha  occ. eigenvalues --   -0.30665  -0.30088  -0.29702  -0.29367  -0.28375
 Alpha  occ. eigenvalues --   -0.27950  -0.27589  -0.27295  -0.25425  -0.24724
 Alpha  occ. eigenvalues --   -0.24181  -0.23066  -0.22536  -0.21650  -0.21102
 Alpha  occ. eigenvalues --   -0.20457  -0.19656  -0.19473  -0.18352  -0.11702
 Alpha  occ. eigenvalues --   -0.11490  -0.11225  -0.08482   0.04797
 Alpha virt. eigenvalues --    0.06441   0.07839   0.08461   0.08891   0.09713
 Alpha virt. eigenvalues --    0.10190   0.10435   0.11000   0.11330   0.11854
 Alpha virt. eigenvalues --    0.12233   0.12547   0.13015   0.13678   0.13835

  Beta  occ. eigenvalues --  -18.91787 -14.20397 -10.09438 -10.08938 -10.08886
  Beta  occ. eigenvalues --  -10.06344 -10.06311 -10.06278 -10.04777 -10.04356
  Beta  occ. eigenvalues --  -10.03270 -10.03169 -10.03062 -10.02127 -10.02025
  Beta  occ. eigenvalues --  -10.01691 -10.01553  -0.85480  -0.82895  -0.70566
  Beta  occ. eigenvalues --   -0.70108  -0.66388  -0.62061  -0.60084  -0.59880
  Beta  occ. eigenvalues --   -0.59168  -0.54131  -0.52055  -0.48480  -0.46284
  Beta  occ. eigenvalues --   -0.45395  -0.42125  -0.39740  -0.39186  -0.38362
  Beta  occ. eigenvalues --   -0.36562  -0.35474  -0.33425  -0.32535  -0.32050
  Beta  occ. eigenvalues --   -0.30490  -0.29960  -0.29650  -0.29221  -0.28320
  Beta  occ. eigenvalues --   -0.27896  -0.27495  -0.27082  -0.25089  -0.24455
  Beta  occ. eigenvalues --   -0.23485  -0.22950  -0.22417  -0.21310  -0.20778
  Beta  occ. eigenvalues --   -0.20212  -0.19565  -0.19347  -0.17032  -0.11453
  Beta  occ. eigenvalues --   -0.10993  -0.09747  -0.08039
  Beta virt. eigenvalues --    0.06577   0.07826   0.08301   0.08833   0.09670
  Beta virt. eigenvalues --    0.10108   0.10330   0.10702   0.10956   0.11419
  Beta virt. eigenvalues --    0.11832   0.12174   0.12724   0.13034   0.13583

 Mulliken charges and spin densities:
               1          2
     1  C   -0.188887  -0.146467
     2  C   -0.401816   0.061298
     3  C   -0.184046   0.030355
     4  C   -0.336085   0.214919
     5  C   -0.458006  -0.047191
     6  C    0.138789   0.209418
     7  C    0.718716  -0.049370
     8  C   -0.950477   0.240921
     9  O   -0.331835   0.166209
    10  C    0.333783   0.001806
    11  C   -0.679074  -0.050366
    12  C    0.612528  -0.031041
    13  C   -0.459106   0.068181
    14  C   -0.384120  -0.079044
    15  C   -0.063435  -0.300274
    16  N    0.081800   0.044250
    17  C   -0.597182  -0.149593
    18  H    0.006931   0.102388
    19  H    0.096890   0.035424
    20  H    0.131168  -0.001952
    21  H    0.087754   0.029994
    22  H    0.101022  -0.015256
    23  H    0.115002   0.003283
    24  H    0.183723  -0.009477
    25  H    0.211607  -0.016479
    26  H    0.067505   0.109715
    27  H    0.106447   0.008284
    28  H    0.197506  -0.002271
    29  H    0.129192   0.051922
    30  H    0.137173   0.036726
    31  H    0.157891  -0.018210
    32  H    0.031734   0.089829
    33  H    0.052162   0.119989
    34  H   -0.098746   0.196457
    35  H    0.158712  -0.003310
    36  H    0.141594  -0.036430
    37  H    0.166742  -0.007785
    38  H   -0.033556   0.143148
 Sum of Mulliken charges =  -1.00000   1.00000

 Dipole moment (field-independent basis, Debye):
    X=              4.8808    Y=             -2.8267    Z=             -1.1071  Tot=              5.7478
 Quadrupole moment (field-independent basis, Debye-Ang):
   XX=           -149.5454   YY=           -138.5955   ZZ=           -119.2315
   XY=              7.5866   XZ=             -3.5890   YZ=              0.3301

 Summary of Natural Population Analysis:

                                       Natural Population
                Natural  -----------------------------------------------
    Atom  No    Charge         Core      Valence    Rydberg      Total
 -----------------------------------------------------------------------
      C    1   -0.17365      0.99966     2.16627    0.00772     3.17365
      C    2   -0.07799      0.99953     2.06923    0.00923     3.07799
      C    3   -0.12529      0.99957     2.11697    0.00875     3.12529
      C    4   -0.05130      0.99957     2.04249    0.00923     3.05130
      C    5   -0.12996      0.99957     2.12129    0.00909     3.12996
      C    6   -0.04855      0.99953     2.04049    0.00852     3.04855
      C    7   -0.05339      0.99946     2.04309    0.01084     3.05339
      C    8    0.31098      0.99962     1.66603    0.02337     2.68902
      O    9   -0.26756      0.99988     3.26185    0.00583     4.26756
      C   10   -0.23577      0.99959     2.22757    0.00861     3.23577
      C   11   -0.18125      0.99961     2.17205    0.00959     3.18125
      C   12   -0.11099      0.99959     2.09919    0.01221     3.11099
      C   13   -0.19274      0.99961     2.18394    0.00919     3.19274
      C   14   -0.19662      0.99963     2.18871    0.00828     3.19662
      C   15   -0.07963      0.99962     2.06915    0.01086     3.07963
      N   16   -0.29066      0.99972     2.78031    0.01064     3.79066
      C   17   -0.08308      0.99961     2.07211    0.01136     3.08308
      H   18    0.07803      0.00000     0.42037    0.00160     0.42197
      H   19    0.09601      0.00000     0.40320    0.00079     0.40399
      H   20    0.09373      0.00000     0.40561    0.00066     0.40627
      H   21    0.08878      0.00000     0.40982    0.00140     0.41122
      H   22    0.08522      0.00000     0.41372    0.00106     0.41478
      H   23    0.08977      0.00000     0.40919    0.00104     0.41023
      H   24    0.10382      0.00000     0.39512    0.00106     0.39618
      H   25    0.09932      0.00000     0.39935    0.00133     0.40068
      H   26    0.10624      0.00000     0.39238    0.00138     0.39376
      H   27    0.08728      0.00000     0.41180    0.00092     0.41272
      H   28    0.10835      0.00000     0.39057    0.00108     0.39165
      H   29    0.09159      0.00000     0.40746    0.00095     0.40841
      H   30    0.09931      0.00000     0.39991    0.00078     0.40069
      H   31    0.11356      0.00000     0.38456    0.00187     0.38644
      H   32    0.09035      0.00000     0.40836    0.00129     0.40965
      H   33    0.10092      0.00000     0.39832    0.00076     0.39908
      H   34    0.07868      0.00000     0.41972    0.00160     0.42132
      H   35    0.09774      0.00000     0.40121    0.00105     0.40226
      H   36    0.10363      0.00000     0.39369    0.00268     0.39637
      H   37    0.09502      0.00000     0.40402    0.00095     0.40498
      H   38    0.08009      0.00000     0.41834    0.00157     0.41991
 =======================================================================
   * Total *   -0.00000     16.99337    45.80748    0.19914    63.00000

 Normal termination of Gaussian 16 at Wed Dec 30 15:27:08 2020.
