 Gaussian 16, Revision A.03,

 -----------------------------------------------------------
 # opt freq B3LYP/6-31G(d) empiricaldispersion=gd3bj scf=xqc
 -----------------------------------------------------------

 ------------------------------
 CID_152564538_JID_371_neutraal
 ------------------------------
 Symbolic Z-matrix:
 Charge =  0 Multiplicity = 1

 SCF Done:  E(RB3LYP) =  -1160.43496239     A.U. after   16 cycles
 SCF Done:  E(RB3LYP) =  -1160.44120727     A.U. after   13 cycles
 SCF Done:  E(RB3LYP) =  -1160.44245968     A.U. after   13 cycles
 SCF Done:  E(RB3LYP) =  -1160.44171486     A.U. after   13 cycles
 SCF Done:  E(RB3LYP) =  -1160.44274227     A.U. after   12 cycles
 SCF Done:  E(RB3LYP) =  -1160.44277150     A.U. after   11 cycles
 SCF Done:  E(RB3LYP) =  -1160.44277935     A.U. after   11 cycles
 SCF Done:  E(RB3LYP) =  -1160.44278075     A.U. after    9 cycles
 SCF Done:  E(RB3LYP) =  -1160.44278127     A.U. after    9 cycles
 SCF Done:  E(RB3LYP) =  -1160.44278134     A.U. after    8 cycles
 SCF Done:  E(RB3LYP) =  -1160.44278137     A.U. after    8 cycles
 Optimization completed.
    -- Stationary point found.
 Normal termination of Gaussian 16 at Tue Dec  8 10:29:17 2020.

 --------------------------------------------------------------------
 #N Geom=AllCheck Guess=TCheck SCRF=Check GenChk RB3LYP/6-31G(d) Freq
 --------------------------------------------------------------------

 Structure from the checkpoint file:  "JID_371.chk"
 ------------------------------
 CID_152564538_JID_371_neutraal
 ------------------------------
 Charge =  0 Multiplicity = 1

 SCF Done:  E(RB3LYP) =  -1160.44278137     A.U. after    1 cycles

  Exact polarizability: 136.443   8.018 107.912   3.264   2.587  69.810
 Approx polarizability: 205.345  14.162 175.659  15.257  10.979 112.114

                      1                      2                      3
                      A                      A                      A
 Frequencies --     42.6660                57.3255                79.7639
 Red. masses --      3.3011                 5.4276                 3.9593
 Frc consts  --      0.0035                 0.0105                 0.0148
 IR Inten    --      1.8683                 0.8444                 0.9567

                      4                      5                      6
                      A                      A                      A
 Frequencies --    150.3613               171.2411               220.7361
 Red. masses --      1.0844                 4.5541                 2.4696
 Frc consts  --      0.0144                 0.0787                 0.0709
 IR Inten    --      0.1480                 0.7293                 1.9760

                      7                      8                      9
                      A                      A                      A
 Frequencies --    225.1113               254.4779               274.0977
 Red. masses --      1.9871                 3.0824                 2.0517
 Frc consts  --      0.0593                 0.1176                 0.0908
 IR Inten    --      1.6404                 1.2889                 3.3081

                     10                     11                     12
                      A                      A                      A
 Frequencies --    306.3190               374.4497               381.8817
 Red. masses --      3.8185                 1.5844                 3.9639
 Frc consts  --      0.2111                 0.1309                 0.3406
 IR Inten    --      7.8656                59.9111                16.7103

                     13                     14                     15
                      A                      A                      A
 Frequencies --    423.4655               474.2013               527.1250
 Red. masses --      4.6788                 7.9951                 5.9876
 Frc consts  --      0.4943                 1.0593                 0.9802
 IR Inten    --      9.3829                 3.1860                15.0331

                     16                     17                     18
                      A                      A                      A
 Frequencies --    538.3054               588.3897               662.6545
 Red. masses --      9.3421                 4.8436                 2.1904
 Frc consts  --      1.5950                 0.9880                 0.5667
 IR Inten    --     12.0968                14.9745                74.7940

                     19                     20                     21
                      A                      A                      A
 Frequencies --    689.7242               708.3066               726.3199
 Red. masses --      5.7370                 2.6033                 2.6762
 Frc consts  --      1.6080                 0.7695                 0.8318
 IR Inten    --      1.1507                90.2056               101.6029

                     22                     23                     24
                      A                      A                      A
 Frequencies --    891.1498               926.9373               969.8608
 Red. masses --      2.4262                 3.9072                 4.1099
 Frc consts  --      1.1352                 1.9779                 2.2777
 IR Inten    --     10.4988                36.3959                52.0130

                     25                     26                     27
                      A                      A                      A
 Frequencies --    987.9863              1004.5192              1065.9276
 Red. masses --      1.1839                 1.3100                 1.7860
 Frc consts  --      0.6809                 0.7788                 1.1956
 IR Inten    --      1.5852                21.9370                11.1174

                     28                     29                     30
                      A                      A                      A
 Frequencies --   1103.2663              1118.7601              1187.4568
 Red. masses --      2.7855                 1.6545                 1.8214
 Frc consts  --      1.9976                 1.2201                 1.5131
 IR Inten    --     14.7770                 8.2822                21.4314

                     31                     32                     33
                      A                      A                      A
 Frequencies --   1273.9453              1307.3782              1379.2151
 Red. masses --      1.5959                 1.4143                 1.1816
 Frc consts  --      1.5260                 1.4243                 1.3243
 IR Inten    --      3.1741                 1.9181                 7.6955

                     34                     35                     36
                      A                      A                      A
 Frequencies --   1403.6528              1433.8166              1495.0138
 Red. masses --      2.8213                 1.3357                 1.0534
 Frc consts  --      3.2751                 1.6178                 1.3872
 IR Inten    --     18.5605                 4.2793                 8.2245

                     37                     38                     39
                      A                      A                      A
 Frequencies --   1512.3337              1525.3578              1531.6053
 Red. masses --      1.0539                 1.0592                 1.0476
 Frc consts  --      1.4202                 1.4520                 1.4479
 IR Inten    --      9.5651                 6.6416                 7.6146

                     40                     41                     42
                      A                      A                      A
 Frequencies --   1644.7206              1693.6073              1817.5130
 Red. masses --      2.0743                 1.9171                12.8236
 Frc consts  --      3.3060                 3.2399                24.9583
 IR Inten    --     14.5993               179.7510               337.5240

                     43                     44                     45
                      A                      A                      A
 Frequencies --   3037.6934              3060.1507              3070.5859
 Red. masses --      1.0818                 1.0359                 1.0287
 Frc consts  --      5.8813                 5.7154                 5.7144
 IR Inten    --      4.1028                25.3419                22.8435

                     46                     47                     48
                      A                      A                      A
 Frequencies --   3128.2338              3154.0411              3161.8982
 Red. masses --      1.1025                 1.1025                 1.1057
 Frc consts  --      6.3565                 6.4619                 6.5128
 IR Inten    --     18.8411                 7.8727                 7.5857

                     49                     50                     51
                      A                      A                      A
 Frequencies --   3165.8366              3525.5041              3630.5100
 Red. masses --      1.1085                 1.0478                 1.0974
 Frc consts  --      6.5459                 7.6729                 8.5220
 IR Inten    --      7.1505                11.0854                16.7728

 - Thermochemistry -
 -------------------
 Temperature   298.150 Kelvin.  Pressure   1.00000 Atm.
 Atom     1 has atomic number  6 and mass  12.00000

 Molecular mass:   175.01256 amu.
 Principal axes and moments of inertia in atomic units:
                           1         2         3
     Eigenvalues --  1126.592882454.972703259.03932
           X            0.99865   0.04630  -0.02343
           Y           -0.04661   0.99883  -0.01287
           Z            0.02281   0.01394   0.99964
 This molecule is an asymmetric top.
 Rotational symmetry number  1.
 Warning -- assumption of classical behavior for rotation
           may cause significant error
 Rotational temperatures (Kelvin)      0.07688     0.03528     0.02658
 Rotational constants (GHZ):           1.60195     0.73514     0.55376
 Zero-point vibrational energy     383315.8 (Joules/Mol)
                                   91.61468 (Kcal/Mol)
 Warning -- explicit consideration of  17 degrees of freedom as
           vibrations may cause significant error
 Vibrational temperatures:     61.39    82.48   114.76   216.34   246.38
          (Kelvin)            317.59   323.88   366.14   394.37   440.72
                              538.75   549.44   609.27   682.27   758.42
                              774.50   846.56   953.41   992.36  1019.10
                             1045.01  1282.17  1333.66  1395.41  1421.49
                             1445.28  1533.63  1587.35  1609.65  1708.49
                             1832.92  1881.03  1984.38  2019.54  2062.94
                             2150.99  2175.91  2194.65  2203.64  2366.39
                             2436.72  2615.00  4370.56  4402.87  4417.89
                             4500.83  4537.96  4549.27  4554.93  5072.41
                             5223.49

 Zero-point correction=                           0.145997 (Hartree/Particle)
 Thermal correction to Energy=                    0.157525
 Thermal correction to Enthalpy=                  0.158469
 Thermal correction to Gibbs Free Energy=         0.107774
 Sum of electronic and zero-point Energies=          -1160.296784
 Sum of electronic and thermal Energies=             -1160.285256
 Sum of electronic and thermal Enthalpies=           -1160.284312
 Sum of electronic and thermal Free Energies=        -1160.335007

                     E (Thermal)             CV                S
                      KCal/Mol        Cal/Mol-Kelvin    Cal/Mol-Kelvin
 Total                   98.848             41.150            106.697
 Electronic               0.000              0.000              0.000
 Translational            0.889              2.981             41.386
 Rotational               0.889              2.981             30.578
 Vibrational             97.071             35.189             34.732
 Vibration     1          0.595              1.980              5.131
 Vibration     2          0.596              1.975              4.547
 Vibration     3          0.600              1.963              3.897
 Vibration     4          0.618              1.902              2.668
 Vibration     5          0.626              1.878              2.422
 Vibration     6          0.647              1.810              1.953
 Vibration     7          0.650              1.803              1.918
 Vibration     8          0.665              1.755              1.699
 Vibration     9          0.676              1.721              1.570
 Vibration    10          0.697              1.662              1.382
 Vibration    11          0.746              1.525              1.062
 Vibration    12          0.751              1.509              1.032
 Vibration    13          0.786              1.419              0.880
 Vibration    14          0.831              1.307              0.726
 Vibration    15          0.882              1.190              0.594
 Vibration    16          0.893              1.165              0.569
 Vibration    17          0.946              1.057              0.470

 Optimization completed.
    -- Stationary point found.
 Normal termination of Gaussian 16 at Tue Dec  8 10:37:01 2020.

 ----------------------------------------------------------------------
 # B3LYP/6-311++G(d,p) empiricaldispersion=gd3bj scf=xqc pop=npa geom=c
 heck
 ----------------------------------------------------------------------

 --------------------------------------
 CID_152564538_JID_371_Energie_neutraal
 --------------------------------------
 Structure from the checkpoint file:  "JID_371.chk"
 Charge =  0 Multiplicity = 1

 SCF Done:  E(RB3LYP) =  -1160.60771720     A.U. after   15 cycles
 Normal termination of Gaussian 16 at Tue Dec  8 10:42:23 2020.

 ----------------------------------------------------------------------
 # B3LYP/6-311++G(d,p) empiricaldispersion=gd3bj scf=xqc pop=npa geom=c
 heck
 ----------------------------------------------------------------------

 ------------------------------------
 CID_152564538_JID_371_Energie_kation
 ------------------------------------
 Structure from the checkpoint file:  "JID_371.chk"
 Charge =  1 Multiplicity = 2

 SCF Done:  E(UB3LYP) =  -1160.32608411     A.U. after   21 cycles
 Normal termination of Gaussian 16 at Tue Dec  8 10:50:28 2020.
 Gaussian 16:  ES64L-G16RevA.03 25-Dec-2016

 ----------------------------------------------------------------------
 # B3LYP/6-311++G(d,p) empiricaldispersion=gd3bj scf=xqc pop=npa geom=c
 heck
 ----------------------------------------------------------------------

 -----------------------------------
 CID_152564538_JID_371_Energie_anion
 -----------------------------------
 Structure from the checkpoint file:  "JID_371.chk"
 Charge = -1 Multiplicity = 2

                         Standard orientation:
 ---------------------------------------------------------------------
 Center     Atomic      Atomic             Coordinates (Angstroms)
 Number     Number       Type             X           Y           Z
 ---------------------------------------------------------------------
      1          6           0        2.610389    1.415466   -0.436243
      2          6           0        1.581439    0.654618    0.417505
      3          6           0        0.145176    0.999658    0.126820
      4          6           0       -0.640334   -0.041880   -0.235893
      5         16           0        0.208905   -1.629358   -0.257959
      6          6           0        1.763497   -0.858716    0.220687
      7          8           0        2.810349   -1.445023    0.350668
      8         16           0       -2.343677    0.074004   -0.657854
      9          6           0       -3.130993   -0.392380    0.937358
     10          7           0       -0.283642    2.298034    0.335824
     11          1           0        3.609605    1.022809   -0.232495
     12          1           0        2.607459    2.485943   -0.204011
     13          1           0        2.396001    1.288346   -1.502077
     14          1           0        1.788936    0.851088    1.479382
     15          1           0       -2.833377   -1.403776    1.223170
     16          1           0       -2.855579    0.314551    1.722766
     17          1           0       -4.212514   -0.364573    0.779288
     18          1           0        0.387904    3.018100    0.097807
     19          1           0       -1.204410    2.486514   -0.048336
 ---------------------------------------------------------------------

 SCF Done:  E(UB3LYP) =  -1160.60561137     A.U. after   29 cycles

 The electronic state is 2-A.
 Alpha  occ. eigenvalues --  -88.74116 -88.74008 -18.99018 -14.21305 -10.14701
 Alpha  occ. eigenvalues --  -10.10339 -10.09052 -10.08434 -10.08188 -10.05741
 Alpha  occ. eigenvalues --   -7.82646  -7.82639  -5.79046  -5.78953  -5.78676
 Alpha  occ. eigenvalues --   -5.78626  -5.78124  -5.78036  -0.93016  -0.81821
 Alpha  occ. eigenvalues --   -0.72641  -0.68444  -0.64440  -0.58622  -0.55928
 Alpha  occ. eigenvalues --   -0.51190  -0.44751  -0.42338  -0.39591  -0.36329
 Alpha  occ. eigenvalues --   -0.34866  -0.33011  -0.32031  -0.31940  -0.30198
 Alpha  occ. eigenvalues --   -0.29142  -0.27233  -0.26905  -0.25562  -0.24675
 Alpha  occ. eigenvalues --   -0.22180  -0.21230  -0.17388  -0.14407  -0.12457
 Alpha  occ. eigenvalues --   -0.08517   0.04222
 Alpha virt. eigenvalues --    0.06937   0.07719   0.09515   0.09990   0.10632
 Alpha virt. eigenvalues --    0.10931   0.11100   0.11770   0.12120   0.12747
 Alpha virt. eigenvalues --    0.13519   0.14624   0.14985   0.15625   0.16335

  Beta  occ. eigenvalues --  -88.74112 -88.74018 -18.98828 -14.21263 -10.14484
  Beta  occ. eigenvalues --  -10.10236 -10.09046 -10.08356 -10.08215 -10.05638
  Beta  occ. eigenvalues --   -7.82647  -7.82641  -5.79030  -5.78962  -5.78674
  Beta  occ. eigenvalues --   -5.78637  -5.78144  -5.78033  -0.92645  -0.81683
  Beta  occ. eigenvalues --   -0.72497  -0.68306  -0.64346  -0.58467  -0.55765
  Beta  occ. eigenvalues --   -0.51023  -0.44618  -0.42128  -0.39406  -0.36172
  Beta  occ. eigenvalues --   -0.34585  -0.32892  -0.31939  -0.31774  -0.29993
  Beta  occ. eigenvalues --   -0.28878  -0.27056  -0.26501  -0.25345  -0.24318
  Beta  occ. eigenvalues --   -0.22034  -0.21091  -0.17194  -0.14301  -0.12382
  Beta  occ. eigenvalues --   -0.08279
  Beta virt. eigenvalues --    0.06992   0.07913   0.08961   0.10080   0.10579
  Beta virt. eigenvalues --    0.10949   0.11360   0.11538   0.12010   0.12562
  Beta virt. eigenvalues --    0.13144   0.13854   0.14645   0.15206   0.15655

 Mulliken charges and spin densities:
               1          2
     1  C    0.952498  -1.647230
     2  C    0.902415  -0.309741
     3  C   -1.964081   0.553504
     4  C    1.374389   0.109947
     5  S   -0.124848  -0.062776
     6  C   -0.412696   0.211532
     7  O   -0.316492   0.065065
     8  S    0.125763  -0.202625
     9  C    0.063046  -0.771836
    10  N   -0.300278   0.066705
    11  H    0.061567   0.106101
    12  H   -0.487991   0.613152
    13  H   -0.021993   0.177498
    14  H   -0.320599   0.573327
    15  H   -0.021402   0.186855
    16  H   -0.170636   0.362543
    17  H   -0.238851   0.380755
    18  H   -0.067969   0.320925
    19  H   -0.031843   0.266298
 Sum of Mulliken charges =  -1.00000   1.00000

 Dipole moment (field-independent basis, Debye):
    X=             -2.0917    Y=             -1.6746    Z=             -1.9831  Tot=              3.3335
 Quadrupole moment (field-independent basis, Debye-Ang):
   XX=           -127.0968   YY=           -112.4238   ZZ=            -96.3300
   XY=             -2.0261   XZ=             -0.9202   YZ=             -3.8543

 Summary of Natural Population Analysis:

                                       Natural Population
                Natural  -----------------------------------------------
    Atom  No    Charge         Core      Valence    Rydberg      Total
 -----------------------------------------------------------------------
      C    1   -0.27513      0.99964     2.26863    0.00685     3.27513
      C    2   -0.16998      0.99950     2.15801    0.01246     3.16998
      C    3    0.10586      0.99933     1.88101    0.01381     2.89414
      C    4   -0.23077      0.99930     2.21720    0.01426     3.23077
      S    5    0.10552      4.99944     2.87555    0.01948     7.89448
      C    6    0.24337      0.99968     1.72873    0.02822     2.75663
      O    7   -0.27532      0.99986     3.26700    0.00846     4.27532
      S    8    0.10947      4.99949     2.86735    0.02369     7.89053
      C    9   -0.34396      0.99962     2.33791    0.00643     3.34396
      N   10   -0.39284      0.99970     2.88320    0.00994     3.89284
      H   11    0.10879      0.00000     0.39011    0.00110     0.39121
      H   12    0.10026      0.00000     0.39722    0.00252     0.39974
      H   13    0.09887      0.00000     0.40012    0.00102     0.40113
      H   14    0.12673      0.00000     0.37021    0.00306     0.37327
      H   15    0.10303      0.00000     0.39553    0.00144     0.39697
      H   16    0.10406      0.00000     0.39433    0.00161     0.39594
      H   17    0.10221      0.00000     0.39600    0.00179     0.39779
      H   18    0.18891      0.00000     0.30833    0.00276     0.31109
      H   19    0.19094      0.00000     0.30672    0.00235     0.30906
 =======================================================================
   * Total *   -0.00000     17.99556    27.84317    0.16127    46.00000

 Normal termination of Gaussian 16 at Tue Dec  8 10:59:17 2020.
