 Gaussian 16, Revision A.03,

 -----------------------------------------------------------
 # opt freq B3LYP/6-31G(d) empiricaldispersion=gd3bj scf=xqc
 -----------------------------------------------------------

 ------------------------------
 CID_87124386_JID_7692_neutraal
 ------------------------------
 Symbolic Z-matrix:
 Charge =  0 Multiplicity = 1

 SCF Done:  E(RB3LYP) =  -1488.66600510     A.U. after   18 cycles
 SCF Done:  E(RB3LYP) =  -1488.67007548     A.U. after   16 cycles
 SCF Done:  E(RB3LYP) =  -1488.66941931     A.U. after   15 cycles
 SCF Done:  E(RB3LYP) =  -1488.67394584     A.U. after   15 cycles
 SCF Done:  E(RB3LYP) =  -1488.67400898     A.U. after   15 cycles
 SCF Done:  E(RB3LYP) =  -1488.67531138     A.U. after   14 cycles
 SCF Done:  E(RB3LYP) =  -1488.67572675     A.U. after   14 cycles
 SCF Done:  E(RB3LYP) =  -1488.67624996     A.U. after   15 cycles
 SCF Done:  E(RB3LYP) =  -1488.67570664     A.U. after   14 cycles
 SCF Done:  E(RB3LYP) =  -1488.67437953     A.U. after   15 cycles
 SCF Done:  E(RB3LYP) =  -1488.67674052     A.U. after    9 cycles
 SCF Done:  E(RB3LYP) =  -1488.67674113     A.U. after   10 cycles
 SCF Done:  E(RB3LYP) =  -1488.67674149     A.U. after    9 cycles
 SCF Done:  E(RB3LYP) =  -1488.67674176     A.U. after    9 cycles
 SCF Done:  E(RB3LYP) =  -1488.67674179     A.U. after    9 cycles
 SCF Done:  E(RB3LYP) =  -1488.67674183     A.U. after    7 cycles
 Optimization completed.
    -- Stationary point found.
 Normal termination of Gaussian 16 at Fri Dec 11 13:27:23 2020.

 --------------------------------------------------------------------
 #N Geom=AllCheck Guess=TCheck SCRF=Check GenChk RB3LYP/6-31G(d) Freq
 --------------------------------------------------------------------

 Structure from the checkpoint file:  "JID_7692.chk"
 ------------------------------
 CID_87124386_JID_7692_neutraal
 ------------------------------
 Charge =  0 Multiplicity = 1

 SCF Done:  E(RB3LYP) =  -1488.67674183     A.U. after    1 cycles

  Exact polarizability: 192.722   2.608 164.941  11.387   6.549 161.761
 Approx polarizability: 277.485  20.270 250.328  49.284  35.425 339.696

                      1                      2                      3
                      A                      A                      A
 Frequencies --     20.7296                28.5248                44.8219
 Red. masses --      4.0139                 3.6699                 6.0014
 Frc consts  --      0.0010                 0.0018                 0.0071
 IR Inten    --      0.4672                 0.8583                 0.7768

                      4                      5                      6
                      A                      A                      A
 Frequencies --     57.8572                82.9747                87.2758
 Red. masses --      4.9495                 4.7094                 4.3099
 Frc consts  --      0.0098                 0.0191                 0.0193
 IR Inten    --      1.2376                 2.8448                 0.5791

                      7                      8                      9
                      A                      A                      A
 Frequencies --     98.5200               107.3429               117.1626
 Red. masses --      2.9407                 3.0352                 5.4574
 Frc consts  --      0.0168                 0.0206                 0.0441
 IR Inten    --      0.1369                 0.7579                 1.1914

                     10                     11                     12
                      A                      A                      A
 Frequencies --    126.3875               151.2086               178.1382
 Red. masses --      5.5958                 8.1332                 4.7937
 Frc consts  --      0.0527                 0.1096                 0.0896
 IR Inten    --      4.1510                 1.7792                 1.5140

                     13                     14                     15
                      A                      A                      A
 Frequencies --    220.2867               223.2063               231.5125
 Red. masses --      3.4549                 2.4041                 1.2843
 Frc consts  --      0.0988                 0.0706                 0.0406
 IR Inten    --      5.6528                 0.9005                 1.7386

                     16                     17                     18
                      A                      A                      A
 Frequencies --    239.6810               242.1036               275.8686
 Red. masses --      1.2761                 1.2928                 2.5846
 Frc consts  --      0.0432                 0.0446                 0.1159
 IR Inten    --      1.6597                 0.6746                 1.4487

                     19                     20                     21
                      A                      A                      A
 Frequencies --    280.4054               301.1397               307.2109
 Red. masses --      2.3767                 1.8795                 1.6641
 Frc consts  --      0.1101                 0.1004                 0.0925
 IR Inten    --      2.2855                 0.1536                 0.4114

                     22                     23                     24
                      A                      A                      A
 Frequencies --    310.0454               345.4975               382.3791
 Red. masses --      2.1518                 2.8694                 3.4753
 Frc consts  --      0.1219                 0.2018                 0.2994
 IR Inten    --      6.3909                 5.0549                 4.6417

                     25                     26                     27
                      A                      A                      A
 Frequencies --    390.5552               401.3026               408.3231
 Red. masses --      2.4710                 2.3437                 3.1593
 Frc consts  --      0.2221                 0.2224                 0.3103
 IR Inten    --      1.8204                 2.4663                 4.7316

                     28                     29                     30
                      A                      A                      A
 Frequencies --    425.5860               439.5445               472.4266
 Red. masses --      2.0327                 2.9817                 9.9832
 Frc consts  --      0.2169                 0.3394                 1.3128
 IR Inten    --      2.0194                 1.0215                42.6926

                     31                     32                     33
                      A                      A                      A
 Frequencies --    495.9582               513.9534               538.7836
 Red. masses --      5.4645                 3.8107                10.6091
 Frc consts  --      0.7919                 0.5931                 1.8145
 IR Inten    --     26.1134                20.3717                 7.8380

                     34                     35                     36
                      A                      A                      A
 Frequencies --    542.4363               585.7036               657.2586
 Red. masses --      3.4723                 5.9461                 4.4582
 Frc consts  --      0.6020                 1.2018                 1.1347
 IR Inten    --      5.1086                 1.4262                17.4599

                     37                     38                     39
                      A                      A                      A
 Frequencies --    766.9466               768.8539               848.2624
 Red. masses --      2.2378                 2.2523                 8.8041
 Frc consts  --      0.7755                 0.7844                 3.7325
 IR Inten    --      4.2654                 2.5087                34.5584

                     40                     41                     42
                      A                      A                      A
 Frequencies --    878.0056               880.4555               901.6242
 Red. masses --      1.5016                 1.5246                 1.8988
 Frc consts  --      0.6820                 0.6964                 0.9094
 IR Inten    --      4.0936                 6.7165                 1.8209

                     43                     44                     45
                      A                      A                      A
 Frequencies --    911.3291               942.6298               947.0925
 Red. masses --      2.0276                 1.2452                 1.1969
 Frc consts  --      0.9921                 0.6519                 0.6325
 IR Inten    --      7.2681                 1.7709                 1.3856

                     46                     47                     48
                      A                      A                      A
 Frequencies --    970.7956               977.5390               983.6975
 Red. masses --      1.5475                 1.4622                 1.5956
 Frc consts  --      0.8593                 0.8233                 0.9097
 IR Inten    --      1.4114                 8.5427                 0.4894

                     49                     50                     51
                      A                      A                      A
 Frequencies --    986.9373              1044.8939              1047.4782
 Red. masses --      1.7209                 2.4040                 2.0558
 Frc consts  --      0.9876                 1.5464                 1.3290
 IR Inten    --      3.3951                 3.4590                 5.5518

                     52                     53                     54
                      A                      A                      A
 Frequencies --   1066.7805              1083.6592              1112.3046
 Red. masses --     14.1488                13.4738                 1.4131
 Frc consts  --      9.4868                 9.3223                 1.0301
 IR Inten    --    102.0120               120.9822                 1.2388

                     55                     56                     57
                      A                      A                      A
 Frequencies --   1122.6145              1143.7323              1147.2449
 Red. masses --      1.4766                 1.6380                 1.7531
 Frc consts  --      1.0964                 1.2624                 1.3594
 IR Inten    --      1.3024                 2.4922                 3.5892

                     58                     59                     60
                      A                      A                      A
 Frequencies --   1198.6804              1204.0399              1213.8310
 Red. masses --      1.6397                 1.6103                 1.6007
 Frc consts  --      1.3881                 1.3754                 1.3896
 IR Inten    --      2.7892                 3.0161                 2.2762

                     61                     62                     63
                      A                      A                      A
 Frequencies --   1219.7152              1275.9278              1276.9901
 Red. masses --      1.4436                 1.4146                 1.4277
 Frc consts  --      1.2654                 1.3569                 1.3717
 IR Inten    --      1.3993                 0.1357                 1.0960

                     64                     65                     66
                      A                      A                      A
 Frequencies --   1315.7452              1330.6750              1344.5709
 Red. masses --      1.2843                 1.3170                 8.8824
 Frc consts  --      1.3099                 1.3740                 9.4612
 IR Inten    --     12.6127                 8.8357                74.4647

                     67                     68                     69
                      A                      A                      A
 Frequencies --   1352.2032              1364.6085              1389.9522
 Red. masses --      1.2636                 1.2501                 1.3306
 Frc consts  --      1.3613                 1.3716                 1.5146
 IR Inten    --      2.3216                 1.7576                 5.5651

                     70                     71                     72
                      A                      A                      A
 Frequencies --   1391.6707              1415.1572              1422.6993
 Red. masses --      1.3330                 1.5096                 1.4443
 Frc consts  --      1.5211                 1.7812                 1.7224
 IR Inten    --      2.5810                 2.2884                 0.8794

                     73                     74                     75
                      A                      A                      A
 Frequencies --   1431.9554              1434.2668              1453.2346
 Red. masses --      1.2703                 1.2472                 1.2358
 Frc consts  --      1.5346                 1.5117                 1.5376
 IR Inten    --      7.1334                 2.1075                 8.6875

                     76                     77                     78
                      A                      A                      A
 Frequencies --   1457.4900              1494.9263              1496.5625
 Red. masses --      1.2281                 1.0796                 1.0807
 Frc consts  --      1.5370                 1.4216                 1.4261
 IR Inten    --      5.7854                 9.1956                12.9368

                     79                     80                     81
                      A                      A                      A
 Frequencies --   1502.0822              1508.2506              1516.9314
 Red. masses --      1.0833                 1.0848                 1.0435
 Frc consts  --      1.4401                 1.4540                 1.4147
 IR Inten    --     10.8536                 4.0722                 1.7769

                     82                     83                     84
                      A                      A                      A
 Frequencies --   1523.7937              1524.8699              1526.6619
 Red. masses --      1.0508                 1.0543                 1.0487
 Frc consts  --      1.4375                 1.4444                 1.4400
 IR Inten    --      1.9008                 3.3627                 7.7625

                     85                     86                     87
                      A                      A                      A
 Frequencies --   1534.8107              1538.1423              1539.2420
 Red. masses --      1.0521                 1.0542                 1.0566
 Frc consts  --      1.4603                 1.4695                 1.4749
 IR Inten    --      6.0924                12.0514                 6.4333

                     88                     89                     90
                      A                      A                      A
 Frequencies --   1556.3480              2170.5168              3026.1433
 Red. masses --      1.0462                13.8205                 1.0603
 Frc consts  --      1.4931                38.3620                 5.7209
 IR Inten    --     11.2350               516.0925                17.5572

                     91                     92                     93
                      A                      A                      A
 Frequencies --   3036.6461              3038.3531              3039.6580
 Red. masses --      1.0642                 1.0445                 1.0484
 Frc consts  --      5.7815                 5.6811                 5.7070
 IR Inten    --     15.4766                11.3681                10.7728

                     94                     95                     96
                      A                      A                      A
 Frequencies --   3040.6968              3044.5886              3045.3364
 Red. masses --      1.0518                 1.0478                 1.0460
 Frc consts  --      5.7298                 5.7222                 5.7154
 IR Inten    --     19.3549                48.3096                22.9429

                     97                     98                     99
                      A                      A                      A
 Frequencies --   3061.6543              3063.5500              3084.7473
 Red. masses --      1.0770                 1.0997                 1.0639
 Frc consts  --      5.9479                 6.0809                 5.9647
 IR Inten    --     33.1342                22.7748                 8.7688

                    100                    101                    102
                      A                      A                      A
 Frequencies --   3086.7339              3097.2888              3101.3262
 Red. masses --      1.0636                 1.0939                 1.1001
 Frc consts  --      5.9705                 6.1829                 6.2340
 IR Inten    --      9.3653                 4.3951                14.8540

                    103                    104                    105
                      A                      A                      A
 Frequencies --   3103.7285              3107.1116              3110.7403
 Red. masses --      1.1004                 1.1004                 1.0996
 Frc consts  --      6.2452                 6.2594                 6.2690
 IR Inten    --     14.8067                50.6942                75.2349

                    106                    107                    108
                      A                      A                      A
 Frequencies --   3115.1522              3120.1385              3122.6920
 Red. masses --      1.1017                 1.1015                 1.1020
 Frc consts  --      6.2989                 6.3181                 6.3314
 IR Inten    --     36.3275                33.6023                26.6753

                    109                    110                    111
                      A                      A                      A
 Frequencies --   3132.9515              3142.8122              3159.2291
 Red. masses --      1.1019                 1.1039                 1.1032
 Frc consts  --      6.3721                 6.4241                 6.4874
 IR Inten    --      5.2703                 4.6132                 0.3228

 - Thermochemistry -
 -------------------
 Temperature   298.150 Kelvin.  Pressure   1.00000 Atm.
 Atom     1 has atomic number  6 and mass  12.00000

 Molecular mass:   278.11227 amu.
 Principal axes and moments of inertia in atomic units:
                           1         2         3
     Eigenvalues --  4033.751855559.729327196.97512
           X            0.99895  -0.04492   0.00932
           Y            0.04501   0.99895  -0.00906
           Z           -0.00890   0.00947   0.99992
 This molecule is an asymmetric top.
 Rotational symmetry number  1.
 Warning -- assumption of classical behavior for rotation
           may cause significant error
 Rotational temperatures (Kelvin)      0.02147     0.01558     0.01203
 Rotational constants (GHZ):           0.44741     0.32461     0.25076
 Zero-point vibrational energy     865335.6 (Joules/Mol)
                                  206.82018 (Kcal/Mol)
 Warning -- explicit consideration of  35 degrees of freedom as
           vibrations may cause significant error
 Vibrational temperatures:     29.83    41.04    64.49    83.24   119.38
          (Kelvin)            125.57   141.75   154.44   168.57   181.84
                              217.56   256.30   316.94   321.14   333.09
                              344.85   348.33   396.91   403.44   433.27
                              442.01   446.09   497.09   550.16   561.92
                              577.38   587.49   612.32   632.41   679.72
                              713.57   739.46   775.19   780.44   842.70
                              945.65  1103.47  1106.21  1220.46  1263.25
                             1266.78  1297.24  1311.20  1356.23  1362.65
                             1396.76  1406.46  1415.32  1419.98  1503.37
                             1507.09  1534.86  1559.14  1600.36  1615.19
                             1645.58  1650.63  1724.63  1732.34  1746.43
                             1754.90  1835.78  1837.30  1893.06  1914.54
                             1934.54  1945.52  1963.37  1999.83  2002.30
                             2036.10  2046.95  2060.26  2063.59  2090.88
                             2097.00  2150.87  2153.22  2161.16  2170.04
                             2182.53  2192.40  2193.95  2196.53  2208.25
                             2213.04  2214.63  2239.24  3122.89  4353.95
                             4369.06  4371.51  4373.39  4374.88  4380.48
                             4381.56  4405.04  4407.77  4438.26  4441.12
                             4456.31  4462.12  4465.57  4470.44  4475.66
                             4482.01  4489.18  4492.86  4507.62  4521.81
                             4545.43

 Zero-point correction=                           0.329589 (Hartree/Particle)
 Thermal correction to Energy=                    0.350896
 Thermal correction to Enthalpy=                  0.351840
 Thermal correction to Gibbs Free Energy=         0.278619
 Sum of electronic and zero-point Energies=          -1488.347153
 Sum of electronic and thermal Energies=             -1488.325846
 Sum of electronic and thermal Enthalpies=           -1488.324902
 Sum of electronic and thermal Free Energies=        -1488.398123

                     E (Thermal)             CV                S
                      KCal/Mol        Cal/Mol-Kelvin    Cal/Mol-Kelvin
 Total                  220.190             77.268            154.105
 Electronic               0.000              0.000              0.000
 Translational            0.889              2.981             42.767
 Rotational               0.889              2.981             33.445
 Vibrational            218.413             71.307             77.893
 Vibration     1          0.593              1.986              6.563
 Vibration     2          0.593              1.984              5.929
 Vibration     3          0.595              1.979              5.034
 Vibration     4          0.596              1.974              4.529
 Vibration     5          0.600              1.961              3.819
 Vibration     6          0.601              1.958              3.720
 Vibration     7          0.604              1.950              3.483
 Vibration     8          0.606              1.943              3.316
 Vibration     9          0.608              1.935              3.147
 Vibration    10          0.611              1.927              3.000
 Vibration    11          0.619              1.901              2.657
 Vibration    12          0.629              1.869              2.348
 Vibration    13          0.647              1.810              1.957
 Vibration    14          0.649              1.806              1.933
 Vibration    15          0.653              1.793              1.867
 Vibration    16          0.657              1.780              1.805
 Vibration    17          0.658              1.776              1.787
 Vibration    18          0.678              1.718              1.559
 Vibration    19          0.680              1.710              1.531
 Vibration    20          0.693              1.672              1.411
 Vibration    21          0.697              1.660              1.377
 Vibration    22          0.699              1.655              1.362
 Vibration    23          0.724              1.584              1.187
 Vibration    24          0.752              1.508              1.030
 Vibration    25          0.758              1.490              0.998
 Vibration    26          0.767              1.467              0.958
 Vibration    27          0.773              1.452              0.933
 Vibration    28          0.787              1.415              0.873
 Vibration    29          0.800              1.384              0.828
 Vibration    30          0.829              1.311              0.731
 Vibration    31          0.852              1.259              0.668
 Vibration    32          0.869              1.219              0.624
 Vibration    33          0.894              1.164              0.568
 Vibration    34          0.898              1.156              0.560
 Vibration    35          0.943              1.062              0.475

 Optimization completed.
    -- Stationary point found.
 Normal termination of Gaussian 16 at Fri Dec 11 13:45:57 2020.

 ----------------------------------------------------------------------
 # B3LYP/6-311++G(d,p) empiricaldispersion=gd3bj scf=xqc pop=npa geom=c
 heck
 ----------------------------------------------------------------------

 --------------------------------------
 CID_87124386_JID_7692_Energie_neutraal
 --------------------------------------
 Structure from the checkpoint file:  "JID_7692.chk"
 Charge =  0 Multiplicity = 1

 SCF Done:  E(RB3LYP) =  -1488.93064655     A.U. after   17 cycles
 Normal termination of Gaussian 16 at Fri Dec 11 13:55:09 2020.

 ----------------------------------------------------------------------
 # B3LYP/6-311++G(d,p) empiricaldispersion=gd3bj scf=xqc pop=npa geom=c
 heck
 ----------------------------------------------------------------------

 ------------------------------------
 CID_87124386_JID_7692_Energie_kation
 ------------------------------------
 Structure from the checkpoint file:  "JID_7692.chk"
 Charge =  1 Multiplicity = 2

 SCF Done:  E(UB3LYP) =  -1488.62013527     A.U. after   30 cycles
 Normal termination of Gaussian 16 at Fri Dec 11 14:17:05 2020.
 Gaussian 16:  ES64L-G16RevA.03 25-Dec-2016

 ----------------------------------------------------------------------
 # B3LYP/6-311++G(d,p) empiricaldispersion=gd3bj scf=xqc pop=npa geom=c
 heck
 ----------------------------------------------------------------------

 -----------------------------------
 CID_87124386_JID_7692_Energie_anion
 -----------------------------------
 Structure from the checkpoint file:  "JID_7692.chk"
 Charge = -1 Multiplicity = 2

                         Standard orientation:
 ---------------------------------------------------------------------
 Center     Atomic      Atomic             Coordinates (Angstroms)
 Number     Number       Type             X           Y           Z
 ---------------------------------------------------------------------
      1          6           0       -0.488535    2.263905   -1.150657
      2          6           0       -1.480008    2.190105    0.016221
      3          6           0       -1.829519    3.594433    0.524406
      4          6           0       -2.772421    1.448356   -0.371422
      5          6           0       -2.637731   -0.010323   -0.810772
      6         16           0       -2.287476   -1.160221    0.599197
      7          8           0       -2.607210   -2.544486    0.090292
      8          6           0       -0.466110   -1.024856    0.609529
      9          7           0        0.093063   -0.598663    1.686161
     10          7           0        0.577372   -0.207667    2.649478
     11         16           0        0.405224   -1.884661   -0.741974
     12          8           0        0.363048   -1.005366   -1.972347
     13          6           0        2.161797   -1.816388   -0.079045
     14          6           0        2.941289   -0.643652   -0.668391
     15          6           0        2.737502    0.711864    0.028006
     16          6           0        3.428202    0.760578    1.395810
     17          6           0        3.244188    1.842812   -0.874191
     18          1           0       -0.948702    2.768888   -2.010279
     19          1           0       -0.151098    1.276475   -1.479651
     20          1           0        0.397016    2.842729   -0.865577
     21          1           0       -0.999689    1.652588    0.845059
     22          1           0       -2.314740    4.183553   -0.264380
     23          1           0       -2.512823    3.554182    1.380854
     24          1           0       -0.928594    4.134393    0.836088
     25          1           0       -3.486121    1.503102    0.462287
     26          1           0       -3.240869    1.990832   -1.204769
     27          1           0       -3.596651   -0.395864   -1.173025
     28          1           0       -1.883536   -0.177729   -1.582324
     29          1           0        2.137417   -1.837228    1.013430
     30          1           0        2.575812   -2.770970   -0.418086
     31          1           0        4.007837   -0.905445   -0.645073
     32          1           0        2.659353   -0.555735   -1.723422
     33          1           0        1.660530    0.866457    0.169005
     34          1           0        4.516474    0.682578    1.276526
     35          1           0        3.213477    1.702759    1.911305
     36          1           0        3.108632   -0.051309    2.058011
     37          1           0        2.705116    1.856223   -1.827282
     38          1           0        3.112107    2.819189   -0.394276
     39          1           0        4.313405    1.720554   -1.089988
 ---------------------------------------------------------------------

 SCF Done:  E(UB3LYP) =  -1488.97232862     A.U. after   24 cycles

 The electronic state is 2-A.
 Alpha  occ. eigenvalues --  -88.81109 -88.80810 -18.94960 -18.94570 -14.23622
 Alpha  occ. eigenvalues --  -14.17334 -10.08045 -10.07536 -10.06963 -10.06873
 Alpha  occ. eigenvalues --  -10.06806 -10.06391 -10.06390 -10.06105 -10.05831
 Alpha  occ. eigenvalues --  -10.04706 -10.04392  -7.88781  -7.88474  -5.85052
 Alpha  occ. eigenvalues --   -5.84911  -5.84751  -5.84653  -5.84408  -5.84042
 Alpha  occ. eigenvalues --   -0.91981  -0.88228  -0.87665  -0.71485  -0.71011
 Alpha  occ. eigenvalues --   -0.69656  -0.65069  -0.64416  -0.58139  -0.57853
 Alpha  occ. eigenvalues --   -0.56808  -0.56476  -0.50629  -0.49711  -0.45276
 Alpha  occ. eigenvalues --   -0.44902  -0.39212  -0.37148  -0.36609  -0.36136
 Alpha  occ. eigenvalues --   -0.34369  -0.33734  -0.32735  -0.32440  -0.31587
 Alpha  occ. eigenvalues --   -0.31174  -0.30508  -0.29085  -0.28969  -0.28435
 Alpha  occ. eigenvalues --   -0.27835  -0.27587  -0.27068  -0.26858  -0.26335
 Alpha  occ. eigenvalues --   -0.25729  -0.24858  -0.24575  -0.23836  -0.22406
 Alpha  occ. eigenvalues --   -0.22101  -0.21940  -0.21757  -0.21641  -0.21368
 Alpha  occ. eigenvalues --   -0.15432  -0.14035  -0.11542  -0.09851  -0.06952
 Alpha  occ. eigenvalues --    0.02340
 Alpha virt. eigenvalues --    0.07202   0.07826   0.08964   0.09351   0.09823
 Alpha virt. eigenvalues --    0.10296   0.10702   0.11629   0.11799   0.12154
 Alpha virt. eigenvalues --    0.12542   0.12687   0.13276   0.13396   0.14145

  Beta  occ. eigenvalues --  -88.81053 -88.80744 -18.94897 -18.94520 -14.23074
  Beta  occ. eigenvalues --  -14.16084 -10.08047 -10.07608 -10.06963 -10.06867
  Beta  occ. eigenvalues --  -10.06806 -10.06391 -10.06390 -10.06104 -10.05829
  Beta  occ. eigenvalues --  -10.04691 -10.04392  -7.88722  -7.88410  -5.84994
  Beta  occ. eigenvalues --   -5.84817  -5.84693  -5.84542  -5.84348  -5.83943
  Beta  occ. eigenvalues --   -0.90412  -0.88014  -0.87526  -0.71404  -0.70975
  Beta  occ. eigenvalues --   -0.68771  -0.65017  -0.64193  -0.58133  -0.57834
  Beta  occ. eigenvalues --   -0.56573  -0.56128  -0.50367  -0.49558  -0.45241
  Beta  occ. eigenvalues --   -0.44870  -0.39059  -0.36806  -0.36526  -0.35791
  Beta  occ. eigenvalues --   -0.34331  -0.33601  -0.32675  -0.31864  -0.31473
  Beta  occ. eigenvalues --   -0.30923  -0.30129  -0.28749  -0.28692  -0.28220
  Beta  occ. eigenvalues --   -0.27747  -0.27286  -0.26690  -0.26032  -0.25392
  Beta  occ. eigenvalues --   -0.25022  -0.24231  -0.23717  -0.23024  -0.22356
  Beta  occ. eigenvalues --   -0.22015  -0.21893  -0.21732  -0.21591  -0.21199
  Beta  occ. eigenvalues --   -0.15220  -0.13526  -0.11384  -0.09292  -0.06538
  Beta virt. eigenvalues --    0.07185   0.07790   0.08937   0.09334   0.09786
  Beta virt. eigenvalues --    0.10250   0.10642   0.11609   0.11774   0.12165
  Beta virt. eigenvalues --    0.12339   0.12701   0.12715   0.13383   0.13572

 Mulliken charges and spin densities:
               1          2
     1  C   -0.863187  -0.000016
     2  C    0.576325   0.001403
     3  C   -0.488235  -0.006953
     4  C   -0.433255   0.005769
     5  C   -0.526302  -0.002736
     6  S    0.639505   0.066920
     7  O   -0.416126   0.012956
     8  C   -2.035366  -0.014506
     9  N    0.819329   0.118584
    10  N   -0.573548   0.741055
    11  S    1.297683   0.028386
    12  O   -0.373844   0.016121
    13  C   -0.691907   0.004588
    14  C   -0.475425   0.006757
    15  C    0.617374   0.012234
    16  C   -0.525747  -0.034322
    17  C   -0.605490  -0.006745
    18  H    0.123855   0.000132
    19  H    0.250774  -0.000568
    20  H    0.123455  -0.000207
    21  H    0.142716   0.004240
    22  H    0.114956  -0.000039
    23  H    0.132776   0.001282
    24  H    0.130467   0.000094
    25  H    0.105513   0.000522
    26  H    0.139706   0.000567
    27  H    0.227995   0.007288
    28  H    0.213845  -0.000798
    29  H    0.164168  -0.002175
    30  H    0.206751   0.007558
    31  H    0.124892   0.001105
    32  H    0.209666   0.000083
    33  H   -0.089936  -0.010993
    34  H    0.098421   0.012655
    35  H    0.124307  -0.000491
    36  H    0.131481   0.025464
    37  H    0.144281   0.001440
    38  H    0.121343   0.001010
    39  H    0.116784   0.002340
 Sum of Mulliken charges =  -1.00000   1.00000

 Dipole moment (field-independent basis, Debye):
    X=              2.2457    Y=              4.8258    Z=             -1.7617  Tot=              5.6067
 Quadrupole moment (field-independent basis, Debye-Ang):
   XX=           -143.5190   YY=           -148.1356   ZZ=           -153.3270
   XY=            -15.8811   XZ=             -1.2761   YZ=             -3.0853

 Summary of Natural Population Analysis:

                                       Natural Population
                Natural  -----------------------------------------------
    Atom  No    Charge         Core      Valence    Rydberg      Total
 -----------------------------------------------------------------------
      C    1   -0.29517      0.99965     2.29002    0.00551     3.29517
      C    2   -0.12451      0.99961     2.11635    0.00854     3.12451
      C    3   -0.28014      0.99966     2.27591    0.00458     3.28014
      C    4   -0.19372      0.99961     2.18581    0.00831     3.19372
      C    5   -0.28224      0.99959     2.27097    0.01168     3.28224
      S    6    0.60611      4.99936     2.33372    0.06081     7.39389
      O    7   -0.49000      0.99993     3.48228    0.00779     4.49000
      C    8   -0.28272      0.99951     2.26415    0.01906     3.28272
      N    9    0.02374      0.99960     2.45899    0.01768     3.47626
      N   10    0.15438      0.99983     2.33272    0.01307     3.34562
      S   11    0.60944      4.99937     2.33113    0.06005     7.39056
      O   12   -0.49455      0.99993     3.48596    0.00866     4.49455
      C   13   -0.27241      0.99958     2.26449    0.00834     3.27241
      C   14   -0.20042      0.99960     2.19187    0.00894     3.20042
      C   15   -0.12931      0.99961     2.11961    0.01008     3.12931
      C   16   -0.28291      0.99965     2.27799    0.00527     3.28291
      C   17   -0.28093      0.99966     2.27665    0.00463     3.28093
      H   18    0.08821      0.00000     0.41097    0.00082     0.41179
      H   19    0.12282      0.00000     0.37616    0.00101     0.37718
      H   20    0.09503      0.00000     0.40417    0.00080     0.40497
      H   21    0.10562      0.00000     0.39209    0.00229     0.39438
      H   22    0.09013      0.00000     0.40888    0.00099     0.40987
      H   23    0.09592      0.00000     0.40329    0.00079     0.40408
      H   24    0.09716      0.00000     0.40206    0.00078     0.40284
      H   25    0.09591      0.00000     0.40297    0.00112     0.40409
      H   26    0.09452      0.00000     0.40419    0.00129     0.40548
      H   27    0.09955      0.00000     0.39825    0.00219     0.40045
      H   28    0.12269      0.00000     0.37477    0.00254     0.37731
      H   29    0.11380      0.00000     0.38498    0.00122     0.38620
      H   30    0.09954      0.00000     0.39944    0.00102     0.40046
      H   31    0.09245      0.00000     0.40634    0.00121     0.40755
      H   32    0.11400      0.00000     0.38482    0.00118     0.38600
      H   33    0.10860      0.00000     0.38894    0.00246     0.39140
      H   34    0.08534      0.00000     0.41371    0.00095     0.41466
      H   35    0.09760      0.00000     0.40167    0.00073     0.40240
      H   36    0.11009      0.00000     0.38890    0.00101     0.38991
      H   37    0.10158      0.00000     0.39765    0.00077     0.39842
      H   38    0.09461      0.00000     0.40458    0.00081     0.40539
      H   39    0.09015      0.00000     0.40895    0.00090     0.40985
 =======================================================================
   * Total *    0.00000     24.99374    49.71638    0.28987    75.00000

 Normal termination of Gaussian 16 at Fri Dec 11 14:34:13 2020.
