 Gaussian 16, Revision A.03,

 -----------------------------------------------------------
 # opt freq B3LYP/6-31G(d) empiricaldispersion=gd3bj scf=xqc
 -----------------------------------------------------------

 -------------------------------
 CID_117238512_JID_1117_neutraal
 -------------------------------
 Symbolic Z-matrix:
 Charge =  0 Multiplicity = 1

 SCF Done:  E(RB3LYP) =  -1220.85161412     A.U. after   14 cycles
 SCF Done:  E(RB3LYP) =  -1220.85460199     A.U. after   12 cycles
 SCF Done:  E(RB3LYP) =  -1220.85474250     A.U. after   12 cycles
 SCF Done:  E(RB3LYP) =  -1220.85476992     A.U. after   12 cycles
 SCF Done:  E(RB3LYP) =  -1220.85505830     A.U. after   11 cycles
 SCF Done:  E(RB3LYP) =  -1220.85508489     A.U. after   12 cycles
 SCF Done:  E(RB3LYP) =  -1220.85512662     A.U. after   11 cycles
 SCF Done:  E(RB3LYP) =  -1220.85513233     A.U. after    9 cycles
 SCF Done:  E(RB3LYP) =  -1220.85513450     A.U. after    8 cycles
 SCF Done:  E(RB3LYP) =  -1220.85513476     A.U. after    8 cycles
 SCF Done:  E(RB3LYP) =  -1220.85513480     A.U. after    7 cycles
 Optimization completed.
    -- Stationary point found.
 Normal termination of Gaussian 16 at Tue Dec  8 19:14:05 2020.

 --------------------------------------------------------------------
 #N Geom=AllCheck Guess=TCheck SCRF=Check GenChk RB3LYP/6-31G(d) Freq
 --------------------------------------------------------------------

 Structure from the checkpoint file:  "JID_1117.chk"
 -------------------------------
 CID_117238512_JID_1117_neutraal
 -------------------------------
 Charge =  0 Multiplicity = 1

 SCF Done:  E(RB3LYP) =  -1220.85513480     A.U. after    1 cycles

  Exact polarizability: 122.517   1.404 104.661   2.880   1.152  89.834
 Approx polarizability: 165.019   5.463 153.228   9.606   5.689 149.743

                      1                      2                      3
                      A                      A                      A
 Frequencies --     44.6442                62.7430                76.3527
 Red. masses --      9.7627                 6.1195                 5.3740
 Frc consts  --      0.0115                 0.0142                 0.0185
 IR Inten    --      2.9385                 3.2040                 0.3948

                      4                      5                      6
                      A                      A                      A
 Frequencies --     90.2823               126.7256               152.6964
 Red. masses --      3.6868                 6.2426                 2.7925
 Frc consts  --      0.0177                 0.0591                 0.0384
 IR Inten    --      1.0297                 0.3779                 1.1188

                      7                      8                      9
                      A                      A                      A
 Frequencies --    205.3511               233.8846               282.4497
 Red. masses --      3.7874                 1.2179                 3.0484
 Frc consts  --      0.0941                 0.0393                 0.1433
 IR Inten    --      0.3899                11.2689                 3.0743

                     10                     11                     12
                      A                      A                      A
 Frequencies --    309.4101               351.2891               414.1931
 Red. masses --      2.9782                 3.9183                 2.8895
 Frc consts  --      0.1680                 0.2849                 0.2921
 IR Inten    --      2.2442                 7.8374                 1.2345

                     13                     14                     15
                      A                      A                      A
 Frequencies --    467.1757               499.4050               567.5513
 Red. masses --      3.5916                 4.2107                 2.7872
 Frc consts  --      0.4619                 0.6187                 0.5290
 IR Inten    --      3.9442                 2.1773                27.1471

                     16                     17                     18
                      A                      A                      A
 Frequencies --    604.8672               653.2227               675.3640
 Red. masses --      3.4160                 1.8912                 3.0369
 Frc consts  --      0.7363                 0.4754                 0.8161
 IR Inten    --     26.8342                70.2568                 6.3553

                     19                     20                     21
                      A                      A                      A
 Frequencies --    690.9635               745.6727               751.8216
 Red. masses --      3.6938                 5.1060                 1.8624
 Frc consts  --      1.0390                 1.6727                 0.6202
 IR Inten    --      1.6248                 1.8338                34.0066

                     22                     23                     24
                      A                      A                      A
 Frequencies --    784.2157               852.3791               891.1275
 Red. masses --      2.0932                 1.5740                 2.2228
 Frc consts  --      0.7585                 0.6738                 1.0400
 IR Inten    --     15.7431                 6.5172                 6.3191

                     25                     26                     27
                      A                      A                      A
 Frequencies --    903.2549               918.2015               985.0870
 Red. masses --      2.4855                 1.4117                 2.0480
 Frc consts  --      1.1947                 0.7012                 1.1709
 IR Inten    --      2.6267                 2.9142                 6.5746

                     28                     29                     30
                      A                      A                      A
 Frequencies --    997.4640              1035.8500              1053.7376
 Red. masses --      2.4510                 2.0351                 1.5209
 Frc consts  --      1.4368                 1.2866                 0.9950
 IR Inten    --      1.9771                11.4070                 0.6197

                     31                     32                     33
                      A                      A                      A
 Frequencies --   1090.9905              1120.4393              1133.2697
 Red. masses --      1.4572                 1.6932                 1.9278
 Frc consts  --      1.0219                 1.2524                 1.4588
 IR Inten    --      5.6537                 9.4361                 4.0836

                     34                     35                     36
                      A                      A                      A
 Frequencies --   1178.2041              1221.9706              1229.9879
 Red. masses --      1.5317                 1.9240                 1.2851
 Frc consts  --      1.2528                 1.6927                 1.1455
 IR Inten    --    102.3326                87.5460                 7.5461

                     37                     38                     39
                      A                      A                      A
 Frequencies --   1241.5864              1259.1372              1294.7671
 Red. masses --      1.2398                 1.2689                 1.2940
 Frc consts  --      1.1261                 1.1853                 1.2781
 IR Inten    --     22.3829                 6.0305                10.5020

                     40                     41                     42
                      A                      A                      A
 Frequencies --   1307.1709              1324.4810              1348.3029
 Red. masses --      1.2993                 1.2483                 1.3000
 Frc consts  --      1.3081                 1.2902                 1.3924
 IR Inten    --      0.4220                13.2129                14.3620

                     43                     44                     45
                      A                      A                      A
 Frequencies --   1360.6333              1381.2778              1391.0537
 Red. masses --      1.3283                 1.3060                 2.2697
 Frc consts  --      1.4488                 1.4680                 2.5877
 IR Inten    --     12.9432                 4.6612                28.4503

                     46                     47                     48
                      A                      A                      A
 Frequencies --   1415.6352              1499.1526              1513.4987
 Red. masses --      1.6343                 1.0786                 1.0817
 Frc consts  --      1.9297                 1.4283                 1.4598
 IR Inten    --      6.0300                20.6877                 0.2736

                     49                     50                     51
                      A                      A                      A
 Frequencies --   1525.0654              1534.7780              1841.8610
 Red. masses --      1.0920                 1.0999                 9.8611
 Frc consts  --      1.4964                 1.5264                19.7102
 IR Inten    --      2.0903                 4.7264               273.0542

                     52                     53                     54
                      A                      A                      A
 Frequencies --   2681.2662              3029.2172              3045.5254
 Red. masses --      1.0385                 1.0818                 1.0621
 Frc consts  --      4.3986                 5.8486                 5.8044
 IR Inten    --     21.4470                 5.2001                20.5937

                     55                     56                     57
                      A                      A                      A
 Frequencies --   3062.7916              3075.2798              3079.8979
 Red. masses --      1.0713                 1.0706                 1.0765
 Frc consts  --      5.9213                 5.9656                 6.0161
 IR Inten    --     18.8091                24.5586                 7.1735

                     58                     59                     60
                      A                      A                      A
 Frequencies --   3098.2536              3106.7891              3135.6995
 Red. masses --      1.0937                 1.0610                 1.1064
 Frc consts  --      6.1857                 6.0336                 6.4098
 IR Inten    --     46.3192                12.8355                15.5814

                     61                     62                     63
                      A                      A                      A
 Frequencies --   3158.5434              3165.4590              3679.8515
 Red. masses --      1.1075                 1.0969                 1.0640
 Frc consts  --      6.5096                 6.4755                 8.4886
 IR Inten    --      4.0915                 4.4901                59.3509

 - Thermochemistry -
 -------------------
 Temperature   298.150 Kelvin.  Pressure   1.00000 Atm.
 Atom     1 has atomic number  6 and mass  12.00000

 Molecular mass:   192.02787 amu.
 Principal axes and moments of inertia in atomic units:
                           1         2         3
     Eigenvalues --  1457.294103444.298324326.52039
           X            0.99990   0.01392   0.00017
           Y           -0.01391   0.99973  -0.01883
           Z           -0.00043   0.01882   0.99982
 This molecule is an asymmetric top.
 Rotational symmetry number  1.
 Warning -- assumption of classical behavior for rotation
           may cause significant error
 Rotational temperatures (Kelvin)      0.05943     0.02515     0.02002
 Rotational constants (GHZ):           1.23842     0.52398     0.41713
 Zero-point vibrational energy     490225.0 (Joules/Mol)
                                  117.16659 (Kcal/Mol)
 Warning -- explicit consideration of  16 degrees of freedom as
           vibrations may cause significant error
 Vibrational temperatures:     64.23    90.27   109.85   129.90   182.33
          (Kelvin)            219.70   295.45   336.51   406.38   445.17
                              505.43   595.93   672.16   718.53   816.58
                              870.27   939.84   971.70   994.14  1072.86
                             1081.70  1128.31  1226.38  1282.13  1299.58
                             1321.09  1417.32  1435.13  1490.36  1516.09
                             1569.69  1612.06  1630.52  1695.17  1758.14
                             1769.68  1786.37  1811.62  1862.88  1880.73
                             1905.63  1939.91  1957.65  1987.35  2001.42
                             2036.78  2156.95  2177.59  2194.23  2208.20
                             2650.03  3857.74  4358.37  4381.83  4406.67
                             4424.64  4431.29  4457.70  4469.98  4511.57
                             4544.44  4554.39  5294.49

 Zero-point correction=                           0.186717 (Hartree/Particle)
 Thermal correction to Energy=                    0.198686
 Thermal correction to Enthalpy=                  0.199630
 Thermal correction to Gibbs Free Energy=         0.147220
 Sum of electronic and zero-point Energies=          -1220.668418
 Sum of electronic and thermal Energies=             -1220.656449
 Sum of electronic and thermal Enthalpies=           -1220.655504
 Sum of electronic and thermal Free Energies=        -1220.707915

                     E (Thermal)             CV                S
                      KCal/Mol        Cal/Mol-Kelvin    Cal/Mol-Kelvin
 Total                  124.678             43.695            110.307
 Electronic               0.000              0.000              0.000
 Translational            0.889              2.981             41.663
 Rotational               0.889              2.981             31.452
 Vibrational            122.900             37.733             37.192
 Vibration     1          0.595              1.980              5.042
 Vibration     2          0.597              1.972              4.369
 Vibration     3          0.599              1.965              3.983
 Vibration     4          0.602              1.956              3.654
 Vibration     5          0.611              1.926              2.995
 Vibration     6          0.619              1.900              2.638
 Vibration     7          0.640              1.832              2.085
 Vibration     8          0.654              1.789              1.849
 Vibration     9          0.681              1.706              1.519
 Vibration    10          0.699              1.656              1.365
 Vibration    11          0.728              1.573              1.160
 Vibration    12          0.778              1.439              0.912
 Vibration    13          0.824              1.323              0.746
 Vibration    14          0.855              1.251              0.660
 Vibration    15          0.924              1.101              0.509
 Vibration    16          0.963              1.021              0.441

 Optimization completed.
    -- Stationary point found.
 Normal termination of Gaussian 16 at Tue Dec  8 19:19:22 2020.

 ----------------------------------------------------------------------
 # B3LYP/6-311++G(d,p) empiricaldispersion=gd3bj scf=xqc pop=npa geom=c
 heck
 ----------------------------------------------------------------------

 ---------------------------------------
 CID_117238512_JID_1117_Energie_neutraal
 ---------------------------------------
 Structure from the checkpoint file:  "JID_1117.chk"
 Charge =  0 Multiplicity = 1

 SCF Done:  E(RB3LYP) =  -1221.04288207     A.U. after   14 cycles
 Normal termination of Gaussian 16 at Tue Dec  8 19:21:44 2020.

 ----------------------------------------------------------------------
 # B3LYP/6-311++G(d,p) empiricaldispersion=gd3bj scf=xqc pop=npa geom=c
 heck
 ----------------------------------------------------------------------

 -------------------------------------
 CID_117238512_JID_1117_Energie_kation
 -------------------------------------
 Structure from the checkpoint file:  "JID_1117.chk"
 Charge =  1 Multiplicity = 2

 SCF Done:  E(UB3LYP) =  -1220.73875536     A.U. after   28 cycles
 Normal termination of Gaussian 16 at Tue Dec  8 19:28:21 2020.
 Gaussian 16:  ES64L-G16RevA.03 25-Dec-2016

 ----------------------------------------------------------------------
 # B3LYP/6-311++G(d,p) empiricaldispersion=gd3bj scf=xqc pop=npa geom=c
 heck
 ----------------------------------------------------------------------

 ------------------------------------
 CID_117238512_JID_1117_Energie_anion
 ------------------------------------
 Structure from the checkpoint file:  "JID_1117.chk"
 Charge = -1 Multiplicity = 2

                         Standard orientation:
 ---------------------------------------------------------------------
 Center     Atomic      Atomic             Coordinates (Angstroms)
 Number     Number       Type             X           Y           Z
 ---------------------------------------------------------------------
      1          6           0       -1.303732   -1.245198    0.609096
      2          6           0       -2.680099   -1.284180   -0.056792
      3         16           0       -3.216162    0.476053   -0.239146
      4          6           0       -1.531222    1.143343    0.114389
      5          6           0       -0.550961   -0.038874    0.023061
      6          6           0        0.779301    0.251631    0.736197
      7          6           0        1.707551   -0.971005    0.891293
      8         16           0        2.323762   -1.692746   -0.683622
      9          6           0        1.611604    1.378575    0.133350
     10          8           0        2.601665    1.831435    0.663687
     11          8           0        1.166875    1.813525   -1.066699
     12          1           0       -1.416359   -1.114821    1.693401
     13          1           0       -0.773418   -2.189719    0.442697
     14          1           0       -2.624942   -1.748310   -1.046180
     15          1           0       -3.416542   -1.827598    0.539709
     16          1           0       -1.520060    1.577725    1.120335
     17          1           0       -1.293536    1.925716   -0.605949
     18          1           0       -0.351956   -0.233001   -1.036789
     19          1           0        0.555615    0.579455    1.761988
     20          1           0        2.611027   -0.657302    1.418689
     21          1           0        1.223388   -1.746840    1.487314
     22          1           0        1.137560   -2.155998   -1.131377
     23          1           0        1.804632    2.492351   -1.359021
 ---------------------------------------------------------------------

 SCF Done:  E(UB3LYP) =  -1221.03363972     A.U. after   32 cycles

 The electronic state is 2-A.
 Alpha  occ. eigenvalues --  -88.73801 -88.73088 -19.07027 -19.01074 -10.20123
 Alpha  occ. eigenvalues --  -10.10467 -10.09718 -10.09401 -10.09207 -10.08463
 Alpha  occ. eigenvalues --  -10.07207  -7.82495  -7.81705  -5.78861  -5.78526
 Alpha  occ. eigenvalues --   -5.78100  -5.77875  -5.77752  -5.77065  -1.01041
 Alpha  occ. eigenvalues --   -0.91965  -0.75644  -0.71004  -0.64887  -0.62372
 Alpha  occ. eigenvalues --   -0.59732  -0.54778  -0.49421  -0.47883  -0.46822
 Alpha  occ. eigenvalues --   -0.40931  -0.39307  -0.38246  -0.36824  -0.34886
 Alpha  occ. eigenvalues --   -0.33113  -0.32260  -0.31281  -0.29682  -0.29383
 Alpha  occ. eigenvalues --   -0.27638  -0.26184  -0.25015  -0.24580  -0.23604
 Alpha  occ. eigenvalues --   -0.22725  -0.21942  -0.20441  -0.17991  -0.13919
 Alpha  occ. eigenvalues --   -0.11897   0.04481
 Alpha virt. eigenvalues --    0.06717   0.07394   0.08509   0.09291   0.09342
 Alpha virt. eigenvalues --    0.10270   0.10530   0.11309   0.11581   0.12066
 Alpha virt. eigenvalues --    0.12928   0.13643   0.14046   0.14579   0.15257

  Beta  occ. eigenvalues --  -88.73782 -88.73087 -19.06983 -19.01023 -10.20058
  Beta  occ. eigenvalues --  -10.10434 -10.09705 -10.09374 -10.09193 -10.08452
  Beta  occ. eigenvalues --  -10.07153  -7.82473  -7.81704  -5.78823  -5.78511
  Beta  occ. eigenvalues --   -5.78100  -5.77861  -5.77750  -5.77065  -1.00936
  Beta  occ. eigenvalues --   -0.91871  -0.75600  -0.70943  -0.64812  -0.62312
  Beta  occ. eigenvalues --   -0.59642  -0.54646  -0.49317  -0.47829  -0.46712
  Beta  occ. eigenvalues --   -0.40857  -0.39227  -0.38177  -0.36645  -0.34801
  Beta  occ. eigenvalues --   -0.33035  -0.32211  -0.31187  -0.29610  -0.29309
  Beta  occ. eigenvalues --   -0.27561  -0.26141  -0.24962  -0.24529  -0.23516
  Beta  occ. eigenvalues --   -0.22634  -0.21793  -0.20409  -0.17916  -0.13870
  Beta  occ. eigenvalues --   -0.11882
  Beta virt. eigenvalues --    0.07125   0.07812   0.08196   0.09048   0.09593
  Beta virt. eigenvalues --    0.09758   0.10604   0.10931   0.11467   0.12068
  Beta virt. eigenvalues --    0.12458   0.13149   0.13792   0.14268   0.14736

 Mulliken charges and spin densities:
               1          2
     1  C    0.458437  -1.111725
     2  C    0.677440  -0.983364
     3  S   -0.165457  -0.019236
     4  C   -0.133207  -0.336068
     5  C   -0.322037  -0.179360
     6  C    0.129535   0.975377
     7  C    0.848919  -1.597806
     8  S   -0.073720  -0.051096
     9  C   -0.444647   0.281125
    10  O   -0.277811   0.011498
    11  O   -0.106051  -0.008320
    12  H   -0.240664   0.404649
    13  H   -0.307608   0.462807
    14  H   -0.112441   0.291865
    15  H   -0.136991   0.332960
    16  H    0.046894   0.136758
    17  H    0.086847   0.112071
    18  H    0.276969  -0.010719
    19  H   -0.353811   0.612174
    20  H    0.082633   0.176150
    21  H   -0.467708   0.675422
    22  H   -0.273410   0.339521
    23  H   -0.192112   0.485320
 Sum of Mulliken charges =  -1.00000   1.00000

 Dipole moment (field-independent basis, Debye):
    X=             -0.6819    Y=              1.6921    Z=             -1.3405  Tot=              2.2639
 Quadrupole moment (field-independent basis, Debye-Ang):
   XX=           -132.4182   YY=           -125.8071   ZZ=           -113.8171
   XY=             -3.4448   XZ=             -0.3751   YZ=              3.7233

 Summary of Natural Population Analysis:

                                       Natural Population
                Natural  -----------------------------------------------
    Atom  No    Charge         Core      Valence    Rydberg      Total
 -----------------------------------------------------------------------
      C    1   -0.19848      0.99961     2.18765    0.01122     3.19848
      C    2   -0.23753      0.99960     2.22800    0.00993     3.23753
      S    3    0.06421      4.99967     2.91938    0.01674     7.93579
      C    4   -0.23723      0.99957     2.22929    0.00837     3.23723
      C    5   -0.12343      0.99957     2.10998    0.01388     3.12343
      C    6   -0.15607      0.99950     2.14292    0.01365     3.15607
      C    7   -0.24171      0.99957     2.23107    0.01108     3.24171
      S    8   -0.02372      4.99966     3.00857    0.01549     8.02372
      C    9    0.42321      0.99968     1.55034    0.02677     2.57679
      O   10   -0.30917      0.99987     3.30326    0.00603     4.30917
      O   11   -0.34310      0.99987     3.33621    0.00702     4.34310
      H   12    0.10141      0.00000     0.39646    0.00214     0.39859
      H   13    0.11101      0.00000     0.38554    0.00346     0.38899
      H   14    0.09890      0.00000     0.39925    0.00185     0.40110
      H   15    0.10461      0.00000     0.39396    0.00142     0.39539
      H   16    0.09697      0.00000     0.40109    0.00195     0.40303
      H   17    0.11276      0.00000     0.38550    0.00174     0.38724
      H   18    0.10890      0.00000     0.38874    0.00237     0.39110
      H   19    0.11870      0.00000     0.37910    0.00220     0.38130
      H   20    0.11429      0.00000     0.38461    0.00110     0.38571
      H   21    0.11030      0.00000     0.38726    0.00244     0.38970
      H   22    0.06367      0.00000     0.43322    0.00311     0.43633
      H   23    0.24150      0.00000     0.25198    0.00653     0.25850
 =======================================================================
   * Total *    0.00000     18.99617    31.83336    0.17048    51.00000

 Normal termination of Gaussian 16 at Tue Dec  8 19:35:59 2020.
