 Gaussian 16, Revision A.03,

 -----------------------------------------------------------
 # opt freq B3LYP/6-31G(d) empiricaldispersion=gd3bj scf=xqc
 -----------------------------------------------------------

 ------------------------------
 CID_61381536_JID_2364_neutraal
 ------------------------------
 Symbolic Z-matrix:
 Charge =  0 Multiplicity = 1

 SCF Done:  E(RB3LYP) =  -937.124783892     A.U. after   14 cycles
 SCF Done:  E(RB3LYP) =  -937.130568175     A.U. after   12 cycles
 SCF Done:  E(RB3LYP) =  -937.131174515     A.U. after   12 cycles
 SCF Done:  E(RB3LYP) =  -937.130995550     A.U. after   12 cycles
 SCF Done:  E(RB3LYP) =  -937.131367565     A.U. after   12 cycles
 SCF Done:  E(RB3LYP) =  -937.131389429     A.U. after   10 cycles
 SCF Done:  E(RB3LYP) =  -937.131412714     A.U. after   11 cycles
 SCF Done:  E(RB3LYP) =  -937.131420189     A.U. after   11 cycles
 SCF Done:  E(RB3LYP) =  -937.131424427     A.U. after   10 cycles
 SCF Done:  E(RB3LYP) =  -937.131425629     A.U. after    9 cycles
 SCF Done:  E(RB3LYP) =  -937.131425864     A.U. after    7 cycles
 SCF Done:  E(RB3LYP) =  -937.131426140     A.U. after    8 cycles
 SCF Done:  E(RB3LYP) =  -937.131426248     A.U. after    7 cycles
 Optimization completed.
    -- Stationary point found.
 Normal termination of Gaussian 16 at Wed Dec  9 17:13:39 2020.

 --------------------------------------------------------------------
 #N Geom=AllCheck Guess=TCheck SCRF=Check GenChk RB3LYP/6-31G(d) Freq
 --------------------------------------------------------------------

 Structure from the checkpoint file:  "JID_2364.chk"
 ------------------------------
 CID_61381536_JID_2364_neutraal
 ------------------------------
 Charge =  0 Multiplicity = 1

 SCF Done:  E(RB3LYP) =  -937.131426248     A.U. after    1 cycles

  Exact polarizability: 120.682  -0.947  99.727   0.376   1.386  89.746
 Approx polarizability: 154.695  -4.552 160.592   5.168  -5.071 140.000

                      1                      2                      3
                      A                      A                      A
 Frequencies --     39.9645                53.6274                67.0955
 Red. masses --      4.4940                 4.3695                 3.3380
 Frc consts  --      0.0042                 0.0074                 0.0089
 IR Inten    --      0.9310                 0.8703                 3.0930

                      4                      5                      6
                      A                      A                      A
 Frequencies --     96.1074               164.7698               178.5939
 Red. masses --      5.7722                 2.6440                 3.9970
 Frc consts  --      0.0314                 0.0423                 0.0751
 IR Inten    --      3.3223                 6.5773                 2.8773

                      7                      8                      9
                      A                      A                      A
 Frequencies --    195.7543               221.3836               233.5244
 Red. masses --      1.1812                 2.5719                 3.2987
 Frc consts  --      0.0267                 0.0743                 0.1060
 IR Inten    --      1.2556                 1.1014                 1.1509

                     10                     11                     12
                      A                      A                      A
 Frequencies --    289.0298               325.0512               369.9107
 Red. masses --      2.3753                 3.0830                 2.0061
 Frc consts  --      0.1169                 0.1919                 0.1617
 IR Inten    --      1.3585                 1.4269                 0.1211

                     13                     14                     15
                      A                      A                      A
 Frequencies --    415.9551               452.8294               478.4493
 Red. masses --      4.1396                 5.9901                 4.5255
 Frc consts  --      0.4220                 0.7237                 0.6104
 IR Inten    --     21.5004                22.2033                 1.9360

                     16                     17                     18
                      A                      A                      A
 Frequencies --    505.6532               541.8723               602.6269
 Red. masses --      2.6026                 2.9942                 2.5509
 Frc consts  --      0.3921                 0.5180                 0.5458
 IR Inten    --     10.1969                17.4224                 1.1763

                     19                     20                     21
                      A                      A                      A
 Frequencies --    627.0744               653.4307               706.5167
 Red. masses --      4.3757                 4.4661                 2.3889
 Frc consts  --      1.0138                 1.1235                 0.7026
 IR Inten    --      5.5838                 8.5545                29.2719

                     22                     23                     24
                      A                      A                      A
 Frequencies --    764.5996               826.5110               838.4162
 Red. masses --      2.8860                 1.9810                 2.0712
 Frc consts  --      0.9941                 0.7973                 0.8578
 IR Inten    --     20.4166                 0.8909                10.5495

                     25                     26                     27
                      A                      A                      A
 Frequencies --    883.9222               905.5640               943.1110
 Red. masses --      2.1602                 2.4948                 1.8383
 Frc consts  --      0.9944                 1.2054                 0.9634
 IR Inten    --     23.2559                 8.1501                21.1952

                     28                     29                     30
                      A                      A                      A
 Frequencies --    964.1068               985.4922               992.8181
 Red. masses --      1.7681                 1.3785                 1.5237
 Frc consts  --      0.9683                 0.7888                 0.8849
 IR Inten    --      4.6397                 2.0521                15.0718

                     31                     32                     33
                      A                      A                      A
 Frequencies --   1008.0327              1031.9348              1078.5927
 Red. masses --      1.7857                 1.7654                 2.1204
 Frc consts  --      1.0691                 1.1077                 1.4534
 IR Inten    --      2.3152                 5.7772                 8.4483

                     34                     35                     36
                      A                      A                      A
 Frequencies --   1078.9766              1120.8699              1160.1732
 Red. masses --      1.7608                 4.6352                 1.6508
 Frc consts  --      1.2078                 3.4311                 1.3091
 IR Inten    --      3.3886               177.3349                24.3282

                     37                     38                     39
                      A                      A                      A
 Frequencies --   1167.5336              1197.9241              1214.2015
 Red. masses --      2.7945                 1.4253                 1.3792
 Frc consts  --      2.2444                 1.2051                 1.1980
 IR Inten    --     33.6831                 3.3536                18.2025

                     40                     41                     42
                      A                      A                      A
 Frequencies --   1246.2748              1279.6621              1288.4710
 Red. masses --      1.4529                 1.3193                 1.4690
 Frc consts  --      1.3296                 1.2729                 1.4369
 IR Inten    --     12.7561                 8.0471                 6.4142

                     43                     44                     45
                      A                      A                      A
 Frequencies --   1314.2008              1321.0241              1336.0600
 Red. masses --      3.4534                 1.4156                 1.6022
 Frc consts  --      3.5142                 1.4555                 1.6851
 IR Inten    --    126.6722                15.5376                33.3503

                     46                     47                     48
                      A                      A                      A
 Frequencies --   1360.2052              1364.1279              1374.1088
 Red. masses --      1.4340                 1.3352                 1.2535
 Frc consts  --      1.5632                 1.4639                 1.3945
 IR Inten    --     14.6778                 0.7079                 8.5296

                     49                     50                     51
                      A                      A                      A
 Frequencies --   1385.4829              1400.8087              1480.3097
 Red. masses --      1.3142                 1.4194                 1.0765
 Frc consts  --      1.4863                 1.6410                 1.3899
 IR Inten    --      5.0376                12.8810                 4.3451

                     52                     53                     54
                      A                      A                      A
 Frequencies --   1482.2242              1485.2586              1489.3523
 Red. masses --      1.0797                 1.0517                 1.0650
 Frc consts  --      1.3976                 1.3670                 1.3918
 IR Inten    --      6.0164                 6.6579                12.1320

                     55                     56                     57
                      A                      A                      A
 Frequencies --   1506.8681              1524.0004              1537.7008
 Red. masses --      1.0843                 1.0850                 1.1002
 Frc consts  --      1.4506                 1.4848                 1.5328
 IR Inten    --      5.6289                 2.8995                 3.9347

                     58                     59                     60
                      A                      A                      A
 Frequencies --   1846.8200              3038.6420              3043.5744
 Red. masses --     12.5549                 1.0708                 1.0697
 Frc consts  --     25.2297                 5.8255                 5.8380
 IR Inten    --    181.4428                 6.4235                17.7259

                     61                     62                     63
                      A                      A                      A
 Frequencies --   3051.7574              3060.0921              3082.7959
 Red. masses --      1.0681                 1.0646                 1.0604
 Frc consts  --      5.8606                 5.8737                 5.9378
 IR Inten    --     13.5569                34.0621                 2.2552

                     64                     65                     66
                      A                      A                      A
 Frequencies --   3088.9004              3093.3070              3102.1152
 Red. masses --      1.0356                 1.0780                 1.0956
 Frc consts  --      5.8218                 6.0774                 6.2118
 IR Inten    --      2.0268                 7.2648                37.1114

                     67                     68                     69
                      A                      A                      A
 Frequencies --   3118.8411              3125.0867              3130.0465
 Red. masses --      1.0992                 1.0969                 1.0949
 Frc consts  --      6.2996                 6.3119                 6.3200
 IR Inten    --     33.4507                 0.7138                12.9965

                     70                     71                     72
                      A                      A                      A
 Frequencies --   3139.2359              3185.9202              3200.7111
 Red. masses --      1.1023                 1.1063                 1.1066
 Frc consts  --      6.4005                 6.6159                 6.6796
 IR Inten    --      5.5382                 0.7571                 2.3225

 - Thermochemistry -
 -------------------
 Temperature   298.150 Kelvin.  Pressure   1.00000 Atm.
 Atom     1 has atomic number  6 and mass  12.00000

 Molecular mass:   190.06637 amu.
 Principal axes and moments of inertia in atomic units:
                           1         2         3
     Eigenvalues --  1065.200194076.505344469.03527
           X            0.99995   0.00787  -0.00566
           Y           -0.00755   0.99853   0.05373
           Z            0.00608  -0.05368   0.99854
 This molecule is an asymmetric top.
 Rotational symmetry number  1.
 Warning -- assumption of classical behavior for rotation
           may cause significant error
 Rotational temperatures (Kelvin)      0.08131     0.02125     0.01938
 Rotational constants (GHZ):           1.69427     0.44272     0.40383
 Zero-point vibrational energy     573405.9 (Joules/Mol)
                                  137.04731 (Kcal/Mol)
 Warning -- explicit consideration of  18 degrees of freedom as
           vibrations may cause significant error
 Vibrational temperatures:     57.50    77.16    96.54   138.28   237.07
          (Kelvin)            256.96   281.65   318.52   335.99   415.85
                              467.68   532.22   598.47   651.52   688.38
                              727.52   779.63   867.05   902.22   940.14
                             1016.52  1100.09  1189.16  1206.29  1271.77
                             1302.90  1356.93  1387.13  1417.90  1428.44
                             1450.33  1484.72  1551.85  1552.41  1612.68
                             1669.23  1679.82  1723.55  1746.97  1793.11
                             1841.15  1853.82  1890.84  1900.66  1922.29
                             1957.03  1962.68  1977.04  1993.40  2015.45
                             2129.84  2132.59  2136.96  2142.85  2168.05
                             2192.70  2212.41  2657.16  4371.93  4379.02
                             4390.80  4402.79  4435.46  4444.24  4450.58
                             4463.25  4487.32  4496.30  4503.44  4516.66
                             4583.83  4605.11

 Zero-point correction=                           0.218399 (Hartree/Particle)
 Thermal correction to Energy=                    0.231062
 Thermal correction to Enthalpy=                  0.232006
 Thermal correction to Gibbs Free Energy=         0.178475
 Sum of electronic and zero-point Energies=           -936.913027
 Sum of electronic and thermal Energies=              -936.900364
 Sum of electronic and thermal Enthalpies=            -936.899420
 Sum of electronic and thermal Free Energies=         -936.952951

                     E (Thermal)             CV                S
                      KCal/Mol        Cal/Mol-Kelvin    Cal/Mol-Kelvin
 Total                  144.994             47.131            112.666
 Electronic               0.000              0.000              0.000
 Translational            0.889              2.981             41.632
 Rotational               0.889              2.981             31.340
 Vibrational            143.216             41.169             39.694
 Vibration     1          0.594              1.981              5.261
 Vibration     2          0.596              1.976              4.679
 Vibration     3          0.598              1.970              4.237
 Vibration     4          0.603              1.952              3.532
 Vibration     5          0.623              1.886              2.494
 Vibration     6          0.629              1.869              2.343
 Vibration     7          0.636              1.846              2.173
 Vibration     8          0.648              1.809              1.948
 Vibration     9          0.654              1.790              1.852
 Vibration    10          0.686              1.694              1.480
 Vibration    11          0.709              1.625              1.285
 Vibration    12          0.742              1.534              1.080
 Vibration    13          0.779              1.436              0.906
 Vibration    14          0.811              1.355              0.787
 Vibration    15          0.835              1.298              0.714
 Vibration    16          0.861              1.237              0.644
 Vibration    17          0.897              1.157              0.561
 Vibration    18          0.961              1.026              0.445

                           ! Non-Optimized Parameters !
 Normal termination of Gaussian 16 at Wed Dec  9 17:19:36 2020.

 ----------------------------------------------------------------------
 # B3LYP/6-311++G(d,p) empiricaldispersion=gd3bj scf=xqc pop=npa geom=c
 heck
 ----------------------------------------------------------------------

 --------------------------------------
 CID_61381536_JID_2364_Energie_neutraal
 --------------------------------------
 Structure from the checkpoint file:  "JID_2364.chk"
 Charge =  0 Multiplicity = 1

 SCF Done:  E(RB3LYP) =  -937.317052970     A.U. after   15 cycles
 Normal termination of Gaussian 16 at Wed Dec  9 17:22:19 2020.

 ----------------------------------------------------------------------
 # B3LYP/6-311++G(d,p) empiricaldispersion=gd3bj scf=xqc pop=npa geom=c
 heck
 ----------------------------------------------------------------------

 ------------------------------------
 CID_61381536_JID_2364_Energie_kation
 ------------------------------------
 Structure from the checkpoint file:  "JID_2364.chk"
 Charge =  1 Multiplicity = 2

 SCF Done:  E(UB3LYP) =  -936.979076059     A.U. after   27 cycles
 Normal termination of Gaussian 16 at Wed Dec  9 17:28:07 2020.
 Gaussian 16:  ES64L-G16RevA.03 25-Dec-2016

 ----------------------------------------------------------------------
 # B3LYP/6-311++G(d,p) empiricaldispersion=gd3bj scf=xqc pop=npa geom=c
 heck
 ----------------------------------------------------------------------

 -----------------------------------
 CID_61381536_JID_2364_Energie_anion
 -----------------------------------
 Structure from the checkpoint file:  "JID_2364.chk"
 Charge = -1 Multiplicity = 2

                         Standard orientation:
 ---------------------------------------------------------------------
 Center     Atomic      Atomic             Coordinates (Angstroms)
 Number     Number       Type             X           Y           Z
 ---------------------------------------------------------------------
      1          6           0        2.052208   -1.259457   -1.184453
      2         16           0        2.302393    0.119669   -0.040061
      3          8           0        3.618700   -0.081197    0.585751
      4          8           0        1.989052    1.364619   -0.760059
      5          6           0        1.052097   -0.127524    1.268542
      6          6           0       -0.294042    0.548369    1.015851
      7          6           0       -1.071021    0.070533   -0.226277
      8          6           0       -1.484024   -1.415468   -0.218812
      9          6           0       -2.900613   -1.436681    0.399250
     10          6           0       -3.560437   -0.165957   -0.152518
     11          6           0       -2.410342    0.833795   -0.272261
     12          8           0       -2.514761    2.036740   -0.351705
     13          1           0        2.790323   -1.122477   -1.977907
     14          1           0        1.044089   -1.227803   -1.598334
     15          1           0        2.235677   -2.198845   -0.659686
     16          1           0        0.975787   -1.208062    1.426126
     17          1           0        1.538826    0.299539    2.150885
     18          1           0       -0.901308    0.392057    1.917616
     19          1           0       -0.143194    1.626699    0.916951
     20          1           0       -0.494197    0.354529   -1.112108
     21          1           0       -0.786866   -2.061292    0.324624
     22          1           0       -1.530386   -1.791842   -1.248406
     23          1           0       -2.833475   -1.377487    1.492601
     24          1           0       -3.449304   -2.350900    0.156703
     25          1           0       -4.376255    0.244047    0.448454
     26          1           0       -3.954900   -0.339825   -1.164380
 ---------------------------------------------------------------------

 SCF Done:  E(UB3LYP) =  -937.314576749     A.U. after   30 cycles

 The electronic state is 2-A.
 Alpha  occ. eigenvalues --  -88.94658 -19.01488 -19.01482 -19.00087 -10.14100
 Alpha  occ. eigenvalues --  -10.11485 -10.10807 -10.08803 -10.07811 -10.07055
 Alpha  occ. eigenvalues --  -10.06867 -10.06747  -8.01152  -5.97408  -5.97308
 Alpha  occ. eigenvalues --   -5.97254  -1.00774  -0.93541  -0.90493  -0.74577
 Alpha  occ. eigenvalues --   -0.70890  -0.67098  -0.62876  -0.58883  -0.55022
 Alpha  occ. eigenvalues --   -0.49888  -0.46848  -0.43456  -0.41259  -0.39352
 Alpha  occ. eigenvalues --   -0.38318  -0.37540  -0.36538  -0.35152  -0.34373
 Alpha  occ. eigenvalues --   -0.33292  -0.32881  -0.31205  -0.30318  -0.29390
 Alpha  occ. eigenvalues --   -0.28853  -0.27240  -0.24884  -0.24037  -0.23770
 Alpha  occ. eigenvalues --   -0.23117  -0.22631  -0.22089  -0.20585  -0.19198
 Alpha  occ. eigenvalues --   -0.13771   0.03999
 Alpha virt. eigenvalues --    0.06669   0.07213   0.07832   0.08645   0.09673
 Alpha virt. eigenvalues --    0.10033   0.10428   0.10974   0.11632   0.12564
 Alpha virt. eigenvalues --    0.12795   0.13358   0.14275   0.14648   0.14981

  Beta  occ. eigenvalues --  -88.94656 -19.01476 -19.01473 -18.99975 -10.13961
  Beta  occ. eigenvalues --  -10.11458 -10.10751 -10.08772 -10.07818 -10.07056
  Beta  occ. eigenvalues --  -10.06830 -10.06705  -8.01149  -5.97406  -5.97307
  Beta  occ. eigenvalues --   -5.97252  -1.00748  -0.93314  -0.90464  -0.74491
  Beta  occ. eigenvalues --   -0.70827  -0.67034  -0.62816  -0.58748  -0.54903
  Beta  occ. eigenvalues --   -0.49807  -0.46732  -0.43313  -0.41207  -0.39262
  Beta  occ. eigenvalues --   -0.38249  -0.37494  -0.36390  -0.35083  -0.34289
  Beta  occ. eigenvalues --   -0.33226  -0.32834  -0.31021  -0.30247  -0.29291
  Beta  occ. eigenvalues --   -0.28670  -0.27124  -0.24811  -0.23982  -0.23433
  Beta  occ. eigenvalues --   -0.23051  -0.22569  -0.22055  -0.20563  -0.19168
  Beta  occ. eigenvalues --   -0.13675
  Beta virt. eigenvalues --    0.06804   0.07717   0.07960   0.08668   0.09304
  Beta virt. eigenvalues --    0.10069   0.10598   0.10931   0.11409   0.11779
  Beta virt. eigenvalues --    0.12742   0.13238   0.13555   0.14460   0.14842

 Mulliken charges and spin densities:
               1          2
     1  C    0.595804  -1.231358
     2  S   -0.319239   0.662116
     3  O   -0.215467   0.027908
     4  O   -0.209265   0.000113
     5  C   -0.179223  -0.323321
     6  C    0.443672  -1.055537
     7  C   -0.495428   1.357404
     8  C    0.861774  -1.365845
     9  C    0.346287  -0.809556
    10  C   -0.151052  -0.085971
    11  C   -0.085820  -0.302239
    12  O   -0.317735   0.045722
    13  H   -0.056360   0.275405
    14  H   -0.189823   0.401540
    15  H   -0.267823   0.493560
    16  H    0.021497   0.223639
    17  H    0.109995   0.129492
    18  H   -0.149567   0.312560
    19  H    0.326212  -0.092178
    20  H    0.151422   0.144740
    21  H   -0.395953   0.523963
    22  H   -0.294771   0.476140
    23  H   -0.062588   0.196024
    24  H   -0.463927   0.648051
    25  H    0.145111   0.017827
    26  H   -0.147734   0.329800
 Sum of Mulliken charges =  -1.00000   1.00000

 Dipole moment (field-independent basis, Debye):
    X=              0.9583    Y=              2.3049    Z=              2.0794  Tot=              3.2488
 Quadrupole moment (field-independent basis, Debye-Ang):
   XX=           -142.7746   YY=           -131.5549   ZZ=           -105.2498
   XY=             -4.5429   XZ=             -6.5690   YZ=              1.2613

 Summary of Natural Population Analysis:

                                       Natural Population
                Natural  -----------------------------------------------
    Atom  No    Charge         Core      Valence    Rydberg      Total
 -----------------------------------------------------------------------
      C    1   -0.39116      0.99961     2.38396    0.00759     3.39116
      S    2    1.01579      4.99931     1.89052    0.09437     6.98421
      O    3   -0.47367      0.99991     3.46792    0.00584     4.47367
      O    4   -0.46822      0.99991     3.46274    0.00557     4.46822
      C    5   -0.28655      0.99957     2.27546    0.01152     3.28655
      C    6   -0.19538      0.99959     2.18529    0.01050     3.19538
      C    7   -0.16423      0.99955     2.15328    0.01139     3.16423
      C    8   -0.19618      0.99963     2.18631    0.01023     3.19618
      C    9   -0.18872      0.99964     2.18071    0.00837     3.18872
      C   10   -0.24289      0.99959     2.23462    0.00868     3.24289
      C   11    0.32391      0.99965     1.65376    0.02267     2.67609
      O   12   -0.28062      0.99987     3.27431    0.00644     4.28062
      H   13    0.11759      0.00000     0.38144    0.00097     0.38241
      H   14    0.11759      0.00000     0.38075    0.00167     0.38241
      H   15    0.11792      0.00000     0.38015    0.00193     0.38208
      H   16    0.11645      0.00000     0.38177    0.00178     0.38355
      H   17    0.11814      0.00000     0.38089    0.00097     0.38186
      H   18    0.10404      0.00000     0.39487    0.00109     0.39596
      H   19    0.11587      0.00000     0.38288    0.00125     0.38413
      H   20    0.11576      0.00000     0.38242    0.00182     0.38424
      H   21    0.10183      0.00000     0.39563    0.00254     0.39817
      H   22    0.10265      0.00000     0.39409    0.00326     0.39735
      H   23    0.09315      0.00000     0.40540    0.00145     0.40685
      H   24    0.10529      0.00000     0.39244    0.00227     0.39471
      H   25    0.10749      0.00000     0.39164    0.00087     0.39251
      H   26    0.11414      0.00000     0.38408    0.00178     0.38586
 =======================================================================
   * Total *   -0.00000     15.99584    34.77733    0.22683    51.00000

 Normal termination of Gaussian 16 at Wed Dec  9 17:34:56 2020.
