 Gaussian 16, Revision A.03,

 -----------------------------------------------------------
 # opt freq B3LYP/6-31G(d) empiricaldispersion=gd3bj scf=xqc
 -----------------------------------------------------------

 -----------------------------
 CID_43184582_JID_471_neutraal
 -----------------------------
 Symbolic Z-matrix:
 Charge =  0 Multiplicity = 1

 SCF Done:  E(RB3LYP) =  -446.284241067     A.U. after   13 cycles
 SCF Done:  E(RB3LYP) =  -446.286344552     A.U. after   10 cycles
 SCF Done:  E(RB3LYP) =  -446.286361973     A.U. after   10 cycles
 SCF Done:  E(RB3LYP) =  -446.286741560     A.U. after   10 cycles
 SCF Done:  E(RB3LYP) =  -446.286608552     A.U. after   10 cycles
 SCF Done:  E(RB3LYP) =  -446.286879120     A.U. after   10 cycles
 SCF Done:  E(RB3LYP) =  -446.286951327     A.U. after    9 cycles
 SCF Done:  E(RB3LYP) =  -446.286964063     A.U. after    9 cycles
 SCF Done:  E(RB3LYP) =  -446.286971201     A.U. after    8 cycles
 SCF Done:  E(RB3LYP) =  -446.286972465     A.U. after    7 cycles
 SCF Done:  E(RB3LYP) =  -446.286972457     A.U. after    6 cycles
 Optimization completed.
    -- Stationary point found.
 Normal termination of Gaussian 16 at Tue Dec  8 10:45:29 2020.

 --------------------------------------------------------------------
 #N Geom=AllCheck Guess=TCheck SCRF=Check GenChk RB3LYP/6-31G(d) Freq
 --------------------------------------------------------------------

 Structure from the checkpoint file:  "JID_471.chk"
 -----------------------------
 CID_43184582_JID_471_neutraal
 -----------------------------
 Charge =  0 Multiplicity = 1

 SCF Done:  E(RB3LYP) =  -446.286972457     A.U. after    1 cycles

  Exact polarizability: 108.521  -0.687  90.408   2.071  -0.769  85.464
 Approx polarizability: 132.327  -1.481 128.044   2.759  -0.112 124.834

                      1                      2                      3
                      A                      A                      A
 Frequencies --     69.5010                77.9780               117.9765
 Red. masses --      2.7656                 3.2830                 2.6917
 Frc consts  --      0.0079                 0.0118                 0.0221
 IR Inten    --      0.1007                 0.6121                 8.1160

                      4                      5                      6
                      A                      A                      A
 Frequencies --    148.9989               167.5205               186.8516
 Red. masses --      2.0366                 2.5754                 1.9203
 Frc consts  --      0.0266                 0.0426                 0.0395
 IR Inten    --      1.3054                 0.1622                 0.5297

                      7                      8                      9
                      A                      A                      A
 Frequencies --    216.3751               241.4087               255.9377
 Red. masses --      1.5696                 1.3890                 2.6507
 Frc consts  --      0.0433                 0.0477                 0.1023
 IR Inten    --      0.6217                 1.1092                 1.7753

                     10                     11                     12
                      A                      A                      A
 Frequencies --    265.1233               279.4049               314.0256
 Red. masses --      1.2333                 1.8075                 1.6777
 Frc consts  --      0.0511                 0.0831                 0.0975
 IR Inten    --      2.8663                 4.1213                 9.3062

                     13                     14                     15
                      A                      A                      A
 Frequencies --    324.0944               345.0460               365.5551
 Red. masses --      1.6387                 2.4407                 1.7749
 Frc consts  --      0.1014                 0.1712                 0.1397
 IR Inten    --      4.1145                 7.3777                13.4592

                     16                     17                     18
                      A                      A                      A
 Frequencies --    452.1304               501.3442               511.6006
 Red. masses --      2.8508                 2.4256                 2.5990
 Frc consts  --      0.3433                 0.3592                 0.4008
 IR Inten    --      5.6925                 3.4706                 4.4296

                     19                     20                     21
                      A                      A                      A
 Frequencies --    676.4827               761.0726               779.8251
 Red. masses --      2.5055                 1.3846                 1.7702
 Frc consts  --      0.6756                 0.4725                 0.6343
 IR Inten    --      6.0655                 2.3868                10.7386

                     22                     23                     24
                      A                      A                      A
 Frequencies --    796.9889               873.9634               881.6548
 Red. masses --      1.8371                 2.4494                 1.4512
 Frc consts  --      0.6875                 1.1023                 0.6646
 IR Inten    --      2.0537                23.9567                28.4508

                     25                     26                     27
                      A                      A                      A
 Frequencies --    894.0038               920.9172               951.5409
 Red. masses --      1.8196                 2.3550                 1.6248
 Frc consts  --      0.8568                 1.1767                 0.8668
 IR Inten    --    142.1433                26.7616                15.4574

                     28                     29                     30
                      A                      A                      A
 Frequencies --   1004.7187              1054.9306              1066.8373
 Red. masses --      1.8241                 1.5494                 1.8525
 Frc consts  --      1.0849                 1.0159                 1.2423
 IR Inten    --     15.9321                 4.3187                 0.1998

                     31                     32                     33
                      A                      A                      A
 Frequencies --   1089.1242              1093.9514              1115.5643
 Red. masses --      2.1231                 1.4284                 2.1888
 Frc consts  --      1.4838                 1.0071                 1.6049
 IR Inten    --     20.5875                 1.7954                42.6034

                     34                     35                     36
                      A                      A                      A
 Frequencies --   1139.6946              1183.4938              1190.9784
 Red. masses --      2.1424                 1.5976                 2.0284
 Frc consts  --      1.6396                 1.3184                 1.6951
 IR Inten    --     11.5738                28.9926                45.0880

                     37                     38                     39
                      A                      A                      A
 Frequencies --   1196.6416              1223.7630              1237.1631
 Red. masses --      2.2127                 1.6354                 1.5120
 Frc consts  --      1.8668                 1.4430                 1.3635
 IR Inten    --     44.7988                 0.6595                18.4516

                     40                     41                     42
                      A                      A                      A
 Frequencies --   1276.1797              1315.0829              1332.4538
 Red. masses --      1.3132                 1.3124                 1.1777
 Frc consts  --      1.2601                 1.3373                 1.2319
 IR Inten    --      1.2531                 4.5560                11.9107

                     43                     44                     45
                      A                      A                      A
 Frequencies --   1364.1976              1381.9457              1393.1855
 Red. masses --      1.3031                 1.4441                 1.4275
 Frc consts  --      1.4289                 1.6249                 1.6324
 IR Inten    --      1.8721                 3.1655                 1.4621

                     46                     47                     48
                      A                      A                      A
 Frequencies --   1401.7255              1414.6225              1424.4663
 Red. masses --      1.3000                 1.3524                 1.2729
 Frc consts  --      1.5050                 1.5946                 1.5218
 IR Inten    --      6.5044                 0.8432                 3.1594

                     49                     50                     51
                      A                      A                      A
 Frequencies --   1444.8256              1449.3502              1459.5129
 Red. masses --      1.2722                 1.2506                 1.2842
 Frc consts  --      1.5647                 1.5478                 1.6117
 IR Inten    --      1.1975                12.7814                 3.9349

                     52                     53                     54
                      A                      A                      A
 Frequencies --   1502.2091              1511.2808              1520.7936
 Red. masses --      1.1248                 1.0846                 1.0726
 Frc consts  --      1.4955                 1.4595                 1.4616
 IR Inten    --      2.0373                 1.1168                 1.6968

                     55                     56                     57
                      A                      A                      A
 Frequencies --   1523.8720              1529.4451              1534.1173
 Red. masses --      1.0562                 1.0623                 1.0554
 Frc consts  --      1.4450                 1.4640                 1.4634
 IR Inten    --      0.0164                10.6836                 3.5477

                     58                     59                     60
                      A                      A                      A
 Frequencies --   1537.6827              1540.6186              1541.7101
 Red. masses --      1.0549                 1.0705                 1.0492
 Frc consts  --      1.4695                 1.4970                 1.4693
 IR Inten    --      1.5318                 6.9252                 3.7635

                     61                     62                     63
                      A                      A                      A
 Frequencies --   1553.1465              1696.0742              3008.2314
 Red. masses --      1.0523                 1.0933                 1.0364
 Frc consts  --      1.4955                 1.8529                 5.5257
 IR Inten    --     10.5805                15.9318                64.2946

                     64                     65                     66
                      A                      A                      A
 Frequencies --   3027.6758              3033.0643              3041.4771
 Red. masses --      1.0809                 1.0641                 1.0622
 Frc consts  --      5.8380                 5.7674                 5.7896
 IR Inten    --     18.2702                15.8668                23.7565

                     67                     68                     69
                      A                      A                      A
 Frequencies --   3046.6553              3049.3556              3054.3122
 Red. masses --      1.0425                 1.0679                 1.0809
 Frc consts  --      5.7013                 5.8507                 5.9412
 IR Inten    --      3.2069                11.4263                53.8651

                     70                     71                     72
                      A                      A                      A
 Frequencies --   3059.1345              3060.7364              3064.7600
 Red. masses --      1.0895                 1.0496                 1.0958
 Frc consts  --      6.0071                 5.7933                 6.0641
 IR Inten    --     61.2416                18.3693                48.0898

                     73                     74                     75
                      A                      A                      A
 Frequencies --   3077.3418              3085.7750              3112.4982
 Red. masses --      1.1007                 1.0997                 1.1020
 Frc consts  --      6.1413                 6.1697                 6.2902
 IR Inten    --     36.4727                57.9885                44.3138

                     76                     77                     78
                      A                      A                      A
 Frequencies --   3116.0645              3117.2557              3120.1761
 Red. masses --      1.0992                 1.1019                 1.0984
 Frc consts  --      6.2884                 6.3086                 6.3002
 IR Inten    --     41.4175                53.5025                48.0899

                     79                     80                     81
                      A                      A                      A
 Frequencies --   3145.5476              3494.0185              3583.9063
 Red. masses --      1.1000                 1.0485                 1.0922
 Frc consts  --      6.4127                 7.5418                 8.2652
 IR Inten    --     29.2415                 1.3550                 0.1793

 - Thermochemistry -
 -------------------
 Temperature   298.150 Kelvin.  Pressure   1.00000 Atm.
 Atom     1 has atomic number  6 and mass  12.00000

 Molecular mass:   145.14666 amu.
 Principal axes and moments of inertia in atomic units:
                           1         2         3
     Eigenvalues --  1016.196112271.698492418.11503
           X            0.99975   0.01883   0.01181
           Y           -0.01862   0.99967  -0.01796
           Z           -0.01214   0.01773   0.99977
 This molecule is an asymmetric top.
 Rotational symmetry number  1.
 Warning -- assumption of classical behavior for rotation
           may cause significant error
 Rotational temperatures (Kelvin)      0.08523     0.03813     0.03582
 Rotational constants (GHZ):           1.77598     0.79445     0.74634
 Zero-point vibrational energy     711303.6 (Joules/Mol)
                                  170.00563 (Kcal/Mol)
 Warning -- explicit consideration of  18 degrees of freedom as
           vibrations may cause significant error
 Vibrational temperatures:    100.00   112.19   169.74   214.38   241.02
          (Kelvin)            268.84   311.32   347.33   368.24   381.45
                              402.00   451.81   466.30   496.44   525.95
                              650.51   721.32   736.08   973.31  1095.01
                             1121.99  1146.69  1257.44  1268.50  1286.27
                             1324.99  1369.06  1445.57  1517.81  1534.94
                             1567.01  1573.95  1605.05  1639.77  1702.78
                             1713.55  1721.70  1760.72  1780.00  1836.14
                             1892.11  1917.10  1962.78  1988.31  2004.48
                             2016.77  2035.33  2049.49  2078.78  2085.29
                             2099.91  2161.34  2174.40  2188.08  2192.51
                             2200.53  2207.25  2212.38  2216.61  2218.18
                             2234.63  2440.27  4328.17  4356.15  4363.90
                             4376.01  4383.46  4387.34  4394.47  4401.41
                             4403.72  4409.51  4427.61  4439.74  4478.19
                             4483.32  4485.04  4489.24  4525.74  5027.11
                             5156.44

 Zero-point correction=                           0.270921 (Hartree/Particle)
 Thermal correction to Energy=                    0.283555
 Thermal correction to Enthalpy=                  0.284499
 Thermal correction to Gibbs Free Energy=         0.233218
 Sum of electronic and zero-point Energies=           -446.016051
 Sum of electronic and thermal Energies=              -446.003417
 Sum of electronic and thermal Enthalpies=            -446.002473
 Sum of electronic and thermal Free Energies=         -446.053754

                     E (Thermal)             CV                S
                      KCal/Mol        Cal/Mol-Kelvin    Cal/Mol-Kelvin
 Total                  177.934             47.062            107.931
 Electronic               0.000              0.000              0.000
 Translational            0.889              2.981             40.829
 Rotational               0.889              2.981             30.102
 Vibrational            176.156             41.101             37.000
 Vibration     1          0.598              1.969              4.167
 Vibration     2          0.599              1.964              3.941
 Vibration     3          0.608              1.934              3.133
 Vibration     4          0.618              1.904              2.685
 Vibration     5          0.624              1.882              2.463
 Vibration     6          0.632              1.858              2.259
 Vibration     7          0.645              1.816              1.989
 Vibration     8          0.658              1.777              1.792
 Vibration     9          0.666              1.753              1.689
 Vibration    10          0.671              1.737              1.628
 Vibration    11          0.680              1.712              1.537
 Vibration    12          0.702              1.647              1.341
 Vibration    13          0.709              1.627              1.289
 Vibration    14          0.723              1.585              1.189
 Vibration    15          0.739              1.543              1.098
 Vibration    16          0.811              1.356              0.789
 Vibration    17          0.857              1.247              0.655
 Vibration    18          0.867              1.224              0.630

 Optimization completed.
    -- Stationary point found.
 Normal termination of Gaussian 16 at Tue Dec  8 10:53:14 2020.

 ----------------------------------------------------------------------
 # B3LYP/6-311++G(d,p) empiricaldispersion=gd3bj scf=xqc pop=npa geom=c
 heck
 ----------------------------------------------------------------------

 -------------------------------------
 CID_43184582_JID_471_Energie_neutraal
 -------------------------------------
 Structure from the checkpoint file:  "JID_471.chk"
 Charge =  0 Multiplicity = 1

 SCF Done:  E(RB3LYP) =  -446.425085279     A.U. after   14 cycles
 Normal termination of Gaussian 16 at Tue Dec  8 10:59:56 2020.

 ----------------------------------------------------------------------
 # B3LYP/6-311++G(d,p) empiricaldispersion=gd3bj scf=xqc pop=npa geom=c
 heck
 ----------------------------------------------------------------------

 -----------------------------------
 CID_43184582_JID_471_Energie_kation
 -----------------------------------
 Structure from the checkpoint file:  "JID_471.chk"
 Charge =  1 Multiplicity = 2

 SCF Done:  E(UB3LYP) =  -446.118400704     A.U. after   18 cycles
 Normal termination of Gaussian 16 at Tue Dec  8 11:07:34 2020.
 Gaussian 16:  ES64L-G16RevA.03 25-Dec-2016

 ----------------------------------------------------------------------
 # B3LYP/6-311++G(d,p) empiricaldispersion=gd3bj scf=xqc pop=npa geom=c
 heck
 ----------------------------------------------------------------------

 ----------------------------------
 CID_43184582_JID_471_Energie_anion
 ----------------------------------
 Structure from the checkpoint file:  "JID_471.chk"
 Charge = -1 Multiplicity = 2

                         Standard orientation:
 ---------------------------------------------------------------------
 Center     Atomic      Atomic             Coordinates (Angstroms)
 Number     Number       Type             X           Y           Z
 ---------------------------------------------------------------------
      1          6           0       -3.267385   -0.808254   -0.563095
      2          6           0       -2.570368    0.547601   -0.412838
      3          6           0       -1.565344    0.610031    0.748203
      4          6           0       -0.412603   -0.404127    0.693844
      5          6           0        0.428433   -0.315950   -0.603634
      6          6           0        0.963160    1.070511   -1.011547
      7          6           0        1.678995    1.955065    0.020648
      8          8           0        1.401145   -1.379033   -0.594170
      9          6           0        2.741967   -1.100048   -0.257411
     10          7           0        0.338745   -0.348184    1.954229
     11          1           0       -2.563307   -1.600724   -0.839752
     12          1           0       -4.039901   -0.769357   -1.339068
     13          1           0       -3.749060   -1.107405    0.375729
     14          1           0       -2.078952    0.810921   -1.358845
     15          1           0       -3.329062    1.323318   -0.246502
     16          1           0       -1.156544    1.627619    0.811973
     17          1           0       -2.092311    0.435948    1.694203
     18          1           0       -0.850587   -1.409734    0.672903
     19          1           0       -0.239593   -0.614626   -1.422089
     20          1           0        1.616224    0.924629   -1.881262
     21          1           0        0.101225    1.633157   -1.390643
     22          1           0        2.538665    1.464120    0.483512
     23          1           0        2.046955    2.864515   -0.468073
     24          1           0        1.003456    2.276685    0.819634
     25          1           0        3.208201   -0.369660   -0.933040
     26          1           0        2.864745   -0.742193    0.775128
     27          1           0        3.279833   -2.047467   -0.358252
     28          1           0        1.034884   -1.089811    1.957024
     29          1           0        0.843622    0.530649    2.036167
 ---------------------------------------------------------------------

 SCF Done:  E(UB3LYP) =  -446.409225252     A.U. after   27 cycles

 The electronic state is 2-A.
 Alpha  occ. eigenvalues --  -19.01600 -14.18687 -10.11305 -10.10471 -10.09065
 Alpha  occ. eigenvalues --  -10.06602 -10.06569 -10.06059 -10.06028 -10.05624
 Alpha  occ. eigenvalues --   -0.92483  -0.78333  -0.69323  -0.67349  -0.62725
 Alpha  occ. eigenvalues --   -0.59768  -0.54935  -0.52966  -0.48473  -0.44572
 Alpha  occ. eigenvalues --   -0.40351  -0.38817  -0.37380  -0.35520  -0.34667
 Alpha  occ. eigenvalues --   -0.34167  -0.31890  -0.31597  -0.30571  -0.29554
 Alpha  occ. eigenvalues --   -0.28591  -0.27655  -0.25869  -0.25304  -0.24263
 Alpha  occ. eigenvalues --   -0.23321  -0.22778  -0.21789  -0.19297  -0.16788
 Alpha  occ. eigenvalues --   -0.12876   0.04641
 Alpha virt. eigenvalues --    0.06527   0.07610   0.08171   0.09001   0.09487
 Alpha virt. eigenvalues --    0.09599   0.10524   0.11077   0.11923   0.12182
 Alpha virt. eigenvalues --    0.12521   0.13022   0.13633   0.14818   0.15326

  Beta  occ. eigenvalues --  -19.01596 -14.18671 -10.11303 -10.10426 -10.09061
  Beta  occ. eigenvalues --  -10.06575 -10.06547 -10.06046 -10.06005 -10.05578
  Beta  occ. eigenvalues --   -0.92471  -0.78307  -0.69287  -0.67305  -0.62675
  Beta  occ. eigenvalues --   -0.59721  -0.54853  -0.52897  -0.48400  -0.44524
  Beta  occ. eigenvalues --   -0.40324  -0.38777  -0.37350  -0.35477  -0.34638
  Beta  occ. eigenvalues --   -0.34131  -0.31848  -0.31561  -0.30526  -0.29515
  Beta  occ. eigenvalues --   -0.28548  -0.27630  -0.25830  -0.25243  -0.24220
  Beta  occ. eigenvalues --   -0.23280  -0.22747  -0.21759  -0.19266  -0.16770
  Beta  occ. eigenvalues --   -0.12857
  Beta virt. eigenvalues --    0.06887   0.07554   0.08338   0.08771   0.09565
  Beta virt. eigenvalues --    0.09956   0.10181   0.10998   0.11491   0.12434
  Beta virt. eigenvalues --    0.12610   0.12935   0.13273   0.13945   0.15050

 Mulliken charges and spin densities:
               1          2
     1  C    0.775715  -1.382130
     2  C   -0.689327   0.491542
     3  C    0.002564  -0.177194
     4  C    0.864333  -1.039600
     5  C   -1.290169   0.812575
     6  C   -0.252165  -0.143409
     7  C    1.324394  -1.816887
     8  O   -0.146875   0.026539
     9  C    1.148243  -1.421617
    10  N   -0.283980   0.030243
    11  H   -0.024765   0.162278
    12  H   -0.320619   0.457081
    13  H    0.020573   0.111790
    14  H    0.014595   0.095331
    15  H   -0.518916   0.676493
    16  H    0.028577   0.098633
    17  H    0.025311   0.162481
    18  H    0.345983  -0.093123
    19  H   -0.200772   0.445635
    20  H   -0.235484   0.409440
    21  H   -0.056999   0.205799
    22  H   -0.121085   0.280810
    23  H   -0.593127   0.745469
    24  H   -0.257276   0.396578
    25  H   -0.337511   0.485567
    26  H   -0.222502   0.354226
    27  H   -0.202118   0.354312
    28  H    0.020934   0.218338
    29  H    0.182467   0.052801
 Sum of Mulliken charges =  -1.00000   1.00000

 Dipole moment (field-independent basis, Debye):
    X=             -1.7914    Y=             -2.3585    Z=              1.5399  Tot=              3.3381
 Quadrupole moment (field-independent basis, Debye-Ang):
   XX=           -134.8578   YY=           -107.8985   ZZ=           -103.2062
   XY=             -1.5183   XZ=              0.0242   YZ=              1.9624

 Summary of Natural Population Analysis:

                                       Natural Population
                Natural  -----------------------------------------------
    Atom  No    Charge         Core      Valence    Rydberg      Total
 -----------------------------------------------------------------------
      C    1   -0.28760      0.99967     2.28209    0.00584     3.28760
      C    2   -0.19111      0.99964     2.18346    0.00802     3.19111
      C    3   -0.19352      0.99960     2.18440    0.00951     3.19352
      C    4   -0.02326      0.99956     2.01091    0.01279     3.02326
      C    5    0.06633      0.99949     1.91906    0.01512     2.93367
      C    6   -0.21181      0.99961     2.20289    0.00930     3.21181
      C    7   -0.29149      0.99966     2.28559    0.00624     3.29149
      O    8   -0.31008      0.99988     3.29931    0.01089     4.31008
      C    9   -0.09774      0.99960     2.08820    0.00995     3.09774
      N   10   -0.42233      0.99977     2.91340    0.00917     3.92233
      H   11    0.09595      0.00000     0.40301    0.00105     0.40405
      H   12    0.09952      0.00000     0.39943    0.00105     0.40048
      H   13    0.09469      0.00000     0.40438    0.00092     0.40531
      H   14    0.09395      0.00000     0.40449    0.00156     0.40605
      H   15    0.09650      0.00000     0.40222    0.00127     0.40350
      H   16    0.09772      0.00000     0.40100    0.00128     0.40228
      H   17    0.10123      0.00000     0.39750    0.00127     0.39877
      H   18    0.09238      0.00000     0.40563    0.00199     0.40762
      H   19    0.09177      0.00000     0.40613    0.00210     0.40823
      H   20    0.10325      0.00000     0.39539    0.00135     0.39675
      H   21    0.10419      0.00000     0.39439    0.00143     0.39581
      H   22    0.09845      0.00000     0.39977    0.00179     0.40155
      H   23    0.10410      0.00000     0.39421    0.00169     0.39590
      H   24    0.09326      0.00000     0.40531    0.00143     0.40674
      H   25    0.08207      0.00000     0.41619    0.00174     0.41793
      H   26    0.07464      0.00000     0.42357    0.00178     0.42536
      H   27    0.08948      0.00000     0.40932    0.00119     0.41052
      H   28    0.17614      0.00000     0.32165    0.00222     0.32386
      H   29    0.17332      0.00000     0.32413    0.00255     0.32668
 =======================================================================
   * Total *    0.00000      9.99647    30.87702    0.12651    41.00000

 Normal termination of Gaussian 16 at Tue Dec  8 11:15:49 2020.
