 Gaussian 16, Revision A.03,

 -----------------------------------------------------------
 # opt freq B3LYP/6-31G(d) empiricaldispersion=gd3bj scf=xqc
 -----------------------------------------------------------

 -------------------------------
 CID_139941926_JID_5665_neutraal
 -------------------------------
 Symbolic Z-matrix:
 Charge =  0 Multiplicity = 1

 SCF Done:  E(RB3LYP) =  -688.778639258     A.U. after   16 cycles
 SCF Done:  E(RB3LYP) =  -688.816587374     A.U. after   13 cycles
 SCF Done:  E(RB3LYP) =  -688.819127517     A.U. after   14 cycles
 SCF Done:  E(RB3LYP) =  -688.811374168     A.U. after   14 cycles
 SCF Done:  E(RB3LYP) =  -688.819616446     A.U. after   13 cycles
 SCF Done:  E(RB3LYP) =  -688.820775200     A.U. after   13 cycles
 SCF Done:  E(RB3LYP) =  -688.820465818     A.U. after   13 cycles
 SCF Done:  E(RB3LYP) =  -688.820756046     A.U. after   12 cycles
 SCF Done:  E(RB3LYP) =  -688.821473846     A.U. after    9 cycles
 SCF Done:  E(RB3LYP) =  -688.821593829     A.U. after   12 cycles
 SCF Done:  E(RB3LYP) =  -688.825069619     A.U. after   10 cycles
 SCF Done:  E(RB3LYP) =  -688.825071467     A.U. after    9 cycles
 SCF Done:  E(RB3LYP) =  -688.825071504     A.U. after    9 cycles
 SCF Done:  E(RB3LYP) =  -688.825071880     A.U. after    9 cycles
 SCF Done:  E(RB3LYP) =  -688.825071903     A.U. after    7 cycles
 Optimization completed.
    -- Stationary point found.
 Normal termination of Gaussian 16 at Thu Dec 10 17:29:41 2020.

 --------------------------------------------------------------------
 #N Geom=AllCheck Guess=TCheck SCRF=Check GenChk RB3LYP/6-31G(d) Freq
 --------------------------------------------------------------------

 Structure from the checkpoint file:  "JID_5665.chk"
 -------------------------------
 CID_139941926_JID_5665_neutraal
 -------------------------------
 Charge =  0 Multiplicity = 1

 SCF Done:  E(RB3LYP) =  -688.825071903     A.U. after    1 cycles

  Exact polarizability: 150.915   3.688 138.585  -2.553   7.067  79.051
 Approx polarizability: 204.825   5.463 241.607 -11.429  19.064 129.969

                      1                      2                      3
                      A                      A                      A
 Frequencies --     29.3420                30.8510                66.3811
 Red. masses --      5.7439                 4.6019                 5.2839
 Frc consts  --      0.0029                 0.0026                 0.0137
 IR Inten    --      0.8495                 0.2604                 0.3926

                      4                      5                      6
                      A                      A                      A
 Frequencies --     70.5058               111.3461               164.0301
 Red. masses --      4.8329                 4.6860                 3.9992
 Frc consts  --      0.0142                 0.0342                 0.0634
 IR Inten    --      0.0635                 0.6803                 1.0049

                      7                      8                      9
                      A                      A                      A
 Frequencies --    189.6980               215.4701               233.9275
 Red. masses --      4.0922                 4.3200                 5.4691
 Frc consts  --      0.0868                 0.1182                 0.1763
 IR Inten    --      0.9302                 1.0381                 1.3137

                     10                     11                     12
                      A                      A                      A
 Frequencies --    255.3774               305.9938               328.8242
 Red. masses --      6.3170                 5.5015                 3.2398
 Frc consts  --      0.2427                 0.3035                 0.2064
 IR Inten    --      1.4312                 7.6182                 7.0282

                     13                     14                     15
                      A                      A                      A
 Frequencies --    334.5465               369.3847               408.7462
 Red. masses --      4.2294                 3.7297                 4.7840
 Frc consts  --      0.2789                 0.2998                 0.4709
 IR Inten    --      1.0527                 3.6887                 2.3083

                     16                     17                     18
                      A                      A                      A
 Frequencies --    466.1321               488.3993               506.2586
 Red. masses --      2.9067                 4.6319                 1.6975
 Frc consts  --      0.3721                 0.6510                 0.2563
 IR Inten    --     15.2271                 4.1899                74.9518

                     19                     20                     21
                      A                      A                      A
 Frequencies --    511.5926               581.7136               596.8395
 Red. masses --      2.7122                 6.1844                 5.7065
 Frc consts  --      0.4182                 1.2330                 1.1977
 IR Inten    --     27.0745                 3.7758                14.5015

                     22                     23                     24
                      A                      A                      A
 Frequencies --    602.2430               608.5343               637.7188
 Red. masses --      1.2659                 1.2055                 3.6712
 Frc consts  --      0.2705                 0.2630                 0.8797
 IR Inten    --     51.0858                39.1117                 0.6814

                     25                     26                     27
                      A                      A                      A
 Frequencies --    641.3719               658.8234               662.9956
 Red. masses --      3.4165                 1.3711                 1.2454
 Frc consts  --      0.8281                 0.3506                 0.3225
 IR Inten    --      2.7864                50.1813                23.7574

                     28                     29                     30
                      A                      A                      A
 Frequencies --    713.3070               723.9076               780.8746
 Red. masses --      4.3399                 5.0126                 5.0552
 Frc consts  --      1.3010                 1.5477                 1.8161
 IR Inten    --     10.9838                10.9459                17.4087

                     31                     32                     33
                      A                      A                      A
 Frequencies --    813.2507               840.4221               926.2007
 Red. masses --      1.5799                 1.5038                 1.2785
 Frc consts  --      0.6157                 0.6258                 0.6462
 IR Inten    --     17.3907                34.5047                 1.2489

                     34                     35                     36
                      A                      A                      A
 Frequencies --    939.8059               945.1772               975.4885
 Red. masses --      5.1102                 4.6524                 3.2552
 Frc consts  --      2.6593                 2.4488                 1.8250
 IR Inten    --     12.1131                17.8574                42.7427

                     37                     38                     39
                      A                      A                      A
 Frequencies --   1015.6729              1049.9823              1052.7620
 Red. masses --      6.8257                 1.8911                 1.9915
 Frc consts  --      4.1486                 1.2284                 1.3004
 IR Inten    --    112.3530                 6.4964                12.5722

                     40                     41                     42
                      A                      A                      A
 Frequencies --   1067.1699              1132.7064              1209.0849
 Red. masses --      3.7527                 1.5638                 2.5207
 Frc consts  --      2.5180                 1.1822                 2.1711
 IR Inten    --    127.9498                 5.5967                17.0393

                     43                     44                     45
                      A                      A                      A
 Frequencies --   1213.6742              1263.4028              1294.9002
 Red. masses --      1.7380                 1.7104                 1.2777
 Frc consts  --      1.5084                 1.6085                 1.2622
 IR Inten    --    295.1977               100.6168                32.1350

                     46                     47                     48
                      A                      A                      A
 Frequencies --   1306.8183              1319.1482              1354.9665
 Red. masses --      1.1627                 1.8862                 2.3105
 Frc consts  --      1.1699                 1.9338                 2.4993
 IR Inten    --     46.7525                54.6723                55.3587

                     49                     50                     51
                      A                      A                      A
 Frequencies --   1385.0447              1412.2897              1418.9066
 Red. masses --      2.7222                 1.4040                 1.4474
 Frc consts  --      3.0768                 1.6499                 1.7169
 IR Inten    --     42.2364                42.8186                20.7712

                     52                     53                     54
                      A                      A                      A
 Frequencies --   1504.6481              1507.4953              1519.6792
 Red. masses --      1.6370                 1.0928                 1.7175
 Frc consts  --      2.1836                 1.4632                 2.3369
 IR Inten    --      1.1816                 6.4028                15.0508

                     55                     56                     57
                      A                      A                      A
 Frequencies --   1556.7661              1654.9106              1679.5821
 Red. masses --      3.0256                 7.3528                 6.0670
 Frc consts  --      4.3203                11.8646                10.0838
 IR Inten    --    269.9888                94.8958                62.9549

                     58                     59                     60
                      A                      A                      A
 Frequencies --   2242.4146              2244.6252              3032.0573
 Red. masses --      5.9254                 5.9212                 1.0675
 Frc consts  --     17.5549                17.5770                 5.7822
 IR Inten    --      4.7097                 4.0902                31.4632

                     61                     62                     63
                      A                      A                      A
 Frequencies --   3048.3595              3106.7302              3107.1286
 Red. masses --      1.0630                 1.0953                 1.1002
 Frc consts  --      5.8201                 6.2285                 6.2578
 IR Inten    --     24.5654                17.6788                16.6078

                     64                     65                     66
                      A                      A                      A
 Frequencies --   3199.5289              3228.1036              3248.2866
 Red. masses --      1.0892                 1.0934                 1.0904
 Frc consts  --      6.5694                 6.7132                 6.7788
 IR Inten    --      9.1979                 4.4988                 1.1334

                     67                     68                     69
                      A                      A                      A
 Frequencies --   3495.0803              3495.7074              3685.8477
 Red. masses --      1.1614                 1.1615                 1.0643
 Frc consts  --      8.3588                 8.3626                 8.5190
 IR Inten    --     34.6557                64.0169                91.2702

 - Thermochemistry -
 -------------------
 Temperature   298.150 Kelvin.  Pressure   1.00000 Atm.
 Atom     1 has atomic number  6 and mass  12.00000

 Molecular mass:   202.06299 amu.
 Principal axes and moments of inertia in atomic units:
                           1         2         3
     Eigenvalues --  1665.122735104.356825940.64966
           X            0.99997   0.00393   0.00702
           Y           -0.00399   0.99996   0.00853
           Z           -0.00699  -0.00856   0.99994
 This molecule is an asymmetric top.
 Rotational symmetry number  1.
 Warning -- assumption of classical behavior for rotation
           may cause significant error
 Rotational temperatures (Kelvin)      0.05202     0.01697     0.01458
 Rotational constants (GHZ):           1.08385     0.35357     0.30380
 Zero-point vibrational energy     495188.0 (Joules/Mol)
                                  118.35276 (Kcal/Mol)
 Warning -- explicit consideration of  23 degrees of freedom as
           vibrations may cause significant error
 Vibrational temperatures:     42.22    44.39    95.51   101.44   160.20
          (Kelvin)            236.00   272.93   310.01   336.57   367.43
                              440.26   473.10   481.34   531.46   588.09
                              670.66   702.70   728.39   736.07   836.96
                              858.72   866.49   875.55   917.54   922.79
                              947.90   953.90  1026.29  1041.54  1123.50
                             1170.09  1209.18  1332.60  1352.17  1359.90
                             1403.51  1461.33  1510.69  1514.69  1535.42
                             1629.71  1739.60  1746.21  1817.75  1863.07
                             1880.22  1897.96  1949.49  1992.77  2031.97
                             2041.49  2164.85  2168.95  2186.48  2239.84
                             2381.05  2416.54  3226.33  3229.52  4362.45
                             4385.91  4469.89  4470.47  4603.41  4644.52
                             4673.56  5028.64  5029.54  5303.11

 Zero-point correction=                           0.188607 (Hartree/Particle)
 Thermal correction to Energy=                    0.203038
 Thermal correction to Enthalpy=                  0.203983
 Thermal correction to Gibbs Free Energy=         0.146065
 Sum of electronic and zero-point Energies=           -688.636465
 Sum of electronic and thermal Energies=              -688.622033
 Sum of electronic and thermal Enthalpies=            -688.621089
 Sum of electronic and thermal Free Energies=         -688.679007

                     E (Thermal)             CV                S
                      KCal/Mol        Cal/Mol-Kelvin    Cal/Mol-Kelvin
 Total                  127.409             54.322            121.897
 Electronic               0.000              0.000              0.000
 Translational            0.889              2.981             41.815
 Rotational               0.889              2.981             32.290
 Vibrational            125.631             48.361             47.792
 Vibration     1          0.593              1.984              5.873
 Vibration     2          0.594              1.984              5.774
 Vibration     3          0.598              1.970              4.258
 Vibration     4          0.598              1.968              4.139
 Vibration     5          0.607              1.940              3.245
 Vibration     6          0.623              1.887              2.503
 Vibration     7          0.633              1.854              2.231
 Vibration     8          0.645              1.817              1.997
 Vibration     9          0.654              1.789              1.849
 Vibration    10          0.666              1.754              1.693
 Vibration    11          0.696              1.662              1.384
 Vibration    12          0.712              1.618              1.266
 Vibration    13          0.716              1.607              1.238
 Vibration    14          0.742              1.535              1.082
 Vibration    15          0.773              1.451              0.931
 Vibration    16          0.823              1.325              0.748
 Vibration    17          0.844              1.276              0.688
 Vibration    18          0.861              1.236              0.643
 Vibration    19          0.867              1.224              0.630
 Vibration    20          0.938              1.071              0.482
 Vibration    21          0.955              1.039              0.455
 Vibration    22          0.961              1.027              0.446
 Vibration    23          0.967              1.014              0.435

 Optimization completed.
    -- Stationary point found.
 Normal termination of Gaussian 16 at Thu Dec 10 17:37:19 2020.

 ----------------------------------------------------------------------
 # B3LYP/6-311++G(d,p) empiricaldispersion=gd3bj scf=xqc pop=npa geom=c
 heck
 ----------------------------------------------------------------------

 ---------------------------------------
 CID_139941926_JID_5665_Energie_neutraal
 ---------------------------------------
 Structure from the checkpoint file:  "JID_5665.chk"
 Charge =  0 Multiplicity = 1

 SCF Done:  E(RB3LYP) =  -689.030416588     A.U. after   16 cycles
 Normal termination of Gaussian 16 at Thu Dec 10 17:41:13 2020.

 ----------------------------------------------------------------------
 # B3LYP/6-311++G(d,p) empiricaldispersion=gd3bj scf=xqc pop=npa geom=c
 heck
 ----------------------------------------------------------------------

 -------------------------------------
 CID_139941926_JID_5665_Energie_kation
 -------------------------------------
 Structure from the checkpoint file:  "JID_5665.chk"
 Charge =  1 Multiplicity = 2

 SCF Done:  E(UB3LYP) =  -688.745297483     A.U. after   23 cycles
 Normal termination of Gaussian 16 at Thu Dec 10 17:48:31 2020.
 Gaussian 16:  ES64L-G16RevA.03 25-Dec-2016

 ----------------------------------------------------------------------
 # B3LYP/6-311++G(d,p) empiricaldispersion=gd3bj scf=xqc pop=npa geom=c
 heck
 ----------------------------------------------------------------------

 ------------------------------------
 CID_139941926_JID_5665_Energie_anion
 ------------------------------------
 Structure from the checkpoint file:  "JID_5665.chk"
 Charge = -1 Multiplicity = 2

                         Standard orientation:
 ---------------------------------------------------------------------
 Center     Atomic      Atomic             Coordinates (Angstroms)
 Number     Number       Type             X           Y           Z
 ---------------------------------------------------------------------
      1          6           0        3.702944    2.255352   -0.718025
      2          6           0        3.684821    1.138369   -0.262313
      3          6           0        3.669592   -0.217064    0.294556
      4          8           0        2.753353   -1.093420   -0.354332
      5          6           0        1.414307   -0.944409   -0.097774
      6          6           0        0.874562    0.083063    0.678901
      7          6           0       -0.507116    0.129365    0.882695
      8          6           0       -1.334296   -0.849016    0.318324
      9          6           0       -0.784228   -1.869460   -0.451799
     10          6           0        0.588284   -1.922562   -0.668168
     11          8           0       -2.697357   -0.777635    0.599332
     12          6           0       -3.510803   -0.327340   -0.497335
     13          6           0       -3.339952    1.101285   -0.766026
     14          6           0       -3.171956    2.283338   -0.942476
     15          8           0       -1.028888    1.129307    1.638382
     16          1           0        3.711667    3.240685   -1.125712
     17          1           0        4.647505   -0.688165    0.157203
     18          1           0        3.461838   -0.183890    1.373312
     19          1           0        1.479180    0.873530    1.103451
     20          1           0       -1.437758   -2.631022   -0.867289
     21          1           0        1.039668   -2.712306   -1.257738
     22          1           0       -3.284352   -0.914553   -1.396506
     23          1           0       -4.541724   -0.543660   -0.199968
     24          1           0       -3.014797    3.325053   -1.108441
     25          1           0       -1.995037    1.002789    1.631266
 ---------------------------------------------------------------------

 SCF Done:  E(UB3LYP) =  -689.015340202     A.U. after   33 cycles
 SCF Done:  E(UB3LYP) =  -689.015340202     a.u. after    1 cycles

 The electronic state is 2-A.
 Alpha  occ. eigenvalues --  -19.07268 -19.06583 -19.06245 -10.16978 -10.16223
 Alpha  occ. eigenvalues --  -10.15014 -10.14896 -10.13280 -10.09538 -10.09213
 Alpha  occ. eigenvalues --  -10.09176 -10.08831 -10.08615 -10.08328 -10.08064
 Alpha  occ. eigenvalues --   -0.98963  -0.98788  -0.96306  -0.76700  -0.70791
 Alpha  occ. eigenvalues --   -0.69603  -0.66431  -0.65677  -0.62883  -0.59943
 Alpha  occ. eigenvalues --   -0.53445  -0.52922  -0.48587  -0.46479  -0.45199
 Alpha  occ. eigenvalues --   -0.43395  -0.43096  -0.41009  -0.40663  -0.39761
 Alpha  occ. eigenvalues --   -0.38997  -0.37514  -0.34968  -0.33483  -0.32365
 Alpha  occ. eigenvalues --   -0.31690  -0.29187  -0.28646  -0.27345  -0.26737
 Alpha  occ. eigenvalues --   -0.23027  -0.21707  -0.20463  -0.20036  -0.19682
 Alpha  occ. eigenvalues --   -0.19356  -0.15448  -0.12619   0.04202
 Alpha virt. eigenvalues --    0.05581   0.06352   0.07187   0.07478   0.07814
 Alpha virt. eigenvalues --    0.08269   0.08735   0.08893   0.09208   0.09841
 Alpha virt. eigenvalues --    0.10343   0.10732   0.11378   0.11717   0.12317

  Beta  occ. eigenvalues --  -19.07265 -19.06577 -19.06237 -10.16948 -10.16176
  Beta  occ. eigenvalues --  -10.15013 -10.14894 -10.13281 -10.09537 -10.09210
  Beta  occ. eigenvalues --  -10.09160 -10.08804 -10.08585 -10.08321 -10.08061
  Beta  occ. eigenvalues --   -0.98954  -0.98779  -0.96294  -0.76688  -0.70755
  Beta  occ. eigenvalues --   -0.69557  -0.66412  -0.65657  -0.62836  -0.59890
  Beta  occ. eigenvalues --   -0.53416  -0.52900  -0.48561  -0.46435  -0.45140
  Beta  occ. eigenvalues --   -0.43349  -0.43072  -0.40978  -0.40643  -0.39693
  Beta  occ. eigenvalues --   -0.38963  -0.37479  -0.34947  -0.33454  -0.32347
  Beta  occ. eigenvalues --   -0.31673  -0.29170  -0.28628  -0.27325  -0.26720
  Beta  occ. eigenvalues --   -0.23009  -0.21679  -0.20433  -0.19991  -0.19657
  Beta  occ. eigenvalues --   -0.19322  -0.15438  -0.12612
  Beta virt. eigenvalues --    0.06289   0.06740   0.07248   0.07472   0.07976
  Beta virt. eigenvalues --    0.08407   0.08441   0.08828   0.09045   0.09420
  Beta virt. eigenvalues --    0.09959   0.10620   0.11019   0.11533   0.11963

 Mulliken charges and spin densities:
               1          2
     1  C   -4.584903   3.276595
     2  C    4.554847  -3.087375
     3  C    1.102669  -1.774482
     4  O   -0.087477   0.034337
     5  C   -0.210430  -0.258284
     6  C    0.963263  -0.580724
     7  C   -0.033521  -0.476755
     8  C   -0.080949   0.277163
     9  C    0.360259   0.122555
    10  C   -0.940504   0.361033
    11  O   -0.188363   0.050131
    12  C    2.008594  -2.511347
    13  C    3.591735  -1.939104
    14  C   -4.279583   2.640603
    15  O   -0.207959   0.015870
    16  H   -1.030599   1.187518
    17  H   -0.471913   0.677348
    18  H   -0.047328   0.237370
    19  H    0.300943  -0.111111
    20  H   -0.378616   0.560792
    21  H    0.004237   0.172762
    22  H   -0.162410   0.319820
    23  H   -0.626118   0.832033
    24  H   -0.777395   0.925020
    25  H    0.221519   0.048231
 Sum of Mulliken charges =  -1.00000   1.00000

 Dipole moment (field-independent basis, Debye):
    X=              0.8504    Y=             -2.4143    Z=              2.3749  Tot=              3.4917
 Quadrupole moment (field-independent basis, Debye-Ang):
   XX=           -181.4270   YY=           -134.9198   ZZ=           -116.9558
   XY=             -7.6517   XZ=             -0.2961   YZ=              4.9127

 Summary of Natural Population Analysis:

                                       Natural Population
                Natural  -----------------------------------------------
    Atom  No    Charge         Core      Valence    Rydberg      Total
 -----------------------------------------------------------------------
      C    1   -0.09604      0.99926     2.09304    0.00373     3.09604
      C    2   -0.02661      0.99935     2.01917    0.00809     3.02661
      C    3   -0.05067      0.99949     2.03705    0.01413     3.05067
      O    4   -0.27007      0.99986     3.26009    0.01012     4.27007
      C    5    0.16523      0.99939     1.82309    0.01228     2.83477
      C    6   -0.16294      0.99948     2.15590    0.00756     3.16294
      C    7    0.15661      0.99936     1.83098    0.01305     2.84339
      C    8    0.09959      0.99932     1.88703    0.01406     2.90041
      C    9   -0.10460      0.99952     2.09535    0.00973     3.10460
      C   10   -0.13084      0.99953     2.12192    0.00939     3.13084
      O   11   -0.29201      0.99987     3.28145    0.01069     4.29201
      C   12   -0.04629      0.99948     2.03209    0.01472     3.04629
      C   13   -0.02862      0.99936     2.02075    0.00852     3.02862
      C   14   -0.09587      0.99927     2.09297    0.00363     3.09587
      O   15   -0.33687      0.99988     3.33089    0.00610     4.33687
      H   16    0.11418      0.00000     0.38356    0.00225     0.38582
      H   17    0.11033      0.00000     0.38760    0.00207     0.38967
      H   18    0.09966      0.00000     0.39875    0.00159     0.40034
      H   19    0.11440      0.00000     0.38399    0.00160     0.38560
      H   20    0.10721      0.00000     0.39149    0.00129     0.39279
      H   21    0.10711      0.00000     0.39174    0.00115     0.39289
      H   22    0.10131      0.00000     0.39624    0.00245     0.39869
      H   23    0.10931      0.00000     0.38698    0.00371     0.39069
      H   24    0.11383      0.00000     0.38442    0.00174     0.38617
      H   25    0.24265      0.00000     0.25393    0.00342     0.25735
 =======================================================================
   * Total *   -0.00000     14.99241    37.84050    0.16709    53.00000

 Normal termination of Gaussian 16 at Thu Dec 10 17:58:47 2020.
