 Gaussian 16, Revision A.03,

 -----------------------------------------------------------
 # opt freq B3LYP/6-31G(d) empiricaldispersion=gd3bj scf=xqc
 -----------------------------------------------------------

 ------------------------------
 CID_5346030_JID_10322_neutraal
 ------------------------------
 Symbolic Z-matrix:
 Charge =  0 Multiplicity = 1

 SCF Done:  E(RB3LYP) =  -883.146767335     A.U. after   15 cycles
 SCF Done:  E(RB3LYP) =  -883.150568637     A.U. after   13 cycles
 SCF Done:  E(RB3LYP) =  -883.151426908     A.U. after   13 cycles
 SCF Done:  E(RB3LYP) =  -883.152492740     A.U. after   12 cycles
 SCF Done:  E(RB3LYP) =  -883.152971950     A.U. after   12 cycles
 SCF Done:  E(RB3LYP) =  -883.152962984     A.U. after   13 cycles
 SCF Done:  E(RB3LYP) =  -883.153239893     A.U. after   12 cycles
 SCF Done:  E(RB3LYP) =  -883.153315456     A.U. after   11 cycles
 SCF Done:  E(RB3LYP) =  -883.153332012     A.U. after   11 cycles
 SCF Done:  E(RB3LYP) =  -883.153337459     A.U. after   10 cycles
 SCF Done:  E(RB3LYP) =  -883.153338131     A.U. after    8 cycles
 SCF Done:  E(RB3LYP) =  -883.153338295     A.U. after    7 cycles
 SCF Done:  E(RB3LYP) =  -883.153338310     A.U. after    7 cycles
 Optimization completed.
    -- Stationary point found.
 Normal termination of Gaussian 16 at Sun Dec 13 20:41:14 2020.

 --------------------------------------------------------------------
 #N Geom=AllCheck Guess=TCheck SCRF=Check GenChk RB3LYP/6-31G(d) Freq
 --------------------------------------------------------------------

 Structure from the checkpoint file:  "JID_10322.chk"
 ------------------------------
 CID_5346030_JID_10322_neutraal
 ------------------------------
 Charge =  0 Multiplicity = 1

 SCF Done:  E(RB3LYP) =  -883.153338310     A.U. after    1 cycles

  Exact polarizability: 298.807   4.170 214.394  19.175  -0.452 101.541
 Approx polarizability: 394.656  18.184 375.734  41.464  -2.140 166.141

                      1                      2                      3
                      A                      A                      A
 Frequencies --     15.2651                31.0643                41.6845
 Red. masses --      4.8543                 5.3129                 3.6490
 Frc consts  --      0.0007                 0.0030                 0.0037
 IR Inten    --      0.9635                 0.4544                 0.4351

                      4                      5                      6
                      A                      A                      A
 Frequencies --     65.9597                84.3153               101.2550
 Red. masses --      3.8941                 3.5186                 5.2499
 Frc consts  --      0.0100                 0.0147                 0.0317
 IR Inten    --      0.6445                 1.9081                 3.0273

                      7                      8                      9
                      A                      A                      A
 Frequencies --    125.1968               142.7426               154.1792
 Red. masses --      4.4164                 4.3259                 3.4013
 Frc consts  --      0.0408                 0.0519                 0.0476
 IR Inten    --      6.5266                 5.6305                 1.8333

                     10                     11                     12
                      A                      A                      A
 Frequencies --    185.0657               213.0313               241.9838
 Red. masses --      4.8503                 1.9106                 1.3665
 Frc consts  --      0.0979                 0.0511                 0.0471
 IR Inten    --      0.2863                 0.3924                 0.2259

                     13                     14                     15
                      A                      A                      A
 Frequencies --    247.9799               269.4640               281.1667
 Red. masses --      4.1621                 3.3243                 1.5501
 Frc consts  --      0.1508                 0.1422                 0.0722
 IR Inten    --      2.6246                 7.3377                 0.6251

                     16                     17                     18
                      A                      A                      A
 Frequencies --    291.4821               306.5946               329.4269
 Red. masses --      2.7027                 4.0346                 4.5935
 Frc consts  --      0.1353                 0.2235                 0.2937
 IR Inten    --      1.9435                 0.9332                 0.3794

                     19                     20                     21
                      A                      A                      A
 Frequencies --    364.5255               431.5918               459.1779
 Red. masses --      5.4076                 3.2253                 3.2886
 Frc consts  --      0.4234                 0.3540                 0.4085
 IR Inten    --      4.0100                 0.0786                 1.4416

                     22                     23                     24
                      A                      A                      A
 Frequencies --    469.6732               491.6169               513.3487
 Red. masses --      4.8210                 4.6568                 4.0275
 Frc consts  --      0.6266                 0.6631                 0.6253
 IR Inten    --      0.7425                 1.6989                 3.1061

                     25                     26                     27
                      A                      A                      A
 Frequencies --    539.9037               573.6565               586.8680
 Red. masses --      3.7874                 4.7581                 4.1121
 Frc consts  --      0.6505                 0.9225                 0.8344
 IR Inten    --      6.5988                27.8436                22.2587

                     28                     29                     30
                      A                      A                      A
 Frequencies --    604.9096               641.2765               664.0049
 Red. masses --      4.7157                 6.5785                 6.0711
 Frc consts  --      1.0167                 1.5939                 1.5771
 IR Inten    --     24.1405                 0.8368                 5.5324

                     31                     32                     33
                      A                      A                      A
 Frequencies --    682.2082               705.7468               716.0592
 Red. masses --      2.9306                 2.9970                 3.9668
 Frc consts  --      0.8036                 0.8795                 1.1984
 IR Inten    --     10.6702                 3.5444                 4.6582

                     34                     35                     36
                      A                      A                      A
 Frequencies --    755.5943               786.6346               793.5597
 Red. masses --      4.0655                 2.2439                 2.5728
 Frc consts  --      1.3676                 0.8181                 0.9546
 IR Inten    --     13.8457                15.6643                34.7055

                     37                     38                     39
                      A                      A                      A
 Frequencies --    830.0652               836.1061               859.3181
 Red. masses --      1.3012                 4.9132                 1.6097
 Frc consts  --      0.5282                 2.0237                 0.7003
 IR Inten    --      8.8063                12.8285                48.0372

                     40                     41                     42
                      A                      A                      A
 Frequencies --    878.1257               882.5787               911.5983
 Red. masses --      1.4689                 1.6856                 1.9846
 Frc consts  --      0.6673                 0.7736                 0.9717
 IR Inten    --      2.9962                17.1896                 9.2575

                     43                     44                     45
                      A                      A                      A
 Frequencies --    948.1370               964.7062               966.8560
 Red. masses --      3.5946                 1.2756                 1.2833
 Frc consts  --      1.9039                 0.6995                 0.7068
 IR Inten    --      3.5900                 0.5482                 2.9602

                     46                     47                     48
                      A                      A                      A
 Frequencies --    984.2728              1015.2824              1031.3859
 Red. masses --      1.3104                 5.9764                 2.8078
 Frc consts  --      0.7480                 3.6296                 1.7598
 IR Inten    --      2.5100                 1.3967                 9.5342

                     49                     50                     51
                      A                      A                      A
 Frequencies --   1034.2890              1076.7689              1093.4502
 Red. masses --      1.1516                 7.1473                 3.6835
 Frc consts  --      0.7258                 4.8825                 2.5948
 IR Inten    --     38.7043                51.8336                42.1033

                     52                     53                     54
                      A                      A                      A
 Frequencies --   1109.9580              1132.4966              1146.8612
 Red. masses --      3.2477                 1.6364                 1.3005
 Frc consts  --      2.3574                 1.2365                 1.0078
 IR Inten    --     84.5836                 6.9280                12.1080

                     55                     56                     57
                      A                      A                      A
 Frequencies --   1185.9042              1186.4430              1198.4642
 Red. masses --      1.2713                 1.2712                 1.4415
 Frc consts  --      1.0534                 1.0543                 1.2199
 IR Inten    --      0.6901                 0.7940                30.4149

                     58                     59                     60
                      A                      A                      A
 Frequencies --   1209.7056              1214.5192              1219.7905
 Red. masses --      1.1927                 1.2801                 1.3769
 Frc consts  --      1.0284                 1.1125                 1.2071
 IR Inten    --    135.7796                 5.1464                15.5675

                     61                     62                     63
                      A                      A                      A
 Frequencies --   1229.8963              1286.2019              1306.8034
 Red. masses --      1.4673                 1.8963                 4.4474
 Frc consts  --      1.3077                 1.8483                 4.4749
 IR Inten    --      7.4446               224.2893               357.2193

                     64                     65                     66
                      A                      A                      A
 Frequencies --   1320.6547              1322.6203              1338.1239
 Red. masses --      2.2687                 4.6417                 1.7901
 Frc consts  --      2.3313                 4.7841                 1.8885
 IR Inten    --    336.3656               136.2097                53.7188

                     67                     68                     69
                      A                      A                      A
 Frequencies --   1342.2157              1367.6696              1373.3988
 Red. masses --      1.3231                 1.3748                 6.5446
 Frc consts  --      1.4044                 1.5152                 7.2732
 IR Inten    --     16.6518                 6.9635                23.1069

                     70                     71                     72
                      A                      A                      A
 Frequencies --   1386.7465              1467.5770              1485.1798
 Red. masses --      4.1785                 3.2037                 2.5176
 Frc consts  --      4.7343                 4.0654                 3.2719
 IR Inten    --     18.4954                27.9027                41.8471

                     73                     74                     75
                      A                      A                      A
 Frequencies --   1499.8692              1502.6695              1521.2795
 Red. masses --      1.2007                 1.3500                 1.0476
 Frc consts  --      1.5915                 1.7960                 1.4285
 IR Inten    --     12.0411                 2.0948                 5.5781

                     76                     77                     78
                      A                      A                      A
 Frequencies --   1521.8434              1534.7121              1536.2582
 Red. masses --      1.0476                 1.0630                 1.0628
 Frc consts  --      1.4295                 1.4752                 1.4778
 IR Inten    --      6.0353                34.4596                34.9917

                     79                     80                     81
                      A                      A                      A
 Frequencies --   1546.0041              1562.9292              1624.3549
 Red. masses --      2.4055                 2.5182                 6.6097
 Frc consts  --      3.3875                 3.6243                10.2752
 IR Inten    --     30.8140                31.8368                44.7756

                     82                     83                     84
                      A                      A                      A
 Frequencies --   1638.5507              1666.5581              1668.4593
 Red. masses --      5.1137                 5.9075                 5.8031
 Frc consts  --      8.0892                 9.6671                 9.5180
 IR Inten    --    108.7554               135.9998               163.3458

                     85                     86                     87
                      A                      A                      A
 Frequencies --   1696.0548              1724.6540              3026.8427
 Red. masses --      5.5858                11.0888                 1.0348
 Frc consts  --      9.4671                19.4330                 5.5859
 IR Inten    --     55.9683               245.3334                59.5402

                     88                     89                     90
                      A                      A                      A
 Frequencies --   3030.7585              3085.9395              3091.5624
 Red. masses --      1.0345                 1.1067                 1.1069
 Frc consts  --      5.5988                 6.2094                 6.2330
 IR Inten    --     52.1169                42.3183                39.2421

                     91                     92                     93
                      A                      A                      A
 Frequencies --   3161.5401              3164.0731              3180.2819
 Red. masses --      1.0998                 1.1002                 1.0898
 Frc consts  --      6.4766                 6.4895                 6.4943
 IR Inten    --     25.8732                27.7052                 6.1881

                     94                     95                     96
                      A                      A                      A
 Frequencies --   3192.3120              3195.8625              3205.4092
 Red. masses --      1.0874                 1.0884                 1.0903
 Frc consts  --      6.5290                 6.5494                 6.6002
 IR Inten    --     24.8168                 0.7793                 5.2310

                     97                     98                     99
                      A                      A                      A
 Frequencies --   3211.9476              3214.8011              3220.7555
 Red. masses --      1.0880                 1.0878                 1.0916
 Frc consts  --      6.6135                 6.6240                 6.6714
 IR Inten    --      7.3517                 2.2966                11.7337

                    100                    101                    102
                      A                      A                      A
 Frequencies --   3228.1346              3232.8531              3233.3380
 Red. masses --      1.0941                 1.0927                 1.0920
 Frc consts  --      6.7174                 6.7284                 6.7265
 IR Inten    --      7.1333                 9.0571                11.8060

 - Thermochemistry -
 -------------------
 Temperature   298.150 Kelvin.  Pressure   1.00000 Atm.
 Atom     1 has atomic number  6 and mass  12.00000

 Molecular mass:   268.10994 amu.
 Principal axes and moments of inertia in atomic units:
                           1         2         3
     Eigenvalues --  3220.38122********************
           X            0.99999  -0.00517  -0.00130
           Y            0.00517   0.99998   0.00388
           Z            0.00128  -0.00389   0.99999
 This molecule is an asymmetric top.
 Rotational symmetry number  1.
 Warning -- assumption of classical behavior for rotation
           may cause significant error
 Rotational temperatures (Kelvin)      0.02690     0.00641     0.00535
 Rotational constants (GHZ):           0.56041     0.13366     0.11138
 Zero-point vibrational energy     765448.5 (Joules/Mol)
                                  182.94658 (Kcal/Mol)
 Warning -- explicit consideration of  28 degrees of freedom as
           vibrations may cause significant error
 Vibrational temperatures:     21.96    44.69    59.97    94.90   121.31
          (Kelvin)            145.68   180.13   205.37   221.83   266.27
                              306.50   348.16   356.79   387.70   404.54
                              419.38   441.12   473.97   524.47   620.96
                              660.65   675.75   707.33   738.59   776.80
                              825.36   844.37   870.33   922.65   955.36
                              981.55  1015.41  1030.25  1087.13  1131.79
                             1141.76  1194.28  1202.97  1236.37  1263.43
                             1269.83  1311.59  1364.16  1388.00  1391.09
                             1416.15  1460.76  1483.93  1488.11  1549.23
                             1573.23  1596.98  1629.41  1650.08  1706.25
                             1707.03  1724.32  1740.50  1747.42  1755.01
                             1769.55  1850.56  1880.20  1900.13  1902.96
                             1925.26  1931.15  1967.77  1976.01  1995.22
                             2111.52  2136.84  2157.98  2162.01  2188.78
                             2189.59  2208.11  2210.33  2224.36  2248.71
                             2337.08  2357.51  2397.81  2400.54  2440.24
                             2481.39  4354.95  4360.59  4439.98  4448.07
                             4548.75  4552.40  4575.72  4593.02  4598.13
                             4611.87  4621.28  4625.38  4633.95  4644.57
                             4651.35  4652.05

 Zero-point correction=                           0.291544 (Hartree/Particle)
 Thermal correction to Energy=                    0.309683
 Thermal correction to Enthalpy=                  0.310627
 Thermal correction to Gibbs Free Energy=         0.243023
 Sum of electronic and zero-point Energies=           -882.861794
 Sum of electronic and thermal Energies=              -882.843655
 Sum of electronic and thermal Enthalpies=            -882.842711
 Sum of electronic and thermal Free Energies=         -882.910315

                     E (Thermal)             CV                S
                      KCal/Mol        Cal/Mol-Kelvin    Cal/Mol-Kelvin
 Total                  194.329             68.865            142.286
 Electronic               0.000              0.000              0.000
 Translational            0.889              2.981             42.658
 Rotational               0.889              2.981             34.909
 Vibrational            192.552             62.904             64.719
 Vibration     1          0.593              1.986              7.171
 Vibration     2          0.594              1.983              5.760
 Vibration     3          0.594              1.981              5.177
 Vibration     4          0.597              1.971              4.270
 Vibration     5          0.601              1.960              3.788
 Vibration     6          0.604              1.948              3.430
 Vibration     7          0.610              1.928              3.019
 Vibration     8          0.616              1.910              2.767
 Vibration     9          0.620              1.898              2.620
 Vibration    10          0.631              1.860              2.277
 Vibration    11          0.644              1.821              2.018
 Vibration    12          0.658              1.776              1.788
 Vibration    13          0.662              1.766              1.745
 Vibration    14          0.674              1.729              1.600
 Vibration    15          0.681              1.708              1.527
 Vibration    16          0.687              1.690              1.465
 Vibration    17          0.697              1.661              1.381
 Vibration    18          0.712              1.617              1.263
 Vibration    19          0.738              1.545              1.103
 Vibration    20          0.793              1.401              0.853
 Vibration    21          0.817              1.341              0.769
 Vibration    22          0.827              1.317              0.738
 Vibration    23          0.847              1.269              0.679
 Vibration    24          0.868              1.220              0.626
 Vibration    25          0.895              1.162              0.565
 Vibration    26          0.930              1.088              0.497
 Vibration    27          0.944              1.060              0.473
 Vibration    28          0.963              1.021              0.441

 Optimization completed.
    -- Stationary point found.
 Normal termination of Gaussian 16 at Sun Dec 13 20:54:33 2020.

 ----------------------------------------------------------------------
 # B3LYP/6-311++G(d,p) empiricaldispersion=gd3bj scf=xqc pop=npa geom=c
 heck
 ----------------------------------------------------------------------

 --------------------------------------
 CID_5346030_JID_10322_Energie_neutraal
 --------------------------------------
 Structure from the checkpoint file:  "JID_10322.chk"
 Charge =  0 Multiplicity = 1

 SCF Done:  E(RB3LYP) =  -883.391408441     A.U. after   17 cycles
 Normal termination of Gaussian 16 at Sun Dec 13 21:00:32 2020.

 ----------------------------------------------------------------------
 # B3LYP/6-311++G(d,p) empiricaldispersion=gd3bj scf=xqc pop=npa geom=c
 heck
 ----------------------------------------------------------------------

 ------------------------------------
 CID_5346030_JID_10322_Energie_kation
 ------------------------------------
 Structure from the checkpoint file:  "JID_10322.chk"
 Charge =  1 Multiplicity = 2

 SCF Done:  E(UB3LYP) =  -883.105212207     A.U. after   28 cycles
 Normal termination of Gaussian 16 at Sun Dec 13 21:14:28 2020.
 Gaussian 16:  ES64L-G16RevA.03 25-Dec-2016

 ----------------------------------------------------------------------
 # B3LYP/6-311++G(d,p) empiricaldispersion=gd3bj scf=xqc pop=npa geom=c
 heck
 ----------------------------------------------------------------------

 -----------------------------------
 CID_5346030_JID_10322_Energie_anion
 -----------------------------------
 Structure from the checkpoint file:  "JID_10322.chk"
 Charge = -1 Multiplicity = 2

                         Standard orientation:
 ---------------------------------------------------------------------
 Center     Atomic      Atomic             Coordinates (Angstroms)
 Number     Number       Type             X           Y           Z
 ---------------------------------------------------------------------
      1          6           0       -5.121006    3.004728    0.604525
      2          8           0       -5.246895    1.811982   -0.154617
      3          6           0       -4.249172    0.891930   -0.073418
      4          6           0       -4.429057   -0.269813   -0.843732
      5          6           0       -3.471168   -1.266838   -0.825530
      6          6           0       -2.295302   -1.128393   -0.065124
      7          6           0       -2.134746    0.027114    0.707915
      8          6           0       -3.100472    1.033927    0.713791
      9          6           0       -1.323257   -2.260279   -0.064947
     10          8           0       -1.700174   -3.405155   -0.309533
     11          6           0        0.114972   -2.026328    0.206854
     12          6           0        0.780647   -0.887984   -0.067693
     13          6           0        2.219401   -0.653648    0.074802
     14          6           0        2.724747    0.596128   -0.298891
     15          6           0        4.088244    0.890529   -0.183598
     16          6           0        4.966838   -0.076292    0.313797
     17          6           0        4.461402   -1.327182    0.688654
     18          6           0        3.111571   -1.623253    0.576001
     19          8           0        4.455569    2.142605   -0.580786
     20          6           0        5.827451    2.490587   -0.491912
     21          1           0       -6.014266    3.592423    0.388012
     22          1           0       -4.229568    3.573901    0.311288
     23          1           0       -5.076306    2.792210    1.680329
     24          1           0       -5.332156   -0.359817   -1.438564
     25          1           0       -3.607367   -2.176901   -1.399965
     26          1           0       -1.260868    0.135348    1.341005
     27          1           0       -2.952890    1.909400    1.334546
     28          1           0        0.639493   -2.921634    0.530205
     29          1           0        0.217716   -0.043547   -0.458745
     30          1           0        2.064690    1.364869   -0.689325
     31          1           0        6.026411    0.126030    0.412815
     32          1           0        5.146247   -2.076873    1.074743
     33          1           0        2.746583   -2.599961    0.873674
     34          1           0        6.187339    2.447170    0.544481
     35          1           0        6.449576    1.836285   -1.116569
     36          1           0        5.900806    3.516041   -0.857407
 ---------------------------------------------------------------------

 SCF Done:  E(UB3LYP) =  -883.418311075     A.U. after   24 cycles

 The electronic state is 2-A.
 Alpha  occ. eigenvalues --  -19.06041 -19.05236 -18.92456 -10.14462 -10.13843
 Alpha  occ. eigenvalues --  -10.12339 -10.11480 -10.07659 -10.06405 -10.05948
 Alpha  occ. eigenvalues --  -10.05816 -10.05800 -10.05327 -10.04985 -10.04847
 Alpha  occ. eigenvalues --  -10.04669 -10.04035 -10.03898 -10.02012 -10.01366
 Alpha  occ. eigenvalues --   -0.97797  -0.96862  -0.86480  -0.74110  -0.73500
 Alpha  occ. eigenvalues --   -0.66540  -0.65663  -0.64903  -0.63681  -0.61286
 Alpha  occ. eigenvalues --   -0.59367  -0.59035  -0.51459  -0.50257  -0.48970
 Alpha  occ. eigenvalues --   -0.48806  -0.45433  -0.43727  -0.41891  -0.40110
 Alpha  occ. eigenvalues --   -0.38668  -0.38615  -0.37923  -0.37853  -0.37094
 Alpha  occ. eigenvalues --   -0.34439  -0.33507  -0.32882  -0.32293  -0.31186
 Alpha  occ. eigenvalues --   -0.30628  -0.29979  -0.28351  -0.27504  -0.27401
 Alpha  occ. eigenvalues --   -0.26940  -0.26332  -0.24958  -0.24399  -0.23929
 Alpha  occ. eigenvalues --   -0.22566  -0.22420  -0.22117  -0.21225  -0.20275
 Alpha  occ. eigenvalues --   -0.16872  -0.14611  -0.11709  -0.11606  -0.10008
 Alpha  occ. eigenvalues --   -0.08981   0.02611
 Alpha virt. eigenvalues --    0.06078   0.06201   0.08403   0.08759   0.09123
 Alpha virt. eigenvalues --    0.09385   0.09680   0.09914   0.10167   0.10223
 Alpha virt. eigenvalues --    0.10797   0.11216   0.11690   0.11893   0.12416

  Beta  occ. eigenvalues --  -19.06011 -19.05234 -18.91900 -10.14464 -10.13843
  Beta  occ. eigenvalues --  -10.12228 -10.11516 -10.07445 -10.06433 -10.05986
  Beta  occ. eigenvalues --  -10.05848 -10.05759 -10.05243 -10.04941 -10.04687
  Beta  occ. eigenvalues --  -10.04668 -10.03940 -10.03752 -10.01732 -10.01262
  Beta  occ. eigenvalues --   -0.97724  -0.96859  -0.85511  -0.74006  -0.73289
  Beta  occ. eigenvalues --   -0.66256  -0.65467  -0.64727  -0.63591  -0.61022
  Beta  occ. eigenvalues --   -0.59222  -0.58822  -0.50863  -0.50176  -0.48801
  Beta  occ. eigenvalues --   -0.48701  -0.45165  -0.43679  -0.41635  -0.39878
  Beta  occ. eigenvalues --   -0.38588  -0.38570  -0.37907  -0.37784  -0.36967
  Beta  occ. eigenvalues --   -0.34347  -0.33342  -0.32764  -0.32220  -0.31150
  Beta  occ. eigenvalues --   -0.30501  -0.29749  -0.28089  -0.27354  -0.27082
  Beta  occ. eigenvalues --   -0.26770  -0.26105  -0.24700  -0.23784  -0.23329
  Beta  occ. eigenvalues --   -0.22380  -0.22216  -0.21813  -0.20819  -0.19345
  Beta  occ. eigenvalues --   -0.15608  -0.14404  -0.11096  -0.10953  -0.09061
  Beta  occ. eigenvalues --   -0.07890
  Beta virt. eigenvalues --    0.06073   0.06188   0.08027   0.08385   0.08757
  Beta virt. eigenvalues --    0.09364   0.09672   0.09857   0.10063   0.10166
  Beta virt. eigenvalues --    0.10648   0.11013   0.11211   0.11690   0.11901

 Mulliken charges and spin densities:
               1          2
     1  C   -0.307880  -0.001057
     2  O   -0.163379   0.004734
     3  C   -0.548781   0.069435
     4  C   -0.471417  -0.028925
     5  C    0.233337   0.079656
     6  C    1.227111   0.021587
     7  C   -0.793694   0.012968
     8  C    0.237992  -0.026457
     9  C   -1.007167   0.162567
    10  O   -0.361701   0.197041
    11  C   -0.201261   0.043181
    12  C    0.144870   0.203418
    13  C    1.457476   0.010279
    14  C   -0.425875   0.126136
    15  C   -0.260277  -0.026023
    16  C    0.209405   0.146497
    17  C   -0.572169  -0.027147
    18  C   -1.166139   0.076678
    19  O   -0.161624   0.001494
    20  C   -0.300993   0.001262
    21  H    0.153068  -0.000057
    22  H    0.143315   0.002032
    23  H    0.141620   0.000693
    24  H    0.152390   0.001935
    25  H    0.195001  -0.006418
    26  H    0.178158  -0.006631
    27  H    0.152812   0.002342
    28  H    0.188643  -0.000524
    29  H    0.059628  -0.018938
    30  H    0.150686  -0.005950
    31  H    0.118615  -0.011288
    32  H    0.145808   0.002502
    33  H    0.028643  -0.006450
    34  H    0.136172  -0.000376
    35  H    0.137015  -0.000166
    36  H    0.150590  -0.000029
 Sum of Mulliken charges =  -1.00000   1.00000

 Dipole moment (field-independent basis, Debye):
    X=              1.5728    Y=              8.4429    Z=              1.3345  Tot=              8.6912
 Quadrupole moment (field-independent basis, Debye-Ang):
   XX=           -159.0964   YY=           -147.7359   ZZ=           -127.0218
   XY=            -12.1081   XZ=             -3.2286   YZ=              0.4771

 Summary of Natural Population Analysis:

                                       Natural Population
                Natural  -----------------------------------------------
    Atom  No    Charge         Core      Valence    Rydberg      Total
 -----------------------------------------------------------------------
      C    1   -0.10091      0.99961     2.09311    0.00819     3.10091
      O    2   -0.27444      0.99985     3.26469    0.00990     4.27444
      C    3    0.17399      0.99940     1.81500    0.01161     2.82601
      C    4   -0.13786      0.99953     2.12952    0.00881     3.13786
      C    5   -0.05855      0.99954     2.04985    0.00915     3.05855
      C    6   -0.06653      0.99948     2.05716    0.00990     3.06653
      C    7   -0.07146      0.99955     2.06357    0.00834     3.07146
      C    8   -0.16256      0.99953     2.15533    0.00771     3.16256
      C    9    0.26798      0.99959     1.71189    0.02053     2.73202
      O   10   -0.24673      0.99988     3.24023    0.00661     4.24673
      C   11   -0.10218      0.99951     2.09375    0.00891     3.10218
      C   12   -0.04314      0.99954     2.03500    0.00860     3.04314
      C   13   -0.00986      0.99940     2.00138    0.00909     3.00986
      C   14   -0.08633      0.99951     2.07783    0.00898     3.08633
      C   15    0.14729      0.99939     1.84178    0.01155     2.85271
      C   16   -0.12759      0.99953     2.11946    0.00860     3.12759
      C   17   -0.10914      0.99959     2.10024    0.00931     3.10914
      C   18   -0.09003      0.99955     2.08165    0.00883     3.09003
      O   19   -0.27724      0.99985     3.26776    0.00962     4.27724
      C   20   -0.10004      0.99961     2.09217    0.00826     3.10004
      H   21    0.08824      0.00000     0.41097    0.00079     0.41176
      H   22    0.08257      0.00000     0.41590    0.00153     0.41743
      H   23    0.08166      0.00000     0.41681    0.00153     0.41834
      H   24    0.09978      0.00000     0.39919    0.00103     0.40022
      H   25    0.10856      0.00000     0.39012    0.00133     0.39144
      H   26    0.10652      0.00000     0.39206    0.00142     0.39348
      H   27    0.09791      0.00000     0.40100    0.00109     0.40209
      H   28    0.09204      0.00000     0.40609    0.00187     0.40796
      H   29    0.08897      0.00000     0.40946    0.00157     0.41103
      H   30    0.09800      0.00000     0.40056    0.00145     0.40200
      H   31    0.09313      0.00000     0.40575    0.00112     0.40687
      H   32    0.09187      0.00000     0.40707    0.00106     0.40813
      H   33    0.09743      0.00000     0.40123    0.00134     0.40257
      H   34    0.08045      0.00000     0.41791    0.00164     0.41955
      H   35    0.08073      0.00000     0.41763    0.00165     0.41927
      H   36    0.08747      0.00000     0.41173    0.00080     0.41253
 =======================================================================
   * Total *    0.00000     19.99144    50.79483    0.21373    71.00000

 Normal termination of Gaussian 16 at Sun Dec 13 21:26:24 2020.
