 Gaussian 16, Revision A.03,

 -----------------------------------------------------------
 # opt freq B3LYP/6-31G(d) empiricaldispersion=gd3bj scf=xqc
 -----------------------------------------------------------

 -------------------------------
 CID_131132083_JID_2057_neutraal
 -------------------------------
 Symbolic Z-matrix:
 Charge =  0 Multiplicity = 1

 SCF Done:  E(RB3LYP) =  -520.012128909     A.U. after   15 cycles
 SCF Done:  E(RB3LYP) =  -520.030912061     A.U. after   13 cycles
 SCF Done:  E(RB3LYP) =  -520.032272043     A.U. after   13 cycles
 SCF Done:  E(RB3LYP) =  -520.032408704     A.U. after   13 cycles
 SCF Done:  E(RB3LYP) =  -520.032404235     A.U. after   12 cycles
 SCF Done:  E(RB3LYP) =  -520.031665012     A.U. after   13 cycles
 SCF Done:  E(RB3LYP) =  -520.031254324     A.U. after   12 cycles
 SCF Done:  E(RB3LYP) =  -520.032675803     A.U. after    9 cycles
 SCF Done:  E(RB3LYP) =  -520.033040061     A.U. after   12 cycles
 SCF Done:  E(RB3LYP) =  -520.032575343     A.U. after   12 cycles
 SCF Done:  E(RB3LYP) =  -520.034371709     A.U. after   11 cycles
 SCF Done:  E(RB3LYP) =  -520.034375028     A.U. after    9 cycles
 SCF Done:  E(RB3LYP) =  -520.034376385     A.U. after    8 cycles
 SCF Done:  E(RB3LYP) =  -520.034376611     A.U. after    8 cycles
 SCF Done:  E(RB3LYP) =  -520.034376637     A.U. after    7 cycles
 Optimization completed.
    -- Stationary point found.
 Normal termination of Gaussian 16 at Wed Dec  9 16:56:29 2020.

 --------------------------------------------------------------------
 #N Geom=AllCheck Guess=TCheck SCRF=Check GenChk RB3LYP/6-31G(d) Freq
 --------------------------------------------------------------------

 Structure from the checkpoint file:  "JID_2057.chk"
 -------------------------------
 CID_131132083_JID_2057_neutraal
 -------------------------------
 Charge =  0 Multiplicity = 1

 SCF Done:  E(RB3LYP) =  -520.034376638     A.U. after    1 cycles

  Exact polarizability: 116.682  -0.256 115.141  -3.709  -4.320  96.509
 Approx polarizability: 147.654  -2.182 171.765 -10.847  -6.308 157.477

                      1                      2                      3
                      A                      A                      A
 Frequencies --     25.7863                48.8711                79.3339
 Red. masses --      3.4884                 4.1358                 3.1212
 Frc consts  --      0.0014                 0.0058                 0.0116
 IR Inten    --      0.2206                 1.0347                 3.0685

                      4                      5                      6
                      A                      A                      A
 Frequencies --    118.8340               150.7256               170.2247
 Red. masses --      4.7753                 1.8249                 1.6674
 Frc consts  --      0.0397                 0.0244                 0.0285
 IR Inten    --      0.5054                 1.1395                 0.4590

                      7                      8                      9
                      A                      A                      A
 Frequencies --    182.9899               188.1051               199.5746
 Red. masses --      1.4415                 1.9782                 1.7623
 Frc consts  --      0.0284                 0.0412                 0.0414
 IR Inten    --      0.4334                 1.9294                 0.7472

                     10                     11                     12
                      A                      A                      A
 Frequencies --    211.9056               220.2777               246.9464
 Red. masses --      1.8437                 1.3915                 1.3599
 Frc consts  --      0.0488                 0.0398                 0.0489
 IR Inten    --      0.6118                 0.2296                 0.6898

                     13                     14                     15
                      A                      A                      A
 Frequencies --    278.1033               293.5354               306.9445
 Red. masses --      2.2204                 2.9062                 4.4559
 Frc consts  --      0.1012                 0.1475                 0.2473
 IR Inten    --      1.4637                 1.8771                10.7557

                     16                     17                     18
                      A                      A                      A
 Frequencies --    381.3513               399.2939               464.9942
 Red. masses --      3.5952                 3.0585                 4.1627
 Frc consts  --      0.3081                 0.2873                 0.5303
 IR Inten    --      2.4175                 3.2930                 4.2811

                     19                     20                     21
                      A                      A                      A
 Frequencies --    524.5451               545.4562               585.8969
 Red. masses --      4.0396                 4.4548                 4.0146
 Frc consts  --      0.6549                 0.7809                 0.8120
 IR Inten    --      7.9908                 4.1196                12.5503

                     22                     23                     24
                      A                      A                      A
 Frequencies --    598.4648               623.9720               643.9171
 Red. masses --      1.3424                 3.0000                 1.2519
 Frc consts  --      0.2833                 0.6882                 0.3058
 IR Inten    --     43.6959                 1.4093                45.9104

                     25                     26                     27
                      A                      A                      A
 Frequencies --    708.3481               761.2040               834.8640
 Red. masses --      4.5736                 5.8181                 2.2782
 Frc consts  --      1.3521                 1.9862                 0.9356
 IR Inten    --      5.0383                21.0042                 1.4085

                     28                     29                     30
                      A                      A                      A
 Frequencies --    856.3067               905.4271               953.0372
 Red. masses --      1.2453                 1.9827                 1.7912
 Frc consts  --      0.5380                 0.9577                 0.9585
 IR Inten    --      5.2042                 6.3828                 2.5470

                     31                     32                     33
                      A                      A                      A
 Frequencies --   1055.7455              1071.1146              1078.4376
 Red. masses --      2.4173                 1.3934                 1.5241
 Frc consts  --      1.5875                 0.9419                 1.0444
 IR Inten    --     18.0822                17.1590                 5.4690

                     34                     35                     36
                      A                      A                      A
 Frequencies --   1085.2780              1092.5739              1105.8519
 Red. masses --      1.5123                 2.3416                 2.6724
 Frc consts  --      1.0495                 1.6469                 1.9255
 IR Inten    --      6.0078                28.2081                 1.9849

                     37                     38                     39
                      A                      A                      A
 Frequencies --   1138.9355              1156.4633              1167.4323
 Red. masses --      1.8496                 1.7350                 1.3752
 Frc consts  --      1.4136                 1.3671                 1.1043
 IR Inten    --     78.3965                11.0419                 7.4695

                     40                     41                     42
                      A                      A                      A
 Frequencies --   1238.9282              1247.2554              1344.3028
 Red. masses --      3.5478                 2.8354                 1.6718
 Frc consts  --      3.2085                 2.5988                 1.7800
 IR Inten    --     20.8263                11.4897                95.6373

                     43                     44                     45
                      A                      A                      A
 Frequencies --   1352.6149              1401.6283              1421.9440
 Red. masses --      1.3673                 1.5807                 1.2299
 Frc consts  --      1.4739                 1.8296                 1.4652
 IR Inten    --     16.0091                30.8587                15.3684

                     46                     47                     48
                      A                      A                      A
 Frequencies --   1432.9365              1445.9682              1457.5349
 Red. masses --      1.2488                 1.2488                 1.5603
 Frc consts  --      1.5108                 1.5384                 1.9529
 IR Inten    --      3.0787                 0.7168                49.9500

                     49                     50                     51
                      A                      A                      A
 Frequencies --   1499.7509              1505.3814              1511.5296
 Red. masses --      1.3605                 1.0508                 1.0524
 Frc consts  --      1.8029                 1.4031                 1.4167
 IR Inten    --     32.4451                13.0463                 6.0404

                     52                     53                     54
                      A                      A                      A
 Frequencies --   1515.7890              1519.8798              1524.3377
 Red. masses --      1.0644                 1.0666                 1.0499
 Frc consts  --      1.4409                 1.4516                 1.4374
 IR Inten    --      8.0235                 2.9036                14.6193

                     55                     56                     57
                      A                      A                      A
 Frequencies --   1530.1463              1541.4304              1550.5074
 Red. masses --      1.0575                 1.0570                 1.1510
 Frc consts  --      1.4587                 1.4797                 1.6303
 IR Inten    --     12.8236                 4.4217                33.4258

                     58                     59                     60
                      A                      A                      A
 Frequencies --   1734.2700              1747.3262              2244.1147
 Red. masses --      8.4998                 8.1998                 5.9563
 Frc consts  --     15.0623                14.7503                17.6733
 IR Inten    --    149.4207                90.0469                 0.2219

                     61                     62                     63
                      A                      A                      A
 Frequencies --   3031.8633              3034.2782              3038.4966
 Red. masses --      1.0426                 1.0425                 1.0410
 Frc consts  --      5.6468                 5.6551                 5.6629
 IR Inten    --     13.5534                52.3602                27.8459

                     64                     65                     66
                      A                      A                      A
 Frequencies --   3051.6242              3065.7636              3080.5710
 Red. masses --      1.0797                 1.0395                 1.1009
 Frc consts  --      5.9242                 5.7564                 6.1554
 IR Inten    --     25.0843                27.8018                44.2983

                     67                     68                     69
                      A                      A                      A
 Frequencies --   3082.7708              3099.4411              3130.9856
 Red. masses --      1.1000                 1.0936                 1.1020
 Frc consts  --      6.1590                 6.1895                 6.3648
 IR Inten    --      8.4732                15.1449                25.8216

                     70                     71                     72
                      A                      A                      A
 Frequencies --   3131.3063              3134.5888              3148.0809
 Red. masses --      1.0951                 1.1009                 1.0945
 Frc consts  --      6.3265                 6.3734                 6.3910
 IR Inten    --      6.3725                16.8451                36.5766

                     73                     74                     75
                      A                      A                      A
 Frequencies --   3187.4228              3193.6168              3497.8616
 Red. masses --      1.0950                 1.0995                 1.1607
 Frc consts  --      6.5546                 6.6072                 8.3672
 IR Inten    --      5.3766                 2.7006                52.3518

 - Thermochemistry -
 -------------------
 Temperature   298.150 Kelvin.  Pressure   1.00000 Atm.
 Atom     1 has atomic number  6 and mass  12.00000

 Molecular mass:   165.11536 amu.
 Principal axes and moments of inertia in atomic units:
                           1         2         3
     Eigenvalues --  1379.985802636.397712943.01055
           X            0.99979  -0.01944   0.00605
           Y            0.01948   0.99979  -0.00699
           Z           -0.00591   0.00711   0.99996
 This molecule is an asymmetric top.
 Rotational symmetry number  1.
 Warning -- assumption of classical behavior for rotation
           may cause significant error
 Rotational temperatures (Kelvin)      0.06276     0.03285     0.02943
 Rotational constants (GHZ):           1.30780     0.68455     0.61323
 Zero-point vibrational energy     604935.5 (Joules/Mol)
                                  144.58305 (Kcal/Mol)
 Warning -- explicit consideration of  22 degrees of freedom as
           vibrations may cause significant error
 Vibrational temperatures:     37.10    70.31   114.14   170.98   216.86
          (Kelvin)            244.92   263.28   270.64   287.14   304.88
                              316.93   355.30   400.13   422.33   441.62
                              548.68   574.49   669.02   754.70   784.79
                              842.97   861.06   897.76   926.45  1019.15
                             1095.20  1201.18  1232.03  1302.71  1371.21
                             1518.98  1541.09  1551.63  1561.47  1571.97
                             1591.07  1638.67  1663.89  1679.67  1782.54
                             1794.52  1934.15  1946.11  2016.63  2045.86
                             2061.68  2080.43  2097.07  2157.81  2165.91
                             2174.75  2180.88  2186.77  2193.18  2201.54
                             2217.77  2230.83  2495.23  2514.01  3228.78
                             4362.18  4365.65  4371.72  4390.61  4410.95
                             4432.25  4435.42  4459.40  4504.79  4505.25
                             4509.97  4529.39  4585.99  4594.90  5032.64

 Zero-point correction=                           0.230408 (Hartree/Particle)
 Thermal correction to Energy=                    0.244945
 Thermal correction to Enthalpy=                  0.245889
 Thermal correction to Gibbs Free Energy=         0.189121
 Sum of electronic and zero-point Energies=           -519.803969
 Sum of electronic and thermal Energies=              -519.789432
 Sum of electronic and thermal Enthalpies=            -519.788487
 Sum of electronic and thermal Free Energies=         -519.845256

                     E (Thermal)             CV                S
                      KCal/Mol        Cal/Mol-Kelvin    Cal/Mol-Kelvin
 Total                  153.705             52.175            119.479
 Electronic               0.000              0.000              0.000
 Translational            0.889              2.981             41.213
 Rotational               0.889              2.981             30.749
 Vibrational            151.928             46.214             47.517
 Vibration     1          0.593              1.985              6.130
 Vibration     2          0.595              1.978              4.863
 Vibration     3          0.600              1.963              3.907
 Vibration     4          0.609              1.934              3.119
 Vibration     5          0.618              1.902              2.663
 Vibration     6          0.625              1.879              2.433
 Vibration     7          0.630              1.863              2.298
 Vibration     8          0.633              1.856              2.246
 Vibration     9          0.638              1.840              2.137
 Vibration    10          0.643              1.823              2.027
 Vibration    11          0.647              1.810              1.957
 Vibration    12          0.661              1.768              1.752
 Vibration    13          0.679              1.714              1.545
 Vibration    14          0.688              1.686              1.453
 Vibration    15          0.697              1.661              1.379
 Vibration    16          0.751              1.510              1.034
 Vibration    17          0.765              1.472              0.965
 Vibration    18          0.822              1.328              0.752
 Vibration    19          0.880              1.196              0.600
 Vibration    20          0.901              1.150              0.554
 Vibration    21          0.943              1.062              0.475
 Vibration    22          0.956              1.035              0.452

                           ! Non-Optimized Parameters !
 Normal termination of Gaussian 16 at Wed Dec  9 17:02:52 2020.

 ----------------------------------------------------------------------
 # B3LYP/6-311++G(d,p) empiricaldispersion=gd3bj scf=xqc pop=npa geom=c
 heck
 ----------------------------------------------------------------------

 ---------------------------------------
 CID_131132083_JID_2057_Energie_neutraal
 ---------------------------------------
 Structure from the checkpoint file:  "JID_2057.chk"
 Charge =  0 Multiplicity = 1

 SCF Done:  E(RB3LYP) =  -520.185282513     A.U. after   16 cycles
 Normal termination of Gaussian 16 at Wed Dec  9 17:06:23 2020.

 ----------------------------------------------------------------------
 # B3LYP/6-311++G(d,p) empiricaldispersion=gd3bj scf=xqc pop=npa geom=c
 heck
 ----------------------------------------------------------------------

 -------------------------------------
 CID_131132083_JID_2057_Energie_kation
 -------------------------------------
 Structure from the checkpoint file:  "JID_2057.chk"
 Charge =  1 Multiplicity = 2

 SCF Done:  E(UB3LYP) =  -519.875055656     A.U. after   29 cycles
 Normal termination of Gaussian 16 at Wed Dec  9 17:15:14 2020.
 Gaussian 16:  ES64L-G16RevA.03 25-Dec-2016

 ----------------------------------------------------------------------
 # B3LYP/6-311++G(d,p) empiricaldispersion=gd3bj scf=xqc pop=npa geom=c
 heck
 ----------------------------------------------------------------------

 ------------------------------------
 CID_131132083_JID_2057_Energie_anion
 ------------------------------------
 Structure from the checkpoint file:  "JID_2057.chk"
 Charge = -1 Multiplicity = 2

                         Standard orientation:
 ---------------------------------------------------------------------
 Center     Atomic      Atomic             Coordinates (Angstroms)
 Number     Number       Type             X           Y           Z
 ---------------------------------------------------------------------
      1          6           0       -1.776606    2.163704    0.134736
      2          6           0       -2.458435    0.841883   -0.074458
      3          6           0       -1.867188   -0.345870   -0.262330
      4          6           0       -2.627931   -1.612630   -0.554106
      5          6           0       -0.370399   -0.482422   -0.387544
      6          8           0        0.116487   -0.827576   -1.461597
      7          7           0        0.408825   -0.218029    0.711632
      8          6           0       -0.098612    0.037260    2.050194
      9          6           0        1.877945   -0.185945    0.554502
     10          6           0        2.474378   -1.568674    0.240796
     11          6           0        2.290170    0.840583   -0.412089
     12          6           0        2.663132    1.707057   -1.164114
     13          1           0       -0.691879    2.098190    0.016245
     14          1           0       -1.991130    2.566282    1.134601
     15          1           0       -2.149672    2.902225   -0.585859
     16          1           0       -3.548722    0.871101   -0.100245
     17          1           0       -2.320685   -2.012848   -1.526487
     18          1           0       -2.415688   -2.388983    0.193290
     19          1           0       -3.707378   -1.434371   -0.567415
     20          1           0        0.109539    1.067764    2.365925
     21          1           0       -1.175414   -0.120721    2.070921
     22          1           0        0.370485   -0.647128    2.767990
     23          1           0        2.258045    0.126715    1.534587
     24          1           0        2.126470   -1.910238   -0.733265
     25          1           0        3.567203   -1.509500    0.237849
     26          1           0        2.162281   -2.283700    1.009625
     27          1           0        2.974145    2.452353   -1.859931
 ---------------------------------------------------------------------

 SCF Done:  E(UB3LYP) =  -520.172045227     A.U. after   33 cycles
 SCF Done:  E(UB3LYP) =  -520.172045227     a.u. after    1 cycles

 The electronic state is 2-A.
 Alpha  occ. eigenvalues --  -18.98451 -14.24610 -10.16956 -10.13934 -10.09612
 Alpha  occ. eigenvalues --  -10.08291 -10.07971 -10.07677 -10.06956 -10.06811
 Alpha  occ. eigenvalues --  -10.06625 -10.06452  -0.93802  -0.84034  -0.71983
 Alpha  occ. eigenvalues --   -0.69298  -0.63738  -0.63605  -0.60493  -0.56677
 Alpha  occ. eigenvalues --   -0.54853  -0.49939  -0.45609  -0.42025  -0.39013
 Alpha  occ. eigenvalues --   -0.38737  -0.36555  -0.36024  -0.34735  -0.33009
 Alpha  occ. eigenvalues --   -0.31462  -0.31171  -0.30385  -0.30232  -0.29283
 Alpha  occ. eigenvalues --   -0.28854  -0.27423  -0.27086  -0.26421  -0.25228
 Alpha  occ. eigenvalues --   -0.18989  -0.18059  -0.15869  -0.14963  -0.14163
 Alpha  occ. eigenvalues --    0.04467
 Alpha virt. eigenvalues --    0.06740   0.07261   0.07822   0.08286   0.08801
 Alpha virt. eigenvalues --    0.09417   0.10071   0.10192   0.11425   0.11549
 Alpha virt. eigenvalues --    0.11859   0.12499   0.12657   0.13022   0.13776

  Beta  occ. eigenvalues --  -18.98447 -14.24609 -10.16947 -10.13915 -10.09553
  Beta  occ. eigenvalues --  -10.08290 -10.07967 -10.07662 -10.06938 -10.06802
  Beta  occ. eigenvalues --  -10.06596 -10.06426  -0.93796  -0.84020  -0.71959
  Beta  occ. eigenvalues --   -0.69267  -0.63704  -0.63580  -0.60416  -0.56626
  Beta  occ. eigenvalues --   -0.54799  -0.49896  -0.45573  -0.41989  -0.38968
  Beta  occ. eigenvalues --   -0.38690  -0.36515  -0.35997  -0.34691  -0.32974
  Beta  occ. eigenvalues --   -0.31435  -0.31129  -0.30340  -0.30184  -0.29251
  Beta  occ. eigenvalues --   -0.28827  -0.27383  -0.27057  -0.26384  -0.25197
  Beta  occ. eigenvalues --   -0.18977  -0.18030  -0.15852  -0.14943  -0.14149
  Beta virt. eigenvalues --    0.06811   0.07450   0.07917   0.08220   0.08658
  Beta virt. eigenvalues --    0.09310   0.09896   0.10583   0.10880   0.11525
  Beta virt. eigenvalues --    0.11844   0.11929   0.12951   0.13118   0.13373

 Mulliken charges and spin densities:
               1          2
     1  C    2.106158  -2.696507
     2  C   -0.184100  -0.293518
     3  C    0.545130   0.689139
     4  C    1.214495  -1.682012
     5  C   -3.486068   2.448263
     6  O   -0.262786  -0.005096
     7  N    0.299167   0.033644
     8  C    1.601991  -1.926129
     9  C   -2.308241   1.824072
    10  C    0.661722  -1.241510
    11  C    3.146477  -2.522168
    12  C   -1.505816   1.010108
    13  H    0.361615  -0.194063
    14  H   -0.275540   0.437653
    15  H   -0.062561   0.205991
    16  H   -0.604326   0.766837
    17  H    0.134769   0.047114
    18  H   -0.122818   0.278861
    19  H   -0.143331   0.297104
    20  H   -0.312210   0.504187
    21  H   -0.077928   0.233693
    22  H   -0.880260   1.058634
    23  H   -0.540033   0.757032
    24  H    0.075855   0.123330
    25  H   -0.027971   0.183162
    26  H   -0.165383   0.305418
    27  H   -0.188009   0.356762
 Sum of Mulliken charges =  -1.00000   1.00000

 Dipole moment (field-independent basis, Debye):
    X=              0.5292    Y=              0.0368    Z=             -4.8675  Tot=              4.8964
 Quadrupole moment (field-independent basis, Debye-Ang):
   XX=           -125.5838   YY=           -110.6129   ZZ=           -124.5056
   XY=              4.2885   XZ=             -3.3016   YZ=             -0.9797

 Summary of Natural Population Analysis:

                                       Natural Population
                Natural  -----------------------------------------------
    Atom  No    Charge         Core      Valence    Rydberg      Total
 -----------------------------------------------------------------------
      C    1   -0.30468      0.99965     2.29866    0.00637     3.30468
      C    2   -0.07625      0.99947     2.06719    0.00959     3.07625
      C    3   -0.05430      0.99944     2.04289    0.01197     3.05430
      C    4   -0.29139      0.99962     2.28585    0.00592     3.29139
      C    5    0.33929      0.99956     1.63646    0.02469     2.66071
      O    6   -0.32009      0.99988     3.31528    0.00493     4.32009
      N    7   -0.25210      0.99964     2.73759    0.01487     3.75210
      C    8   -0.17593      0.99962     2.16726    0.00906     3.17593
      C    9   -0.04401      0.99952     2.02910    0.01540     3.04401
      C   10   -0.28154      0.99964     2.27585    0.00605     3.28154
      C   11    0.00906      0.99934     1.98189    0.00971     2.99094
      C   12   -0.11901      0.99926     2.11653    0.00322     3.11901
      H   13    0.10703      0.00000     0.39144    0.00153     0.39297
      H   14    0.10615      0.00000     0.39255    0.00130     0.39385
      H   15    0.10330      0.00000     0.39573    0.00097     0.39670
      H   16    0.09245      0.00000     0.40624    0.00131     0.40755
      H   17    0.10938      0.00000     0.38955    0.00108     0.39062
      H   18    0.10257      0.00000     0.39622    0.00121     0.39743
      H   19    0.10072      0.00000     0.39836    0.00093     0.39928
      H   20    0.09613      0.00000     0.40147    0.00240     0.40387
      H   21    0.11032      0.00000     0.38771    0.00197     0.38968
      H   22    0.10051      0.00000     0.39584    0.00365     0.39949
      H   23    0.11631      0.00000     0.38059    0.00310     0.38369
      H   24    0.11409      0.00000     0.38477    0.00113     0.38591
      H   25    0.09973      0.00000     0.39947    0.00080     0.40027
      H   26    0.10295      0.00000     0.39581    0.00124     0.39705
      H   27    0.10930      0.00000     0.38965    0.00106     0.39070
 =======================================================================
   * Total *   -0.00000     11.99463    32.85994    0.14542    45.00000

 Normal termination of Gaussian 16 at Wed Dec  9 17:23:21 2020.
