 Gaussian 16, Revision A.03,

 -----------------------------------------------------------
 # opt freq B3LYP/6-31G(d) empiricaldispersion=gd3bj scf=xqc
 -----------------------------------------------------------

 -------------------------------
 CID_142310816_JID_1656_neutraal
 -------------------------------
 Symbolic Z-matrix:
 Charge =  0 Multiplicity = 1

 SCF Done:  E(RB3LYP) =  -432.464660991     A.U. after   13 cycles
 SCF Done:  E(RB3LYP) =  -432.466341942     A.U. after   11 cycles
 SCF Done:  E(RB3LYP) =  -432.465423815     A.U. after   11 cycles
 SCF Done:  E(RB3LYP) =  -432.465138221     A.U. after   11 cycles
 SCF Done:  E(RB3LYP) =  -432.464684749     A.U. after   10 cycles
 SCF Done:  E(RB3LYP) =  -432.466508559     A.U. after    8 cycles
 SCF Done:  E(RB3LYP) =  -432.467250299     A.U. after   11 cycles
 SCF Done:  E(RB3LYP) =  -432.467290707     A.U. after   10 cycles
 SCF Done:  E(RB3LYP) =  -432.467477245     A.U. after   10 cycles
 SCF Done:  E(RB3LYP) =  -432.467502937     A.U. after    9 cycles
 SCF Done:  E(RB3LYP) =  -432.467516758     A.U. after    9 cycles
 SCF Done:  E(RB3LYP) =  -432.467526204     A.U. after    9 cycles
 SCF Done:  E(RB3LYP) =  -432.467528743     A.U. after    7 cycles
 SCF Done:  E(RB3LYP) =  -432.467528985     A.U. after    7 cycles
 Optimization completed.
    -- Stationary point found.
 Normal termination of Gaussian 16 at Tue Dec  8 20:43:23 2020.

 --------------------------------------------------------------------
 #N Geom=AllCheck Guess=TCheck SCRF=Check GenChk RB3LYP/6-31G(d) Freq
 --------------------------------------------------------------------

 Structure from the checkpoint file:  "JID_1656.chk"
 -------------------------------
 CID_142310816_JID_1656_neutraal
 -------------------------------
 Charge =  0 Multiplicity = 1

 SCF Done:  E(RB3LYP) =  -432.467528985     A.U. after    1 cycles

  Exact polarizability: 137.360  -0.700 112.143   7.932   0.594 102.258
 Approx polarizability: 178.280  -1.552 152.658  19.595   2.629 152.816

                      1                      2                      3
                      A                      A                      A
 Frequencies --     47.3564                72.1499                88.8058
 Red. masses --      2.6586                 2.4577                 2.6832
 Frc consts  --      0.0035                 0.0075                 0.0125
 IR Inten    --      0.0168                 0.0056                 0.0033

                      4                      5                      6
                      A                      A                      A
 Frequencies --    117.5117               126.7344               154.9948
 Red. masses --      1.9901                 2.2567                 1.1068
 Frc consts  --      0.0162                 0.0214                 0.0157
 IR Inten    --      0.0613                 0.1998                 0.3819

                      7                      8                      9
                      A                      A                      A
 Frequencies --    167.5301               188.3060               221.1272
 Red. masses --      1.2319                 1.6893                 1.8629
 Frc consts  --      0.0204                 0.0353                 0.0537
 IR Inten    --      0.3016                 0.1244                 0.0036

                     10                     11                     12
                      A                      A                      A
 Frequencies --    236.6458               254.9557               261.7094
 Red. masses --      2.0082                 1.3460                 1.5254
 Frc consts  --      0.0663                 0.0516                 0.0616
 IR Inten    --      0.2101                 0.2876                 0.0909

                     13                     14                     15
                      A                      A                      A
 Frequencies --    269.1965               290.8317               335.8218
 Red. masses --      1.7820                 1.2400                 2.6098
 Frc consts  --      0.0761                 0.0618                 0.1734
 IR Inten    --      0.4921                 0.6741                 1.2495

                     16                     17                     18
                      A                      A                      A
 Frequencies --    352.9085               386.7059               436.5804
 Red. masses --      2.3161                 2.5148                 2.6869
 Frc consts  --      0.1700                 0.2216                 0.3017
 IR Inten    --      0.2617                 0.4123                 1.0851

                     19                     20                     21
                      A                      A                      A
 Frequencies --    446.8055               518.3931               572.8305
 Red. masses --      2.1094                 2.6461                 2.7795
 Frc consts  --      0.2481                 0.4190                 0.5374
 IR Inten    --      1.2448                 2.0976                 0.3075

                     22                     23                     24
                      A                      A                      A
 Frequencies --    622.5724               665.5869               780.3416
 Red. masses --      2.9541                 2.2308                 1.3806
 Frc consts  --      0.6746                 0.5823                 0.4953
 IR Inten    --      0.2622                 0.2172                 5.3943

                     25                     26                     27
                      A                      A                      A
 Frequencies --    810.0746               831.3726               865.0345
 Red. masses --      1.2812                 1.9069                 2.3545
 Frc consts  --      0.4953                 0.7765                 1.0380
 IR Inten    --      1.6412                 1.9220                 0.2279

                     28                     29                     30
                      A                      A                      A
 Frequencies --    903.4680               914.0806               987.4546
 Red. masses --      1.4855                 1.8048                 1.2524
 Frc consts  --      0.7144                 0.8885                 0.7195
 IR Inten    --      2.0154                 1.0133                 2.1513

                     31                     32                     33
                      A                      A                      A
 Frequencies --   1010.7985              1026.2388              1031.6175
 Red. masses --      1.7006                 1.3705                 1.4447
 Frc consts  --      1.0237                 0.8504                 0.9059
 IR Inten    --      1.9151                 7.1191                 1.0398

                     34                     35                     36
                      A                      A                      A
 Frequencies --   1043.2638              1057.9218              1069.2210
 Red. masses --      1.9533                 1.9516                 1.5754
 Frc consts  --      1.2526                 1.2869                 1.0611
 IR Inten    --      0.8204                 5.5136                 0.8935

                     37                     38                     39
                      A                      A                      A
 Frequencies --   1072.3860              1112.3470              1129.4245
 Red. masses --      1.8747                 1.7972                 1.8300
 Frc consts  --      1.2702                 1.3102                 1.3753
 IR Inten    --      4.0452                 4.0758                 1.0489

                     40                     41                     42
                      A                      A                      A
 Frequencies --   1134.6575              1145.6429              1192.9877
 Red. masses --      2.0569                 2.4469                 2.0652
 Frc consts  --      1.5603                 1.8922                 1.7318
 IR Inten    --      5.1348                 2.2410                 0.1391

                     43                     44                     45
                      A                      A                      A
 Frequencies --   1204.3690              1261.3305              1286.1335
 Red. masses --      2.4657                 2.0807                 1.4468
 Frc consts  --      2.1072                 1.9504                 1.4100
 IR Inten    --      1.3445                 5.2969                 1.0171

                     46                     47                     48
                      A                      A                      A
 Frequencies --   1308.8658              1326.2987              1351.1530
 Red. masses --      1.2884                 1.2664                 1.2400
 Frc consts  --      1.3004                 1.3125                 1.3337
 IR Inten    --      1.0792                 2.2583                 4.1580

                     49                     50                     51
                      A                      A                      A
 Frequencies --   1380.8374              1396.1440              1401.3536
 Red. masses --      1.3209                 1.4007                 1.3564
 Frc consts  --      1.4839                 1.6087                 1.5694
 IR Inten    --      0.6501                 2.3965                 2.8734

                     52                     53                     54
                      A                      A                      A
 Frequencies --   1423.2986              1434.0120              1436.5161
 Red. masses --      1.3123                 1.2616                 1.2316
 Frc consts  --      1.5662                 1.5286                 1.4974
 IR Inten    --      3.2630                 3.2156                 0.9255

                     55                     56                     57
                      A                      A                      A
 Frequencies --   1438.6689              1443.1334              1446.2582
 Red. masses --      1.2872                 1.2567                 1.2067
 Frc consts  --      1.5697                 1.5420                 1.4871
 IR Inten    --      3.5524                 2.3407                 4.9619

                     58                     59                     60
                      A                      A                      A
 Frequencies --   1510.0710              1511.6356              1515.2391
 Red. masses --      1.0530                 1.0636                 1.0643
 Frc consts  --      1.4147                 1.4319                 1.4398
 IR Inten    --      8.4474                 1.5070                 2.5343

                     61                     62                     63
                      A                      A                      A
 Frequencies --   1518.8264              1520.2740              1527.6500
 Red. masses --      1.0670                 1.0671                 1.0491
 Frc consts  --      1.4503                 1.4531                 1.4425
 IR Inten    --      2.0881                 4.8332                 5.0746

                     64                     65                     66
                      A                      A                      A
 Frequencies --   1529.6785              1531.6766              1534.4109
 Red. masses --      1.0502                 1.0544                 1.0696
 Frc consts  --      1.4479                 1.4574                 1.4838
 IR Inten    --      0.8640                 0.8988                 3.1187

                     67                     68                     69
                      A                      A                      A
 Frequencies --   1537.5933              1541.5806              1545.0439
 Red. masses --      1.0520                 1.0619                 1.0575
 Frc consts  --      1.4654                 1.4869                 1.4873
 IR Inten    --      3.1736                 4.9796                13.5432

                     70                     71                     72
                      A                      A                      A
 Frequencies --   1547.4605              1730.1071              3009.2267
 Red. masses --      1.0503                 6.8565                 1.0813
 Frc consts  --      1.4818                12.0920                 5.7689
 IR Inten    --      0.7127                 0.6934                12.0848

                     73                     74                     75
                      A                      A                      A
 Frequencies --   3021.8770              3028.3721              3033.1796
 Red. masses --      1.0732                 1.0456                 1.0660
 Frc consts  --      5.7740                 5.6499                 5.7782
 IR Inten    --     29.2861                42.5868                11.0393

                     76                     77                     78
                      A                      A                      A
 Frequencies --   3033.3805              3041.0841              3044.3981
 Red. masses --      1.0650                 1.0411                 1.0373
 Frc consts  --      5.7735                 5.6727                 5.6643
 IR Inten    --     54.2350                19.6792                32.8619

                     79                     80                     81
                      A                      A                      A
 Frequencies --   3046.9230              3050.0518              3067.1884
 Red. masses --      1.0387                 1.0398                 1.0984
 Frc consts  --      5.6813                 5.6993                 6.0883
 IR Inten    --     37.6805                31.2836                29.4413

                     82                     83                     84
                      A                      A                      A
 Frequencies --   3078.5969              3082.0260              3091.2368
 Red. masses --      1.0952                 1.0963                 1.1000
 Frc consts  --      6.1155                 6.1353                 6.1933
 IR Inten    --     14.4238                33.5750                21.8542

                     85                     86                     87
                      A                      A                      A
 Frequencies --   3107.4115              3109.1375              3109.8306
 Red. masses --      1.1013                 1.1009                 1.1006
 Frc consts  --      6.2656                 6.2701                 6.2715
 IR Inten    --     36.0052                58.2344                37.1370

                     88                     89                     90
                      A                      A                      A
 Frequencies --   3120.9419              3129.3252              3131.5641
 Red. masses --      1.1023                 1.1002                 1.0958
 Frc consts  --      6.3257                 6.3479                 6.3316
 IR Inten    --     54.5307                65.9602                 0.1820

                     91                     92                     93
                      A                      A                      A
 Frequencies --   3134.2468              3144.9247              3158.0637
 Red. masses --      1.0943                 1.0931                 1.0935
 Frc consts  --      6.3336                 6.3702                 6.4257
 IR Inten    --     32.3784                30.1768                24.7241

 - Thermochemistry -
 -------------------
 Temperature   298.150 Kelvin.  Pressure   1.00000 Atm.
 Atom     1 has atomic number  6 and mass  12.00000

 Molecular mass:   154.17215 amu.
 Principal axes and moments of inertia in atomic units:
                           1         2         3
     Eigenvalues --  1277.186802632.762553046.39935
           X            1.00000   0.00068  -0.00236
           Y           -0.00068   1.00000  -0.00225
           Z            0.00236   0.00226   0.99999
 This molecule is an asymmetric top.
 Rotational symmetry number  1.
 Warning -- assumption of classical behavior for rotation
           may cause significant error
 Rotational temperatures (Kelvin)      0.06782     0.03290     0.02843
 Rotational constants (GHZ):           1.41306     0.68549     0.59242
 Zero-point vibrational energy     812665.1 (Joules/Mol)
                                  194.23163 (Kcal/Mol)
 Warning -- explicit consideration of  21 degrees of freedom as
           vibrations may cause significant error
 Vibrational temperatures:     68.14   103.81   127.77   169.07   182.34
          (Kelvin)            223.00   241.04   270.93   318.15   340.48
                              366.82   376.54   387.31   418.44   483.17
                              507.76   556.38   628.14   642.85   745.85
                              824.18   895.74   957.63  1122.74  1165.52
                             1196.16  1244.59  1299.89  1315.16  1420.73
                             1454.31  1476.53  1484.27  1501.02  1522.11
                             1538.37  1542.92  1600.42  1624.99  1632.52
                             1648.32  1716.44  1732.82  1814.77  1850.46
                             1883.17  1908.25  1944.01  1986.72  2008.74
                             2016.24  2047.81  2063.22  2066.83  2069.92
                             2076.35  2080.84  2172.66  2174.91  2180.09
                             2185.25  2187.34  2197.95  2200.87  2203.74
                             2207.68  2212.25  2217.99  2222.97  2226.45
                             2489.24  4329.61  4347.81  4357.15  4364.07
                             4364.36  4375.44  4380.21  4383.84  4388.34
                             4413.00  4429.41  4434.35  4447.60  4470.87
                             4473.36  4474.35  4490.34  4502.40  4505.62
                             4509.48  4524.85  4543.75

 Zero-point correction=                           0.309528 (Hartree/Particle)
 Thermal correction to Energy=                    0.324046
 Thermal correction to Enthalpy=                  0.324990
 Thermal correction to Gibbs Free Energy=         0.269214
 Sum of electronic and zero-point Energies=           -432.158001
 Sum of electronic and thermal Energies=              -432.143483
 Sum of electronic and thermal Enthalpies=            -432.142539
 Sum of electronic and thermal Free Energies=         -432.198315

                     E (Thermal)             CV                S
                      KCal/Mol        Cal/Mol-Kelvin    Cal/Mol-Kelvin
 Total                  203.342             53.601            117.392
 Electronic               0.000              0.000              0.000
 Translational            0.889              2.981             41.008
 Rotational               0.889              2.981             30.705
 Vibrational            201.565             47.639             45.678
 Vibration     1          0.595              1.979              4.925
 Vibration     2          0.598              1.967              4.094
 Vibration     3          0.602              1.957              3.686
 Vibration     4          0.608              1.935              3.141
 Vibration     5          0.611              1.926              2.995
 Vibration     6          0.620              1.897              2.610
 Vibration     7          0.624              1.882              2.463
 Vibration     8          0.633              1.856              2.244
 Vibration     9          0.648              1.809              1.950
 Vibration    10          0.656              1.785              1.828
 Vibration    11          0.665              1.754              1.696
 Vibration    12          0.669              1.743              1.650
 Vibration    13          0.674              1.730              1.601
 Vibration    14          0.687              1.691              1.469
 Vibration    15          0.717              1.604              1.232
 Vibration    16          0.729              1.569              1.153
 Vibration    17          0.755              1.499              1.013
 Vibration    18          0.797              1.390              0.837
 Vibration    19          0.806              1.368              0.805
 Vibration    20          0.873              1.209              0.614
 Vibration    21          0.929              1.090              0.499

 Optimization completed.
    -- Stationary point found.
 Normal termination of Gaussian 16 at Tue Dec  8 20:51:38 2020.

 ----------------------------------------------------------------------
 # B3LYP/6-311++G(d,p) empiricaldispersion=gd3bj scf=xqc pop=npa geom=c
 heck
 ----------------------------------------------------------------------

 ---------------------------------------
 CID_142310816_JID_1656_Energie_neutraal
 ---------------------------------------
 Structure from the checkpoint file:  "JID_1656.chk"
 Charge =  0 Multiplicity = 1

 SCF Done:  E(RB3LYP) =  -432.587075128     A.U. after   13 cycles
 Normal termination of Gaussian 16 at Tue Dec  8 20:55:39 2020.

 ----------------------------------------------------------------------
 # B3LYP/6-311++G(d,p) empiricaldispersion=gd3bj scf=xqc pop=npa geom=c
 heck
 ----------------------------------------------------------------------

 -------------------------------------
 CID_142310816_JID_1656_Energie_kation
 -------------------------------------
 Structure from the checkpoint file:  "JID_1656.chk"
 Charge =  1 Multiplicity = 2

 SCF Done:  E(UB3LYP) =  -432.294808706     A.U. after   15 cycles
 Normal termination of Gaussian 16 at Tue Dec  8 21:02:36 2020.
 Gaussian 16:  ES64L-G16RevA.03 25-Dec-2016

 ----------------------------------------------------------------------
 # B3LYP/6-311++G(d,p) empiricaldispersion=gd3bj scf=xqc pop=npa geom=c
 heck
 ----------------------------------------------------------------------

 ------------------------------------
 CID_142310816_JID_1656_Energie_anion
 ------------------------------------
 Structure from the checkpoint file:  "JID_1656.chk"
 Charge = -1 Multiplicity = 2

                         Standard orientation:
 ---------------------------------------------------------------------
 Center     Atomic      Atomic             Coordinates (Angstroms)
 Number     Number       Type             X           Y           Z
 ---------------------------------------------------------------------
      1          6           0       -3.611315   -0.330890    0.045082
      2          6           0       -2.359699   -1.185462   -0.172558
      3          6           0       -1.196770   -0.499841   -0.926289
      4          6           0       -0.579143    0.688795   -0.215217
      5          6           0        0.573954    0.641818    0.482688
      6          6           0        1.109632    1.858004    1.206354
      7          6           0        1.500367   -0.571616    0.634244
      8          6           0        0.854662   -1.797654    1.302614
      9          6           0        2.231831   -0.960637   -0.670321
     10          6           0        3.000215    0.194893   -1.314328
     11          6           0       -1.364468    1.987407   -0.349905
     12          1           0       -3.414583    0.518301    0.706467
     13          1           0       -4.409407   -0.926900    0.502319
     14          1           0       -3.995006    0.065429   -0.903122
     15          1           0       -1.992131   -1.535918    0.799016
     16          1           0       -2.639750   -2.083489   -0.740467
     17          1           0       -0.443482   -1.261532   -1.133089
     18          1           0       -1.569877   -0.170119   -1.907088
     19          1           0        1.241172    1.635710    2.274802
     20          1           0        2.103681    2.130550    0.825745
     21          1           0        0.468509    2.737255    1.129433
     22          1           0        2.293132   -0.245651    1.322713
     23          1           0        0.144868   -2.304859    0.644178
     24          1           0        1.625738   -2.527273    1.578466
     25          1           0        0.318375   -1.510444    2.213579
     26          1           0        2.927376   -1.778787   -0.436605
     27          1           0        1.518757   -1.367661   -1.396514
     28          1           0        3.748812    0.606243   -0.625845
     29          1           0        3.524911   -0.133686   -2.218334
     30          1           0        2.320427    1.006368   -1.595327
     31          1           0       -2.192545    1.870210   -1.053515
     32          1           0       -1.796771    2.321517    0.601731
     33          1           0       -0.737799    2.805830   -0.722738
 ---------------------------------------------------------------------

 SCF Done:  E(UB3LYP) =  -432.569193667     A.U. after   32 cycles

 The electronic state is 2-A.
 Alpha  occ. eigenvalues --  -10.07052 -10.06362 -10.06276 -10.06192 -10.06141
 Alpha  occ. eigenvalues --  -10.06065 -10.05573 -10.05555 -10.05508 -10.05394
 Alpha  occ. eigenvalues --  -10.05384  -0.73016  -0.69144  -0.66182  -0.62730
 Alpha  occ. eigenvalues --   -0.61342  -0.58379  -0.54229  -0.52429  -0.48721
 Alpha  occ. eigenvalues --   -0.47408  -0.39458  -0.36734  -0.35634  -0.34572
 Alpha  occ. eigenvalues --   -0.33339  -0.32969  -0.31651  -0.30780  -0.30326
 Alpha  occ. eigenvalues --   -0.29646  -0.28882  -0.28491  -0.27305  -0.26931
 Alpha  occ. eigenvalues --   -0.26075  -0.24735  -0.24277  -0.23296  -0.22651
 Alpha  occ. eigenvalues --   -0.22514  -0.21065  -0.19766  -0.12075   0.04671
 Alpha virt. eigenvalues --    0.06633   0.07156   0.07477   0.08709   0.08943
 Alpha virt. eigenvalues --    0.09155   0.09935   0.10009   0.11096   0.11537
 Alpha virt. eigenvalues --    0.11672   0.12230   0.12335   0.12860   0.13205

  Beta  occ. eigenvalues --  -10.07044 -10.06360 -10.06261 -10.06183 -10.06122
  Beta  occ. eigenvalues --  -10.06053 -10.05549 -10.05527 -10.05490 -10.05361
  Beta  occ. eigenvalues --  -10.05357  -0.72992  -0.69115  -0.66149  -0.62693
  Beta  occ. eigenvalues --   -0.61301  -0.58329  -0.54172  -0.52366  -0.48652
  Beta  occ. eigenvalues --   -0.47353  -0.39419  -0.36702  -0.35599  -0.34542
  Beta  occ. eigenvalues --   -0.33298  -0.32935  -0.31621  -0.30744  -0.30296
  Beta  occ. eigenvalues --   -0.29616  -0.28851  -0.28453  -0.27270  -0.26892
  Beta  occ. eigenvalues --   -0.26035  -0.24708  -0.24243  -0.23250  -0.22611
  Beta  occ. eigenvalues --   -0.22487  -0.21028  -0.19739  -0.12040
  Beta virt. eigenvalues --    0.06739   0.07507   0.07786   0.08049   0.09183
  Beta virt. eigenvalues --    0.09416   0.09729   0.10289   0.10454   0.11371
  Beta virt. eigenvalues --    0.11903   0.12041   0.12675   0.12691   0.13130

 Mulliken charges and spin densities:
               1          2
     1  C    1.067257  -1.757495
     2  C   -0.649269   0.463057
     3  C    0.589365  -0.717620
     4  C    0.339055  -0.175290
     5  C   -1.304455   1.809848
     6  C    1.565737  -2.330518
     7  C   -1.907202   2.090555
     8  C    0.412259  -1.114752
     9  C   -0.390105   0.331768
    10  C    0.619050  -1.395460
    11  C    1.082123  -1.859046
    12  H   -0.106931   0.257689
    13  H   -0.333970   0.472945
    14  H   -0.145622   0.286797
    15  H    0.080609   0.034893
    16  H   -0.210323   0.355482
    17  H    0.325630  -0.246694
    18  H   -0.322045   0.504115
    19  H   -0.061293   0.221432
    20  H   -0.052070   0.206778
    21  H   -0.265439   0.406479
    22  H   -0.209179   0.401223
    23  H   -0.122137   0.272981
    24  H   -0.124520   0.262150
    25  H   -0.038219   0.189897
    26  H   -0.334422   0.485310
    27  H   -0.060197   0.193136
    28  H   -0.133816   0.271263
    29  H   -0.237494   0.373301
    30  H    0.094715   0.069786
    31  H    0.014882   0.129417
    32  H   -0.048272   0.224423
    33  H   -0.133705   0.282153
 Sum of Mulliken charges =  -1.00000   1.00000

 Dipole moment (field-independent basis, Debye):
    X=              0.4016    Y=             -0.0819    Z=              0.0043  Tot=              0.4099
 Quadrupole moment (field-independent basis, Debye-Ang):
   XX=           -146.3723   YY=           -117.5447   ZZ=           -111.1833
   XY=              0.5921   XZ=             -0.5896   YZ=             -1.3317

 Summary of Natural Population Analysis:

                                       Natural Population
                Natural  -----------------------------------------------
    Atom  No    Charge         Core      Valence    Rydberg      Total
 -----------------------------------------------------------------------
      C    1   -0.28630      0.99967     2.28179    0.00484     3.28630
      C    2   -0.18569      0.99963     2.17831    0.00775     3.18569
      C    3   -0.19870      0.99958     2.19040    0.00872     3.19870
      C    4   -0.01648      0.99941     2.00563    0.01143     3.01648
      C    5   -0.00690      0.99942     1.99503    0.01245     3.00690
      C    6   -0.29629      0.99962     2.29036    0.00632     3.29629
      C    7   -0.12002      0.99956     2.10872    0.01174     3.12002
      C    8   -0.27891      0.99964     2.27321    0.00605     3.27891
      C    9   -0.18223      0.99962     2.17432    0.00830     3.18223
      C   10   -0.28383      0.99966     2.27983    0.00434     3.28383
      C   11   -0.30132      0.99963     2.29549    0.00620     3.30132
      H   12    0.09781      0.00000     0.40089    0.00129     0.40219
      H   13    0.09803      0.00000     0.40089    0.00108     0.40197
      H   14    0.09480      0.00000     0.40391    0.00129     0.40520
      H   15    0.09504      0.00000     0.40343    0.00153     0.40496
      H   16    0.09260      0.00000     0.40618    0.00122     0.40740
      H   17    0.10118      0.00000     0.39686    0.00196     0.39882
      H   18    0.09640      0.00000     0.40228    0.00133     0.40360
      H   19    0.10219      0.00000     0.39653    0.00128     0.39781
      H   20    0.10158      0.00000     0.39713    0.00129     0.39842
      H   21    0.10239      0.00000     0.39669    0.00092     0.39761
      H   22    0.09482      0.00000     0.40325    0.00193     0.40518
      H   23    0.09659      0.00000     0.40206    0.00135     0.40341
      H   24    0.09663      0.00000     0.40241    0.00097     0.40337
      H   25    0.10001      0.00000     0.39891    0.00108     0.39999
      H   26    0.09418      0.00000     0.40454    0.00128     0.40582
      H   27    0.09279      0.00000     0.40574    0.00147     0.40721
      H   28    0.09450      0.00000     0.40411    0.00139     0.40550
      H   29    0.09735      0.00000     0.40167    0.00098     0.40265
      H   30    0.09973      0.00000     0.39894    0.00133     0.40027
      H   31    0.10182      0.00000     0.39696    0.00122     0.39818
      H   32    0.10292      0.00000     0.39599    0.00109     0.39708
      H   33    0.10329      0.00000     0.39571    0.00100     0.39671
 =======================================================================
   * Total *    0.00000     10.99545    32.88814    0.11641    44.00000

 Normal termination of Gaussian 16 at Tue Dec  8 21:16:42 2020.
