 Gaussian 16, Revision A.03,

 -----------------------------------------------------------
 # opt freq B3LYP/6-31G(d) empiricaldispersion=gd3bj scf=xqc
 -----------------------------------------------------------

 -------------------------------
 CID_139592036_JID_7897_neutraal
 -------------------------------
 Symbolic Z-matrix:
 Charge =  0 Multiplicity = 1

 SCF Done:  E(RB3LYP) =  -757.328763283     A.U. after   15 cycles
 SCF Done:  E(RB3LYP) =  -757.343045615     A.U. after   13 cycles
 SCF Done:  E(RB3LYP) =  -757.345614006     A.U. after   13 cycles
 SCF Done:  E(RB3LYP) =  -757.346504116     A.U. after   12 cycles
 SCF Done:  E(RB3LYP) =  -757.346898237     A.U. after   12 cycles
 SCF Done:  E(RB3LYP) =  -757.347171578     A.U. after   12 cycles
 SCF Done:  E(RB3LYP) =  -757.347330584     A.U. after   13 cycles
 SCF Done:  E(RB3LYP) =  -757.347435560     A.U. after   12 cycles
 SCF Done:  E(RB3LYP) =  -757.347518926     A.U. after   12 cycles
 SCF Done:  E(RB3LYP) =  -757.347539237     A.U. after   10 cycles
 SCF Done:  E(RB3LYP) =  -757.347543488     A.U. after    9 cycles
 SCF Done:  E(RB3LYP) =  -757.347545331     A.U. after    9 cycles
 SCF Done:  E(RB3LYP) =  -757.347545749     A.U. after    8 cycles
 SCF Done:  E(RB3LYP) =  -757.347545779     A.U. after    7 cycles
 Optimization completed.
    -- Stationary point found.
 Normal termination of Gaussian 16 at Fri Dec 11 13:01:04 2020.

 --------------------------------------------------------------------
 #N Geom=AllCheck Guess=TCheck SCRF=Check GenChk RB3LYP/6-31G(d) Freq
 --------------------------------------------------------------------

 Structure from the checkpoint file:  "JID_7897.chk"
 -------------------------------
 CID_139592036_JID_7897_neutraal
 -------------------------------
 Charge =  0 Multiplicity = 1

 SCF Done:  E(RB3LYP) =  -757.347545779     A.U. after    1 cycles

  Exact polarizability: 217.206   1.389 158.668  -5.023   5.954  89.900
 Approx polarizability: 300.138   5.520 254.076 -10.369  16.512 140.411

                      1                      2                      3
                      A                      A                      A
 Frequencies --     22.7092                36.2529                55.4710
 Red. masses --      5.1871                 4.8290                 4.5156
 Frc consts  --      0.0016                 0.0037                 0.0082
 IR Inten    --      0.9661                 1.1220                 1.2726

                      4                      5                      6
                      A                      A                      A
 Frequencies --     68.3956                96.2637               130.2292
 Red. masses --      4.5540                 3.8685                 3.7026
 Frc consts  --      0.0126                 0.0211                 0.0370
 IR Inten    --      4.2301                 1.5697                 0.6022

                      7                      8                      9
                      A                      A                      A
 Frequencies --    152.6985               178.6370               206.1851
 Red. masses --      3.6979                 3.9836                 2.9252
 Frc consts  --      0.0508                 0.0749                 0.0733
 IR Inten    --      1.9092                 0.7061                 3.4325

                     10                     11                     12
                      A                      A                      A
 Frequencies --    258.9728               296.7493               345.3150
 Red. masses --      4.0185                 2.7583                 3.5409
 Frc consts  --      0.1588                 0.1431                 0.2488
 IR Inten    --      0.2185                 0.4129                10.0147

                     13                     14                     15
                      A                      A                      A
 Frequencies --    351.6928               377.1818               401.3410
 Red. masses --      3.3938                 2.8229                 1.4198
 Frc consts  --      0.2473                 0.2366                 0.1347
 IR Inten    --      5.2380                 3.5845                53.6820

                     16                     17                     18
                      A                      A                      A
 Frequencies --    413.3869               442.3764               466.0248
 Red. masses --      2.4799                 1.5404                 2.2315
 Frc consts  --      0.2497                 0.1776                 0.2855
 IR Inten    --      2.3522                18.7521                39.7839

                     19                     20                     21
                      A                      A                      A
 Frequencies --    479.4690               492.1571               518.9527
 Red. masses --      2.6191                 1.2169                 3.5212
 Frc consts  --      0.3547                 0.1737                 0.5587
 IR Inten    --     28.5459                81.6316                26.3815

                     22                     23                     24
                      A                      A                      A
 Frequencies --    549.7800               578.1756               598.6466
 Red. masses --      3.5278                 3.1442                 2.6853
 Frc consts  --      0.6282                 0.6193                 0.5670
 IR Inten    --      1.9730                31.4190                32.6609

                     25                     26                     27
                      A                      A                      A
 Frequencies --    619.1062               635.7424               653.7608
 Red. masses --      2.3738                 3.0119                 2.2088
 Frc consts  --      0.5361                 0.7172                 0.5562
 IR Inten    --     78.1291                53.9596                42.5498

                     28                     29                     30
                      A                      A                      A
 Frequencies --    668.6615               710.8998               757.8098
 Red. masses --      3.7433                 2.3013                 3.5055
 Frc consts  --      0.9861                 0.6852                 1.1861
 IR Inten    --     56.7195                 8.2845                67.6856

                     31                     32                     33
                      A                      A                      A
 Frequencies --    767.2006               777.7585               815.4399
 Red. masses --      1.8049                 1.4164                 2.6573
 Frc consts  --      0.6259                 0.5048                 1.0411
 IR Inten    --     25.0754               279.3449                35.6599

                     34                     35                     36
                      A                      A                      A
 Frequencies --    823.9017               836.7849               859.3160
 Red. masses --      2.2542                 2.0614                 3.0858
 Frc consts  --      0.9015                 0.8504                 1.3425
 IR Inten    --     56.4773               146.1842                13.5041

                     37                     38                     39
                      A                      A                      A
 Frequencies --    867.1062               915.0259               927.5457
 Red. masses --      1.1890                 3.0037                 1.5536
 Frc consts  --      0.5267                 1.4818                 0.7875
 IR Inten    --     21.3170                41.9834                 1.5422

                     40                     41                     42
                      A                      A                      A
 Frequencies --    932.8787               948.8863               969.7027
 Red. masses --      2.9951                 2.4022                 2.9549
 Frc consts  --      1.5357                 1.2744                 1.6371
 IR Inten    --      0.4114                 2.6752                14.6533

                     43                     44                     45
                      A                      A                      A
 Frequencies --    976.5670              1026.2931              1044.7593
 Red. masses --      1.3403                 2.0397                 2.1037
 Frc consts  --      0.7531                 1.2658                 1.3529
 IR Inten    --      4.4127                16.4615                41.2950

                     46                     47                     48
                      A                      A                      A
 Frequencies --   1061.7136              1096.2066              1113.4468
 Red. masses --      2.7753                 2.2442                 1.8290
 Frc consts  --      1.8432                 1.5889                 1.3360
 IR Inten    --     37.9886                 4.8141                 7.6658

                     49                     50                     51
                      A                      A                      A
 Frequencies --   1119.5553              1142.3062              1174.9037
 Red. masses --      1.9680                 1.3545                 1.5914
 Frc consts  --      1.4534                 1.0413                 1.2943
 IR Inten    --     31.1685                15.7509                19.5196

                     52                     53                     54
                      A                      A                      A
 Frequencies --   1189.2263              1198.8330              1206.5224
 Red. masses --      1.6629                 1.2662                 1.6347
 Frc consts  --      1.3856                 1.0722                 1.4021
 IR Inten    --      2.0884                 0.5115                50.0420

                     55                     56                     57
                      A                      A                      A
 Frequencies --   1218.3870              1237.7765              1250.8677
 Red. masses --      1.6152                 1.6668                 2.1216
 Frc consts  --      1.4127                 1.5046                 1.9558
 IR Inten    --      4.9325                 7.0968                20.1274

                     58                     59                     60
                      A                      A                      A
 Frequencies --   1273.6773              1306.8364              1320.8431
 Red. masses --      1.4556                 2.1094                 1.5133
 Frc consts  --      1.3912                 2.1225                 1.5555
 IR Inten    --      9.5561                 3.9061                 2.1548

                     61                     62                     63
                      A                      A                      A
 Frequencies --   1350.1789              1351.9763              1377.9661
 Red. masses --      1.3575                 1.3142                 3.8678
 Frc consts  --      1.4581                 1.4153                 4.3271
 IR Inten    --     21.5714                 1.4392                14.6639

                     64                     65                     66
                      A                      A                      A
 Frequencies --   1442.6329              1465.5221              1480.2790
 Red. masses --      2.4608                 2.4986                 1.3258
 Frc consts  --      3.0175                 3.1618                 1.7117
 IR Inten    --    119.4492                56.6826                17.8258

                     67                     68                     69
                      A                      A                      A
 Frequencies --   1482.0381              1507.3813              1520.3640
 Red. masses --      2.7309                 1.1334                 1.1246
 Frc consts  --      3.5341                 1.5173                 1.5316
 IR Inten    --     15.9756                 5.1828                 4.1304

                     70                     71                     72
                      A                      A                      A
 Frequencies --   1522.3675              1623.5487              1638.4997
 Red. masses --      2.6397                 1.2870                 7.0057
 Frc consts  --      3.6045                 1.9988                11.0813
 IR Inten    --      3.4572                53.9378                11.6744

                     73                     74                     75
                      A                      A                      A
 Frequencies --   1647.6231              1653.9291              1665.0318
 Red. masses --      1.4378                 5.3540                 1.2477
 Frc consts  --      2.2997                 8.6290                 2.0380
 IR Inten    --     98.5649                 3.7200               125.1275

                     76                     77                     78
                      A                      A                      A
 Frequencies --   1716.3565              1742.2069              3036.2241
 Red. masses --      4.0746                 3.5556                 1.0734
 Frc consts  --      7.0722                 6.3586                 5.8301
 IR Inten    --    180.4073               482.8813                27.2263

                     79                     80                     81
                      A                      A                      A
 Frequencies --   3071.1663              3096.1320              3114.6612
 Red. masses --      1.0645                 1.0849                 1.0911
 Frc consts  --      5.9158                 6.1273                 6.2367
 IR Inten    --     19.4951                35.2297                14.6777

                     82                     83                     84
                      A                      A                      A
 Frequencies --   3124.6058              3186.7432              3202.9784
 Red. masses --      1.1026                 1.0865                 1.0932
 Frc consts  --      6.3427                 6.5008                 6.6081
 IR Inten    --     29.7047                 4.9368                20.2309

                     85                     86                     87
                      A                      A                      A
 Frequencies --   3229.6734              3418.4300              3478.1179
 Red. masses --      1.0933                 1.0736                 1.0745
 Frc consts  --      6.7188                 7.3917                 7.6589
 IR Inten    --     10.2902                 2.1629                 2.0228

                     88                     89                     90
                      A                      A                      A
 Frequencies --   3487.9425              3529.4128              3544.9677
 Red. masses --      1.0505                 1.0481                 1.0469
 Frc consts  --      7.5297                 7.6922                 7.7510
 IR Inten    --     49.2928                 9.6439                16.6320

                     91                     92                     93
                      A                      A                      A
 Frequencies --   3618.2715              3631.4212              3657.5671
 Red. masses --      1.0937                 1.0965                 1.0993
 Frc consts  --      8.4364                 8.5194                 8.6648
 IR Inten    --     36.1608                10.5971                11.1984

 - Thermochemistry -
 -------------------
 Temperature   298.150 Kelvin.  Pressure   1.00000 Atm.
 Atom     1 has atomic number  6 and mass  12.00000

 Molecular mass:   232.14364 amu.
 Principal axes and moments of inertia in atomic units:
                           1         2         3
     Eigenvalues --  1727.261817563.803908591.95686
           X            1.00000  -0.00135  -0.00146
           Y            0.00135   0.99999  -0.00393
           Z            0.00146   0.00393   0.99999
 This molecule is an asymmetric top.
 Rotational symmetry number  1.
 Warning -- assumption of classical behavior for rotation
           may cause significant error
 Rotational temperatures (Kelvin)      0.05015     0.01145     0.01008
 Rotational constants (GHZ):           1.04486     0.23860     0.21005
 Zero-point vibrational energy     733188.4 (Joules/Mol)
                                  175.23624 (Kcal/Mol)
 Warning -- explicit consideration of  25 degrees of freedom as
           vibrations may cause significant error
 Vibrational temperatures:     32.67    52.16    79.81    98.41   138.50
          (Kelvin)            187.37   219.70   257.02   296.65   372.60
                              426.96   496.83   506.01   542.68   577.44
                              594.77   636.48   670.51   689.85   708.10
                              746.66   791.01   831.87   861.32   890.76
                              914.69   940.62   962.05  1022.83  1090.32
                             1103.83  1119.02  1173.24  1185.41  1203.95
                             1236.36  1247.57  1316.52  1334.53  1342.20
                             1365.24  1395.19  1405.06  1476.61  1503.18
                             1527.57  1577.20  1602.00  1610.79  1643.52
                             1690.42  1711.03  1724.85  1735.92  1752.99
                             1780.88  1799.72  1832.54  1880.25  1900.40
                             1942.61  1945.19  1982.59  2075.63  2108.56
                             2129.79  2132.32  2168.79  2187.46  2190.35
                             2335.92  2357.44  2370.56  2379.64  2395.61
                             2469.45  2506.65  4368.45  4418.72  4454.64
                             4481.30  4495.61  4585.01  4608.37  4646.78
                             4918.36  5004.24  5018.37  5078.04  5100.42
                             5205.89  5224.81  5262.42

 Zero-point correction=                           0.279257 (Hartree/Particle)
 Thermal correction to Energy=                    0.294905
 Thermal correction to Enthalpy=                  0.295849
 Thermal correction to Gibbs Free Energy=         0.235010
 Sum of electronic and zero-point Energies=           -757.068289
 Sum of electronic and thermal Energies=              -757.052641
 Sum of electronic and thermal Enthalpies=            -757.051697
 Sum of electronic and thermal Free Energies=         -757.112536

                     E (Thermal)             CV                S
                      KCal/Mol        Cal/Mol-Kelvin    Cal/Mol-Kelvin
 Total                  185.055             61.448            128.046
 Electronic               0.000              0.000              0.000
 Translational            0.889              2.981             42.228
 Rotational               0.889              2.981             33.084
 Vibrational            183.278             55.486             52.734
 Vibration     1          0.593              1.985              6.382
 Vibration     2          0.594              1.982              5.454
 Vibration     3          0.596              1.975              4.612
 Vibration     4          0.598              1.969              4.199
 Vibration     5          0.603              1.952              3.529
 Vibration     6          0.612              1.923              2.943
 Vibration     7          0.619              1.900              2.638
 Vibration     8          0.629              1.869              2.343
 Vibration     9          0.641              1.831              2.077
 Vibration    10          0.668              1.748              1.669
 Vibration    11          0.690              1.680              1.435
 Vibration    12          0.724              1.585              1.187
 Vibration    13          0.728              1.572              1.159
 Vibration    14          0.748              1.519              1.050
 Vibration    15          0.767              1.467              0.958
 Vibration    16          0.777              1.441              0.915
 Vibration    17          0.802              1.378              0.819
 Vibration    18          0.823              1.325              0.749
 Vibration    19          0.836              1.296              0.711
 Vibration    20          0.848              1.267              0.678
 Vibration    21          0.874              1.208              0.612
 Vibration    22          0.905              1.140              0.545
 Vibration    23          0.935              1.078              0.489
 Vibration    24          0.957              1.035              0.452
 Vibration    25          0.979              0.992              0.418

 Optimization completed.
    -- Stationary point found.
 Normal termination of Gaussian 16 at Fri Dec 11 13:12:06 2020.

 ----------------------------------------------------------------------
 # B3LYP/6-311++G(d,p) empiricaldispersion=gd3bj scf=xqc pop=npa geom=c
 heck
 ----------------------------------------------------------------------

 ---------------------------------------
 CID_139592036_JID_7897_Energie_neutraal
 ---------------------------------------
 Structure from the checkpoint file:  "JID_7897.chk"
 Charge =  0 Multiplicity = 1

 SCF Done:  E(RB3LYP) =  -757.578398548     A.U. after   16 cycles
 Normal termination of Gaussian 16 at Fri Dec 11 13:17:06 2020.

 ----------------------------------------------------------------------
 # B3LYP/6-311++G(d,p) empiricaldispersion=gd3bj scf=xqc pop=npa geom=c
 heck
 ----------------------------------------------------------------------

 -------------------------------------
 CID_139592036_JID_7897_Energie_kation
 -------------------------------------
 Structure from the checkpoint file:  "JID_7897.chk"
 Charge =  1 Multiplicity = 2

 SCF Done:  E(UB3LYP) =  -757.294512608     A.U. after   30 cycles
 Normal termination of Gaussian 16 at Fri Dec 11 13:29:41 2020.
 Gaussian 16:  ES64L-G16RevA.03 25-Dec-2016

 ----------------------------------------------------------------------
 # B3LYP/6-311++G(d,p) empiricaldispersion=gd3bj scf=xqc pop=npa geom=c
 heck
 ----------------------------------------------------------------------

 ------------------------------------
 CID_139592036_JID_7897_Energie_anion
 ------------------------------------
 Structure from the checkpoint file:  "JID_7897.chk"
 Charge = -1 Multiplicity = 2

                         Standard orientation:
 ---------------------------------------------------------------------
 Center     Atomic      Atomic             Coordinates (Angstroms)
 Number     Number       Type             X           Y           Z
 ---------------------------------------------------------------------
      1          6           0       -0.170995   -1.971013    1.162224
      2          6           0        1.126107   -1.807390    0.333861
      3          6           0        1.296988   -0.301822    0.255717
      4          6           0        0.111820    0.344814    0.634844
      5          6           0       -0.973839   -0.666659    0.955897
      6          7           0       -1.966353   -0.841938   -0.129361
      7          7           0       -2.685516    0.404711   -0.318963
      8          6           0       -3.957443    0.189635   -0.426682
      9          7           0       -4.561065   -1.048057   -0.535480
     10          7           0       -4.826098    1.276873   -0.449741
     11          6           0        0.021171    1.734427    0.648824
     12          6           0        1.145069    2.486170    0.298278
     13          6           0        2.332937    1.850381   -0.059848
     14          6           0        2.428715    0.449684   -0.093346
     15          6           0        3.738719   -0.168186   -0.460330
     16          7           0        4.892311    0.228111   -0.057335
     17          7           0        3.660230   -1.283391   -1.284224
     18          1           0        0.086754   -2.063330    2.222711
     19          1           0       -0.759181   -2.849932    0.883190
     20          1           0        1.988541   -2.308402    0.781388
     21          1           0        1.014394   -2.241852   -0.668848
     22          1           0       -1.551879   -0.391988    1.842688
     23          1           0       -1.438798   -0.978283   -0.995442
     24          1           0       -5.454758   -1.117903   -0.062941
     25          1           0       -3.892777   -1.770719   -0.271948
     26          1           0       -4.308306    2.146730   -0.516825
     27          1           0       -5.539447    1.209788   -1.168406
     28          1           0       -0.913616    2.213469    0.917229
     29          1           0        1.097377    3.571522    0.302858
     30          1           0        3.202916    2.439709   -0.335781
     31          1           0        4.779464    0.977676    0.627253
     32          1           0        2.933190   -1.262718   -1.987801
     33          1           0        4.566077   -1.568167   -1.640231
 ---------------------------------------------------------------------

 SCF Done:  E(UB3LYP) =  -757.571096465     A.U. after   33 cycles
 SCF Done:  E(UB3LYP) =  -757.571096465     a.u. after    1 cycles

 The electronic state is 2-A.
 Alpha  occ. eigenvalues --  -14.22514 -14.22146 -14.21461 -14.21280 -14.18986
 Alpha  occ. eigenvalues --  -14.16937 -10.15840 -10.13638 -10.09613 -10.07580
 Alpha  occ. eigenvalues --  -10.07364 -10.07154 -10.07010 -10.06586 -10.06499
 Alpha  occ. eigenvalues --  -10.06101 -10.05443  -0.88927  -0.84777  -0.82400
 Alpha  occ. eigenvalues --   -0.76896  -0.76305  -0.74885  -0.71398  -0.67460
 Alpha  occ. eigenvalues --   -0.64543  -0.61433  -0.57587  -0.52948  -0.49143
 Alpha  occ. eigenvalues --   -0.48284  -0.47723  -0.46563  -0.43762  -0.43236
 Alpha  occ. eigenvalues --   -0.42185  -0.40005  -0.37702  -0.36268  -0.35876
 Alpha  occ. eigenvalues --   -0.34853  -0.34723  -0.34291  -0.32847  -0.31236
 Alpha  occ. eigenvalues --   -0.30899  -0.29294  -0.28259  -0.26940  -0.25623
 Alpha  occ. eigenvalues --   -0.25403  -0.24147  -0.23518  -0.23395  -0.21843
 Alpha  occ. eigenvalues --   -0.17367  -0.16967  -0.15583  -0.14524  -0.13805
 Alpha  occ. eigenvalues --   -0.13100  -0.11030   0.04281
 Alpha virt. eigenvalues --    0.05760   0.06677   0.07493   0.08084   0.08651
 Alpha virt. eigenvalues --    0.08957   0.09625   0.09771   0.10442   0.10956
 Alpha virt. eigenvalues --    0.11116   0.11974   0.12229   0.12788   0.13744

  Beta  occ. eigenvalues --  -14.22505 -14.22134 -14.21404 -14.21225 -14.18984
  Beta  occ. eigenvalues --  -14.16841 -10.15838 -10.13574 -10.09607 -10.07583
  Beta  occ. eigenvalues --  -10.07345 -10.07153 -10.06897 -10.06618 -10.06413
  Beta  occ. eigenvalues --  -10.06092 -10.05262  -0.88898  -0.84655  -0.82353
  Beta  occ. eigenvalues --   -0.76799  -0.76189  -0.74754  -0.71285  -0.67385
  Beta  occ. eigenvalues --   -0.64295  -0.61345  -0.57524  -0.52648  -0.49084
  Beta  occ. eigenvalues --   -0.48202  -0.47641  -0.46489  -0.43710  -0.43156
  Beta  occ. eigenvalues --   -0.42117  -0.39921  -0.37626  -0.36183  -0.35813
  Beta  occ. eigenvalues --   -0.34754  -0.34653  -0.34213  -0.32755  -0.31192
  Beta  occ. eigenvalues --   -0.30807  -0.29236  -0.27925  -0.26815  -0.25538
  Beta  occ. eigenvalues --   -0.25333  -0.24083  -0.23441  -0.23133  -0.21812
  Beta  occ. eigenvalues --   -0.17298  -0.16746  -0.15212  -0.14310  -0.13197
  Beta  occ. eigenvalues --   -0.12852  -0.11007
  Beta virt. eigenvalues --    0.06511   0.07170   0.07471   0.07832   0.08223
  Beta virt. eigenvalues --    0.08887   0.09372   0.09681   0.09996   0.10387
  Beta virt. eigenvalues --    0.11038   0.11366   0.12133   0.12392   0.12901

 Mulliken charges and spin densities:
               1          2
     1  C   -0.724736  -0.382526
     2  C   -0.319984   0.250949
     3  C    0.072236  -0.235421
     4  C    0.066889   0.052336
     5  C    0.110336   0.128804
     6  N    0.349560  -0.316979
     7  N   -0.443237   0.071488
     8  C    0.879948  -0.904644
     9  N   -0.266078  -0.112397
    10  N   -0.449218   0.154094
    11  C    0.059602  -0.018212
    12  C   -0.371330  -0.037728
    13  C   -0.752585   0.216196
    14  C    0.776516  -0.036118
    15  C   -0.424253  -0.098132
    16  N   -0.323521   0.057997
    17  N   -0.275123   0.011293
    18  H    0.135191   0.008479
    19  H    0.108503   0.052383
    20  H    0.182900   0.021262
    21  H    0.176060  -0.012814
    22  H   -0.076259   0.316994
    23  H    0.132249   0.050159
    24  H   -0.460940   0.725661
    25  H    0.246811   0.027642
    26  H    0.061517   0.185144
    27  H   -0.465207   0.726110
    28  H    0.163688  -0.018423
    29  H    0.071400   0.070550
    30  H    0.089237   0.041869
    31  H    0.192500  -0.008540
    32  H    0.196463   0.015341
    33  H    0.280864  -0.002817
 Sum of Mulliken charges =  -1.00000   1.00000

 Dipole moment (field-independent basis, Debye):
    X=              7.1612    Y=             -1.9537    Z=             -0.0917  Tot=              7.4235
 Quadrupole moment (field-independent basis, Debye-Ang):
   XX=           -234.4003   YY=           -121.5055   ZZ=           -117.9323
   XY=             -0.3193   XZ=             -9.2198   YZ=              4.6104

 Summary of Natural Population Analysis:

                                       Natural Population
                Natural  -----------------------------------------------
    Atom  No    Charge         Core      Valence    Rydberg      Total
 -----------------------------------------------------------------------
      C    1   -0.19025      0.99963     2.18051    0.01011     3.19025
      C    2   -0.19972      0.99961     2.19253    0.00757     3.19972
      C    3   -0.00109      0.99945     1.99218    0.00946     3.00109
      C    4   -0.02364      0.99946     2.01356    0.01063     3.02364
      C    5   -0.01394      0.99956     1.99965    0.01473     3.01394
      N    6   -0.26694      0.99974     2.75359    0.01362     3.76694
      N    7   -0.23923      0.99964     2.72627    0.01332     3.73923
      C    8    0.30174      0.99966     1.68105    0.01755     2.69826
      N    9   -0.41576      0.99970     2.90604    0.01002     3.91576
      N   10   -0.40629      0.99972     2.89621    0.01037     3.90629
      C   11   -0.05338      0.99951     2.04492    0.00895     3.05338
      C   12   -0.11461      0.99957     2.10488    0.01016     3.11461
      C   13   -0.07717      0.99954     2.06810    0.00953     3.07717
      C   14   -0.05112      0.99941     2.04008    0.01163     3.05112
      C   15    0.22903      0.99963     1.75275    0.01859     2.77097
      N   16   -0.35794      0.99971     2.84982    0.00841     3.85794
      N   17   -0.40201      0.99971     2.89421    0.00808     3.90201
      H   18    0.09898      0.00000     0.40016    0.00085     0.40102
      H   19    0.10168      0.00000     0.39722    0.00110     0.39832
      H   20    0.10737      0.00000     0.39136    0.00127     0.39263
      H   21    0.09661      0.00000     0.40213    0.00126     0.40339
      H   22    0.09983      0.00000     0.39838    0.00179     0.40017
      H   23    0.16963      0.00000     0.32800    0.00236     0.33037
      H   24    0.19187      0.00000     0.30212    0.00600     0.30813
      H   25    0.20071      0.00000     0.29662    0.00267     0.29929
      H   26    0.19054      0.00000     0.30690    0.00256     0.30946
      H   27    0.18986      0.00000     0.30363    0.00650     0.31014
      H   28    0.10594      0.00000     0.39276    0.00129     0.39406
      H   29    0.09657      0.00000     0.40262    0.00080     0.40343
      H   30    0.09806      0.00000     0.40079    0.00115     0.40194
      H   31    0.16337      0.00000     0.33434    0.00228     0.33663
      H   32    0.18441      0.00000     0.31366    0.00192     0.31559
      H   33    0.18686      0.00000     0.31166    0.00149     0.31314
 =======================================================================
   * Total *    0.00000     16.99325    44.77873    0.22803    62.00000

 Normal termination of Gaussian 16 at Fri Dec 11 13:43:10 2020.
