 Gaussian 16, Revision A.03,

 ----------------------------------------------------------------------
 # opt=(cartesian,calcfc,maxcycle=500) freq B3LYP/6-31G(d) empiricaldis
 persion=gd3bj scf=xqc
 ----------------------------------------------------------------------

 -------------------------------
 CID_102924226_JID_1832_neutraal
 -------------------------------
 Symbolic Z-matrix:
 Charge =  0 Multiplicity = 1

 SCF Done:  E(RB3LYP) =  -490.455166355     A.U. after   14 cycles
 SCF Done:  E(RB3LYP) =  -490.458664483     A.U. after   12 cycles
 SCF Done:  E(RB3LYP) =  -490.461423586     A.U. after   12 cycles
 SCF Done:  E(RB3LYP) =  -490.461208574     A.U. after   13 cycles
 SCF Done:  E(RB3LYP) =  -490.461733677     A.U. after   12 cycles
 SCF Done:  E(RB3LYP) =  -490.461861466     A.U. after   12 cycles
 SCF Done:  E(RB3LYP) =  -490.461740601     A.U. after   12 cycles
 SCF Done:  E(RB3LYP) =  -490.461916322     A.U. after   12 cycles
 SCF Done:  E(RB3LYP) =  -490.461926814     A.U. after   12 cycles
 SCF Done:  E(RB3LYP) =  -490.461701944     A.U. after   12 cycles
 SCF Done:  E(RB3LYP) =  -490.461967684     A.U. after   10 cycles
 SCF Done:  E(RB3LYP) =  -490.461968294     A.U. after    9 cycles
 SCF Done:  E(RB3LYP) =  -490.461968561     A.U. after    9 cycles
 SCF Done:  E(RB3LYP) =  -490.461967739     A.U. after   10 cycles
 SCF Done:  E(RB3LYP) =  -490.461968722     A.U. after    9 cycles
 Optimization completed.
    -- Stationary point found.
 Normal termination of Gaussian 16 at Sat Feb 27 18:23:40 2021.

 --------------------------------------------------------------------
 #N Geom=AllCheck Guess=TCheck SCRF=Check GenChk RB3LYP/6-31G(d) Freq
 --------------------------------------------------------------------

 Structure from the checkpoint file:  "JID_1832.chk"
 -------------------------------
 CID_102924226_JID_1832_neutraal
 -------------------------------
 Charge =  0 Multiplicity = 1

 SCF Done:  E(RB3LYP) =  -490.461968722     A.U. after    1 cycles

  Exact polarizability: 112.979   9.795  82.423   1.898   4.486  75.719
 Approx polarizability: 165.023  17.814 123.331   5.796  14.573 136.129

                      1                      2                      3
                      A                      A                      A
 Frequencies --     26.6026                83.0038               110.9108
 Red. masses --      5.3939                 5.1100                 4.2577
 Frc consts  --      0.0022                 0.0207                 0.0309
 IR Inten    --      0.0168                 0.2316                 0.4486

                      4                      5                      6
                      A                      A                      A
 Frequencies --    145.0567               152.2539               203.3918
 Red. masses --      1.1139                 4.1134                 2.9444
 Frc consts  --      0.0138                 0.0562                 0.0718
 IR Inten    --     57.4526                 2.0866                14.9823

                      7                      8                      9
                      A                      A                      A
 Frequencies --    250.8445               337.6924               388.7784
 Red. masses --      3.6931                 5.0732                 5.3222
 Frc consts  --      0.1369                 0.3409                 0.4740
 IR Inten    --      7.4111                 5.2201                 3.8853

                     10                     11                     12
                      A                      A                      A
 Frequencies --    413.1942               430.3993               519.5950
 Red. masses --      4.1121                 4.9627                 6.7956
 Frc consts  --      0.4136                 0.5416                 1.0810
 IR Inten    --      0.2334                 4.0448                 1.8784

                     13                     14                     15
                      A                      A                      A
 Frequencies --    567.9702               609.7877               645.3574
 Red. masses --      5.8855                 1.2780                 8.7167
 Frc consts  --      1.1186                 0.2800                 2.1390
 IR Inten    --      4.6583                37.6822                11.2083

                     16                     17                     18
                      A                      A                      A
 Frequencies --    646.0069               683.1783               750.2739
 Red. masses --      1.2266                 4.2756                 2.1153
 Frc consts  --      0.3016                 1.1757                 0.7016
 IR Inten    --     35.7148                20.5301                20.7609

                     19                     20                     21
                      A                      A                      A
 Frequencies --    833.0903               922.9441               939.5915
 Red. masses --      5.0054                 2.1325                 3.0257
 Frc consts  --      2.0468                 1.0703                 1.5738
 IR Inten    --     30.2153                15.0416                41.8556

                     22                     23                     24
                      A                      A                      A
 Frequencies --    982.9880               994.4072              1008.7582
 Red. masses --      3.8747                 1.3831                 1.5434
 Frc consts  --      2.2059                 0.8058                 0.9253
 IR Inten    --     27.6909                 0.0811                 1.0631

                     25                     26                     27
                      A                      A                      A
 Frequencies --   1040.0293              1055.8406              1072.1870
 Red. masses --      1.7247                 3.1899                 3.0136
 Frc consts  --      1.0992                 2.0952                 2.0411
 IR Inten    --     23.0147                10.5602                 4.4034

                     28                     29                     30
                      A                      A                      A
 Frequencies --   1149.8769              1204.3561              1220.4636
 Red. masses --      4.4420                 1.3878                 1.9377
 Frc consts  --      3.4605                 1.1860                 1.7006
 IR Inten    --      5.3745                54.0120                20.3116

                     31                     32                     33
                      A                      A                      A
 Frequencies --   1249.7063              1251.6342              1302.0982
 Red. masses --      4.8888                 1.9198                 1.2714
 Frc consts  --      4.4985                 1.7720                 1.2700
 IR Inten    --      0.4550                 1.5580                 0.8181

                     34                     35                     36
                      A                      A                      A
 Frequencies --   1335.4065              1378.5075              1408.7308
 Red. masses --      1.3541                 1.3706                 1.3338
 Frc consts  --      1.4227                 1.5346                 1.5595
 IR Inten    --     14.6540                15.4285                 4.4344

                     37                     38                     39
                      A                      A                      A
 Frequencies --   1457.8997              1487.2199              1530.6228
 Red. masses --      2.7814                 1.9010                 1.1932
 Frc consts  --      3.4831                 2.4773                 1.6470
 IR Inten    --     69.5775                13.6595                 8.2987

                     40                     41                     42
                      A                      A                      A
 Frequencies --   1618.1325              1642.2529              1698.8671
 Red. masses --      5.4517                 5.1591                 1.0610
 Frc consts  --      8.4103                 8.1980                 1.8042
 IR Inten    --     63.7510                34.0846                23.8547

                     43                     44                     45
                      A                      A                      A
 Frequencies --   2246.2585              2966.8038              3165.7326
 Red. masses --      5.9477                 1.0807                 1.0909
 Frc consts  --     17.6814                 5.6044                 6.4417
 IR Inten    --      0.6311                26.3364                19.2601

                     46                     47                     48
                      A                      A                      A
 Frequencies --   3193.7416              3197.4116              3411.1968
 Red. masses --      1.0894                 1.0935                 1.0516
 Frc consts  --      6.5466                 6.5869                 7.2098
 IR Inten    --     29.7529                 4.5571                 1.0010

                     49                     50                     51
                      A                      A                      A
 Frequencies --   3462.7138              3495.1869              3500.9767
 Red. masses --      1.0756                 1.1615                 1.0900
 Frc consts  --      7.5986                 8.3601                 7.8717
 IR Inten    --      0.4711                62.6189                 0.1257

 - Thermochemistry -
 -------------------
 Temperature   298.150 Kelvin.  Pressure   1.00000 Atm.
 Atom     1 has atomic number  7 and mass  14.00307

 Molecular mass:   148.07490 amu.
 Principal axes and moments of inertia in atomic units:
                           1         2         3
     Eigenvalues --  1062.538652186.401702607.39292
           X            0.99999  -0.00487   0.00179
           Y            0.00488   0.99998  -0.00339
           Z           -0.00177   0.00340   0.99999
 This molecule is an asymmetric top.
 Rotational symmetry number  1.
 Warning -- assumption of classical behavior for rotation
           may cause significant error
 Rotational temperatures (Kelvin)      0.08152     0.03961     0.03322
 Rotational constants (GHZ):           1.69852     0.82544     0.69216
 Zero-point vibrational energy     391118.6 (Joules/Mol)
                                   93.47960 (Kcal/Mol)
 Warning -- explicit consideration of  14 degrees of freedom as
           vibrations may cause significant error
 Vibrational temperatures:     38.28   119.42   159.58   208.70   219.06
          (Kelvin)            292.64   360.91   485.86   559.37   594.49
                              619.25   747.58   817.18   877.35   928.53
                              929.46   982.94  1079.48  1198.63  1327.91
                             1351.86  1414.30  1430.73  1451.38  1496.37
                             1519.12  1542.64  1654.42  1732.80  1755.97
                             1798.05  1800.82  1873.43  1921.35  1983.36
                             2026.85  2097.59  2139.78  2202.22  2328.13
                             2362.84  2444.29  3231.86  4268.57  4554.78
                             4595.08  4600.36  4907.95  4982.07  5028.79
                             5037.12

 Zero-point correction=                           0.148969 (Hartree/Particle)
 Thermal correction to Energy=                    0.159310
 Thermal correction to Enthalpy=                  0.160254
 Thermal correction to Gibbs Free Energy=         0.111989
 Sum of electronic and zero-point Energies=           -490.312999
 Sum of electronic and thermal Energies=              -490.302659
 Sum of electronic and thermal Enthalpies=            -490.301715
 Sum of electronic and thermal Free Energies=         -490.349980

                     E (Thermal)             CV                S
                      KCal/Mol        Cal/Mol-Kelvin    Cal/Mol-Kelvin
 Total                   99.968             37.450            101.582
 Electronic               0.000              0.000              0.000
 Translational            0.889              2.981             40.888
 Rotational               0.889              2.981             30.183
 Vibrational             98.191             31.488             30.511
 Vibration     1          0.593              1.984              6.068
 Vibration     2          0.600              1.961              3.819
 Vibration     3          0.607              1.940              3.253
 Vibration     4          0.616              1.908              2.736
 Vibration     5          0.619              1.900              2.644
 Vibration     6          0.639              1.835              2.102
 Vibration     7          0.663              1.761              1.725
 Vibration     8          0.718              1.600              1.223
 Vibration     9          0.757              1.494              1.005
 Vibration    10          0.777              1.442              0.915
 Vibration    11          0.792              1.404              0.857
 Vibration    12          0.875              1.207              0.611
 Vibration    13          0.924              1.101              0.508
 Vibration    14          0.969              1.011              0.433

 Normal termination of Gaussian 16 at Sat Feb 27 18:26:53 2021.

 ----------------------------------------------------------------------
 # B3LYP/6-311++G(d,p) empiricaldispersion=gd3bj scf=xqc pop=npa geom=c
 heck
 ----------------------------------------------------------------------

 ---------------------------------------
 CID_102924226_JID_1832_Energie_neutraal
 ---------------------------------------
 Structure from the checkpoint file:  "JID_1832.chk"
 Charge =  0 Multiplicity = 1

 SCF Done:  E(RB3LYP) =  -490.607018379     A.U. after   15 cycles
 Normal termination of Gaussian 16 at Sat Feb 27 18:27:46 2021.

 ----------------------------------------------------------------------
 # B3LYP/6-311++G(d,p) empiricaldispersion=gd3bj scf=xqc pop=npa geom=c
 heck
 ----------------------------------------------------------------------

 -------------------------------------
 CID_102924226_JID_1832_Energie_kation
 -------------------------------------
 Structure from the checkpoint file:  "JID_1832.chk"
 Charge =  1 Multiplicity = 2

 SCF Done:  E(UB3LYP) =  -490.291714394     A.U. after   23 cycles
 Normal termination of Gaussian 16 at Sat Feb 27 18:29:51 2021.
 Gaussian 16:  ES64L-G16RevA.03 25-Dec-2016

 ----------------------------------------------------------------------
 # B3LYP/6-311++G(d,p) empiricaldispersion=gd3bj scf=xqc pop=npa geom=c
 heck
 ----------------------------------------------------------------------

 ------------------------------------
 CID_102924226_JID_1832_Energie_anion
 ------------------------------------
 Structure from the checkpoint file:  "JID_1832.chk"
 Charge = -1 Multiplicity = 2

                         Standard orientation:
 ---------------------------------------------------------------------
 Center     Atomic      Atomic             Coordinates (Angstroms)
 Number     Number       Type             X           Y           Z
 ---------------------------------------------------------------------
      1          7           0       -1.854236    1.005134   -0.511896
      2          7           0        2.479408    0.033351    1.037427
      3          7           0        2.080170   -0.366740   -1.291178
      4          7           0       -1.526109    2.349878    0.005314
      5          6           0       -1.268191    0.029997    0.432826
      6          6           0        0.232551   -0.053651    0.204439
      7          6           0        1.156497    0.108759    1.233102
      8          6           0        0.765427   -0.288452   -1.066741
      9          6           0       -1.903743   -1.274696    0.228245
     10          6           0        2.866274   -0.205608   -0.218388
     11          6           0       -2.431940   -2.345917    0.058794
     12          1           0       -1.436100    0.354039    1.474985
     13          1           0       -2.865243    0.934318   -0.385333
     14          1           0        0.823508    0.309806    2.251061
     15          1           0        0.104186   -0.407743   -1.921977
     16          1           0        3.938293   -0.273189   -0.390752
     17          1           0       -0.516688    2.426501   -0.147312
     18          1           0       -1.913026    2.979315   -0.701931
     19          1           0       -2.890806   -3.297005   -0.090066
 ---------------------------------------------------------------------

 SCF Done:  E(UB3LYP) =  -490.602553154     A.U. after   33 cycles
 SCF Done:  E(UB3LYP) =  -490.602553154     a.u. after    1 cycles

 The electronic state is 2-A.
 Alpha  occ. eigenvalues --  -14.22247 -14.21598 -14.17034 -14.16203 -10.11786
 Alpha  occ. eigenvalues --  -10.09393 -10.07695 -10.06951 -10.05807 -10.05612
 Alpha  occ. eigenvalues --  -10.05474  -0.85689  -0.84016  -0.74401  -0.71820
 Alpha  occ. eigenvalues --   -0.65095  -0.63790  -0.56468  -0.51822  -0.49657
 Alpha  occ. eigenvalues --   -0.43907  -0.40821  -0.39306  -0.39288  -0.35550
 Alpha  occ. eigenvalues --   -0.33469  -0.31917  -0.29569  -0.28440  -0.27610
 Alpha  occ. eigenvalues --   -0.26724  -0.23792  -0.18339  -0.18110  -0.17356
 Alpha  occ. eigenvalues --   -0.15841  -0.14435  -0.11362  -0.10578   0.05076
 Alpha virt. eigenvalues --    0.07051   0.07348   0.09397   0.09961   0.10107
 Alpha virt. eigenvalues --    0.10709   0.12043   0.12585   0.13154   0.13509
 Alpha virt. eigenvalues --    0.13870   0.15500   0.16898   0.17304   0.18177

  Beta  occ. eigenvalues --  -14.22222 -14.21560 -14.16970 -14.15831 -10.11776
  Beta  occ. eigenvalues --  -10.09366 -10.07598 -10.06951 -10.05759 -10.05663
  Beta  occ. eigenvalues --  -10.05037  -0.85629  -0.83608  -0.73857  -0.71729
  Beta  occ. eigenvalues --   -0.64820  -0.63721  -0.56285  -0.51212  -0.49498
  Beta  occ. eigenvalues --   -0.43822  -0.40746  -0.39161  -0.39083  -0.35434
  Beta  occ. eigenvalues --   -0.33304  -0.31803  -0.29494  -0.27480  -0.27396
  Beta  occ. eigenvalues --   -0.26486  -0.23726  -0.18149  -0.17326  -0.16451
  Beta  occ. eigenvalues --   -0.15568  -0.13476  -0.11113  -0.10521
  Beta virt. eigenvalues --    0.07657   0.08305   0.09584   0.09984   0.10165
  Beta virt. eigenvalues --    0.10566   0.10920   0.12050   0.12662   0.13222
  Beta virt. eigenvalues --    0.13462   0.14026   0.15447   0.16842   0.17325

 Mulliken charges and spin densities:
               1          2
     1  N   -0.069301  -0.018952
     2  N   -0.152680   0.147385
     3  N   -0.125559   0.036460
     4  N   -0.202927  -0.256648
     5  C   -1.000999   0.358159
     6  C    0.268159   0.031188
     7  C   -0.624523   0.572407
     8  C   -0.071195  -0.198136
     9  C    1.594261  -1.559245
    10  C   -0.060882   0.005028
    11  C   -0.332014   0.144091
    12  H    0.144796   0.027741
    13  H    0.021341   0.208161
    14  H    0.080997   0.050763
    15  H    0.170703  -0.014417
    16  H    0.142084   0.002599
    17  H    0.234244   0.021814
    18  H   -0.144921   0.395413
    19  H   -0.871584   1.046189
 Sum of Mulliken charges =  -1.00000   1.00000

 Dipole moment (field-independent basis, Debye):
    X=              0.6699    Y=              1.5516    Z=              0.7930  Tot=              1.8668
 Quadrupole moment (field-independent basis, Debye-Ang):
   XX=           -108.0507   YY=            -96.9875   ZZ=            -85.5158
   XY=             -2.6566   XZ=             -1.3370   YZ=             -1.3752

 Summary of Natural Population Analysis:

                                       Natural Population
                Natural  -----------------------------------------------
    Atom  No    Charge         Core      Valence    Rydberg      Total
 -----------------------------------------------------------------------
      N    1   -0.24631      0.99975     2.73254    0.01403     3.74631
      N    2   -0.21295      0.99971     2.70045    0.01279     3.71295
      N    3   -0.24780      0.99972     2.73651    0.01158     3.74780
      N    4   -0.33550      0.99978     2.82385    0.01187     3.83550
      C    5   -0.05935      0.99950     2.04476    0.01509     3.05935
      C    6   -0.07293      0.99947     2.06303    0.01043     3.07293
      C    7    0.05389      0.99953     1.93250    0.01408     2.94611
      C    8    0.12293      0.99953     1.86383    0.01372     2.87707
      C    9    0.00373      0.99935     1.98768    0.00924     2.99627
      C   10    0.13568      0.99968     1.84591    0.01874     2.86432
      C   11   -0.11320      0.99926     2.11037    0.00357     3.11320
      H   12    0.10426      0.00000     0.39278    0.00296     0.39574
      H   13    0.16927      0.00000     0.32753    0.00320     0.33073
      H   14    0.08249      0.00000     0.41530    0.00221     0.41751
      H   15    0.08657      0.00000     0.41113    0.00230     0.41343
      H   16    0.07255      0.00000     0.42586    0.00159     0.42745
      H   17    0.17408      0.00000     0.32384    0.00208     0.32592
      H   18    0.17232      0.00000     0.32527    0.00241     0.32768
      H   19    0.11028      0.00000     0.38758    0.00215     0.38972
 =======================================================================
   * Total *    0.00000     10.99528    27.85070    0.15402    39.00000

 Normal termination of Gaussian 16 at Sat Feb 27 18:32:54 2021.
