 Gaussian 16, Revision A.03,

 -----------------------------------------------------------
 # opt freq B3LYP/6-31G(d) empiricaldispersion=gd3bj scf=xqc
 -----------------------------------------------------------

 ------------------------------
 CID_43458127_JID_7868_neutraal
 ------------------------------
 Symbolic Z-matrix:
 Charge =  0 Multiplicity = 1

 SCF Done:  E(RB3LYP) =  -763.800689565     A.U. after   15 cycles
 SCF Done:  E(RB3LYP) =  -763.804085537     A.U. after   12 cycles
 SCF Done:  E(RB3LYP) =  -763.804377468     A.U. after   13 cycles
 SCF Done:  E(RB3LYP) =  -763.805694845     A.U. after   13 cycles
 SCF Done:  E(RB3LYP) =  -763.806273870     A.U. after   12 cycles
 SCF Done:  E(RB3LYP) =  -763.806566212     A.U. after   12 cycles
 SCF Done:  E(RB3LYP) =  -763.806712968     A.U. after   12 cycles
 SCF Done:  E(RB3LYP) =  -763.806804136     A.U. after   12 cycles
 SCF Done:  E(RB3LYP) =  -763.806880456     A.U. after   11 cycles
 SCF Done:  E(RB3LYP) =  -763.806962666     A.U. after   11 cycles
 SCF Done:  E(RB3LYP) =  -763.806982498     A.U. after   11 cycles
 SCF Done:  E(RB3LYP) =  -763.806998531     A.U. after   11 cycles
 SCF Done:  E(RB3LYP) =  -763.807003762     A.U. after   10 cycles
 SCF Done:  E(RB3LYP) =  -763.807004221     A.U. after    8 cycles
 SCF Done:  E(RB3LYP) =  -763.807004270     A.U. after    8 cycles
 Optimization completed.
    -- Stationary point found.
 Normal termination of Gaussian 16 at Fri Dec 11 13:23:43 2020.

 --------------------------------------------------------------------
 #N Geom=AllCheck Guess=TCheck SCRF=Check GenChk RB3LYP/6-31G(d) Freq
 --------------------------------------------------------------------

 Structure from the checkpoint file:  "JID_7868.chk"
 ------------------------------
 CID_43458127_JID_7868_neutraal
 ------------------------------
 Charge =  0 Multiplicity = 1

 SCF Done:  E(RB3LYP) =  -763.807004270     A.U. after    1 cycles

  Exact polarizability: 201.789  10.893 130.861  -5.696   6.322 117.142
 Approx polarizability: 284.645  35.200 204.690 -17.826   9.084 203.588

                      1                      2                      3
                      A                      A                      A
 Frequencies --     23.7336                37.2058                49.9409
 Red. masses --      4.6191                 4.1960                 5.8148
 Frc consts  --      0.0015                 0.0034                 0.0085
 IR Inten    --      0.4524                 0.1626                 1.8934

                      4                      5                      6
                      A                      A                      A
 Frequencies --     77.0161               106.8630               118.3431
 Red. masses --      4.5344                 2.9097                 1.2003
 Frc consts  --      0.0158                 0.0196                 0.0099
 IR Inten    --      1.5720                 0.5970                 0.2593

                      7                      8                      9
                      A                      A                      A
 Frequencies --    126.6842               180.4067               207.4313
 Red. masses --      4.9055                 4.5180                 4.8610
 Frc consts  --      0.0464                 0.0866                 0.1232
 IR Inten    --      0.7561                 8.2655                 1.9652

                     10                     11                     12
                      A                      A                      A
 Frequencies --    239.9073               289.5496               296.6172
 Red. masses --      4.6768                 5.2053                 1.0461
 Frc consts  --      0.1586                 0.2571                 0.0542
 IR Inten    --      4.0820                 1.1312                20.7734

                     13                     14                     15
                      A                      A                      A
 Frequencies --    318.2168               358.4937               384.2464
 Red. masses --      4.2498                 3.6779                 3.7675
 Frc consts  --      0.2536                 0.2785                 0.3277
 IR Inten    --      4.5429                 2.3892                 3.9682

                     16                     17                     18
                      A                      A                      A
 Frequencies --    403.2216               419.7478               434.7121
 Red. masses --      3.5146                 3.1406                 2.5993
 Frc consts  --      0.3367                 0.3260                 0.2894
 IR Inten    --      5.3527                 0.7654                 5.0096

                     19                     20                     21
                      A                      A                      A
 Frequencies --    501.6597               516.7471               552.1330
 Red. masses --      3.9257                 2.6743                 5.1206
 Frc consts  --      0.5821                 0.4207                 0.9197
 IR Inten    --     12.4317                55.6600                10.5780

                     22                     23                     24
                      A                      A                      A
 Frequencies --    619.3554               619.4911               631.8144
 Red. masses --      2.0319                 2.2586                 4.3193
 Frc consts  --      0.4592                 0.5107                 1.0159
 IR Inten    --    179.5788               174.8515                 1.3444

                     25                     26                     27
                      A                      A                      A
 Frequencies --    655.8707               712.9674               741.7345
 Red. masses --      6.8483                 3.2106                 1.3053
 Frc consts  --      1.7357                 0.9616                 0.4231
 IR Inten    --      1.3348                10.5076                14.0576

                     28                     29                     30
                      A                      A                      A
 Frequencies --    744.0474               758.3085               772.2313
 Red. masses --      5.1184                 3.7248                 3.6128
 Frc consts  --      1.6695                 1.2620                 1.2694
 IR Inten    --     15.2921                21.9622                 2.3204

                     31                     32                     33
                      A                      A                      A
 Frequencies --    820.3208               827.1382               834.8505
 Red. masses --      1.5517                 1.4290                 1.4593
 Frc consts  --      0.6152                 0.5760                 0.5993
 IR Inten    --     20.9919                20.1054                23.2856

                     34                     35                     36
                      A                      A                      A
 Frequencies --    862.7217               872.1108               898.6480
 Red. masses --      5.1861                 1.3721                 5.8450
 Frc consts  --      2.2742                 0.6148                 2.7811
 IR Inten    --      1.8967                 4.6297                28.2690

                     37                     38                     39
                      A                      A                      A
 Frequencies --    915.4355               939.5838               953.4593
 Red. masses --      4.6129                 1.3236                 1.3184
 Frc consts  --      2.2776                 0.6885                 0.7061
 IR Inten    --      4.8899                 5.9867                 1.1328

                     40                     41                     42
                      A                      A                      A
 Frequencies --    991.1747              1020.0499              1035.0041
 Red. masses --      2.4649                 2.0006                 2.6902
 Frc consts  --      1.4268                 1.2264                 1.6979
 IR Inten    --     46.9966                 0.5686                 3.5793

                     43                     44                     45
                      A                      A                      A
 Frequencies --   1052.4024              1102.1378              1108.8692
 Red. masses --      1.8819                 1.4756                 2.2480
 Frc consts  --      1.2281                 1.0561                 1.6286
 IR Inten    --     14.8332                 3.7095                34.2208

                     46                     47                     48
                      A                      A                      A
 Frequencies --   1122.4635              1163.9545              1166.8456
 Red. masses --      1.7231                 1.2691                 1.2275
 Frc consts  --      1.2791                 1.0130                 0.9847
 IR Inten    --     70.5171                 6.7857                 5.5017

                     49                     50                     51
                      A                      A                      A
 Frequencies --   1200.4751              1211.0219              1222.6215
 Red. masses --      4.0093                 1.2733                 1.9458
 Frc consts  --      3.4043                 1.1002                 1.7137
 IR Inten    --     47.6873                25.1585                75.3978

                     52                     53                     54
                      A                      A                      A
 Frequencies --   1232.3658              1280.8117              1305.5487
 Red. masses --      2.3204                 1.2746                 3.1068
 Frc consts  --      2.0763                 1.2319                 3.1200
 IR Inten    --      1.0760                 5.0672                13.4295

                     55                     56                     57
                      A                      A                      A
 Frequencies --   1319.7142              1326.2635              1339.7036
 Red. masses --      1.9822                 3.1029                 1.8942
 Frc consts  --      2.0340                 3.2158                 2.0030
 IR Inten    --     67.7981                60.9561                31.7059

                     58                     59                     60
                      A                      A                      A
 Frequencies --   1375.7694              1408.7044              1411.4083
 Red. masses --      2.1812                 3.5847                 1.5855
 Frc consts  --      2.4324                 4.1912                 1.8608
 IR Inten    --      4.1495                 5.6683                59.4745

                     61                     62                     63
                      A                      A                      A
 Frequencies --   1447.5842              1472.0672              1490.8094
 Red. masses --      1.5618                 1.8425                 2.4486
 Frc consts  --      1.9282                 2.3525                 3.2063
 IR Inten    --     95.2536                87.5317                10.9337

                     64                     65                     66
                      A                      A                      A
 Frequencies --   1521.5156              1526.7923              1542.6179
 Red. masses --      1.0818                 1.1156                 1.2341
 Frc consts  --      1.4755                 1.5322                 1.7303
 IR Inten    --      7.1149                 7.9858                14.6843

                     67                     68                     69
                      A                      A                      A
 Frequencies --   1558.9408              1571.2191              1618.7945
 Red. masses --      3.1210                 2.5988                 5.5622
 Frc consts  --      4.4689                 3.7801                 8.5877
 IR Inten    --     74.0161                85.4914                24.4784

                     70                     71                     72
                      A                      A                      A
 Frequencies --   1640.3053              1679.0153              1697.8427
 Red. masses --      6.0013                 2.6213                 1.4972
 Frc consts  --      9.5135                 4.3538                 2.5430
 IR Inten    --      5.0495                12.4636               137.1511

                     73                     74                     75
                      A                      A                      A
 Frequencies --   1732.8637              3027.5199              3036.4125
 Red. masses --     10.8097                 1.0697                 1.0480
 Frc consts  --     19.1247                 5.7768                 5.6928
 IR Inten    --    327.3396                23.3721                74.5252

                     76                     77                     78
                      A                      A                      A
 Frequencies --   3100.8836              3105.5451              3167.6711
 Red. masses --      1.0955                 1.0907                 1.0865
 Frc consts  --      6.2063                 6.1975                 6.4236
 IR Inten    --     25.3478                 8.4551                15.7442

                     79                     80                     81
                      A                      A                      A
 Frequencies --   3177.6827              3186.0907              3193.9822
 Red. masses --      1.0883                 1.0940                 1.0976
 Frc consts  --      6.4748                 6.5434                 6.5973
 IR Inten    --     17.2140                27.7822                 1.5072

                     82                     83                     84
                      A                      A                      A
 Frequencies --   3204.0205              3289.9741              3300.3565
 Red. masses --      1.0920                 1.0898                 1.0983
 Frc consts  --      6.6051                 6.9498                 7.0482
 IR Inten    --      7.3139                 0.3950                 4.7286

                     85                     86                     87
                      A                      A                      A
 Frequencies --   3312.1546              3551.6246              3650.3441
 Red. masses --      1.1080                 1.0479                 1.0982
 Frc consts  --      7.1616                 7.7877                 8.6215
 IR Inten    --      2.7572                15.5744                 8.7891

 - Thermochemistry -
 -------------------
 Temperature   298.150 Kelvin.  Pressure   1.00000 Atm.
 Atom     1 has atomic number  6 and mass  12.00000

 Molecular mass:   230.10553 amu.
 Principal axes and moments of inertia in atomic units:
                           1         2         3
     Eigenvalues --  2281.382386550.637407837.39221
           X            0.99999   0.00209   0.00275
           Y           -0.00213   0.99992   0.01265
           Z           -0.00272  -0.01266   0.99992
 This molecule is an asymmetric top.
 Rotational symmetry number  1.
 Warning -- assumption of classical behavior for rotation
           may cause significant error
 Rotational temperatures (Kelvin)      0.03797     0.01322     0.01105
 Rotational constants (GHZ):           0.79107     0.27551     0.23027
 Zero-point vibrational energy     664076.4 (Joules/Mol)
                                  158.71807 (Kcal/Mol)
 Warning -- explicit consideration of  23 degrees of freedom as
           vibrations may cause significant error
 Vibrational temperatures:     34.15    53.53    71.85   110.81   153.75
          (Kelvin)            170.27   182.27   259.57   298.45   345.17
                              416.60   426.77   457.84   515.79   552.84
                              580.15   603.92   625.45   721.78   743.48
                              794.40   891.11   891.31   909.04   943.65
                             1025.80  1067.19  1070.52  1091.04  1111.07
                             1180.26  1190.07  1201.16  1241.26  1254.77
                             1292.95  1317.11  1351.85  1371.82  1426.08
                             1467.62  1489.14  1514.17  1585.73  1595.42
                             1614.97  1674.67  1678.83  1727.22  1742.39
                             1759.08  1773.10  1842.80  1878.39  1898.77
                             1908.20  1927.53  1979.43  2026.81  2030.70
                             2082.75  2117.98  2144.94  2189.12  2196.71
                             2219.48  2242.97  2260.63  2329.08  2360.03
                             2415.73  2442.82  2493.20  4355.93  4368.72
                             4461.48  4468.19  4557.57  4571.98  4584.07
                             4595.43  4609.87  4733.54  4748.48  4765.45
                             5110.00  5252.03

 Zero-point correction=                           0.252933 (Hartree/Particle)
 Thermal correction to Energy=                    0.268327
 Thermal correction to Enthalpy=                  0.269271
 Thermal correction to Gibbs Free Energy=         0.208614
 Sum of electronic and zero-point Energies=           -763.554071
 Sum of electronic and thermal Energies=              -763.538677
 Sum of electronic and thermal Enthalpies=            -763.537733
 Sum of electronic and thermal Free Energies=         -763.598390

                     E (Thermal)             CV                S
                      KCal/Mol        Cal/Mol-Kelvin    Cal/Mol-Kelvin
 Total                  168.378             58.716            127.664
 Electronic               0.000              0.000              0.000
 Translational            0.889              2.981             42.202
 Rotational               0.889              2.981             33.126
 Vibrational            166.600             52.755             52.336
 Vibration     1          0.593              1.985              6.294
 Vibration     2          0.594              1.982              5.403
 Vibration     3          0.595              1.978              4.820
 Vibration     4          0.599              1.964              3.966
 Vibration     5          0.606              1.944              3.325
 Vibration     6          0.609              1.934              3.127
 Vibration     7          0.611              1.926              2.996
 Vibration     8          0.629              1.866              2.324
 Vibration     9          0.641              1.829              2.066
 Vibration    10          0.657              1.779              1.804
 Vibration    11          0.686              1.693              1.477
 Vibration    12          0.690              1.680              1.436
 Vibration    13          0.705              1.639              1.319
 Vibration    14          0.733              1.558              1.129
 Vibration    15          0.753              1.504              1.022
 Vibration    16          0.769              1.463              0.951
 Vibration    17          0.782              1.427              0.893
 Vibration    18          0.795              1.395              0.843
 Vibration    19          0.857              1.246              0.654
 Vibration    20          0.872              1.213              0.618
 Vibration    21          0.907              1.135              0.540
 Vibration    22          0.979              0.991              0.418
 Vibration    23          0.979              0.991              0.417

                           ! Non-Optimized Parameters !
 Normal termination of Gaussian 16 at Fri Dec 11 13:33:39 2020.

 ----------------------------------------------------------------------
 # B3LYP/6-311++G(d,p) empiricaldispersion=gd3bj scf=xqc pop=npa geom=c
 heck
 ----------------------------------------------------------------------

 --------------------------------------
 CID_43458127_JID_7868_Energie_neutraal
 --------------------------------------
 Structure from the checkpoint file:  "JID_7868.chk"
 Charge =  0 Multiplicity = 1

 SCF Done:  E(RB3LYP) =  -764.022105991     A.U. after   17 cycles
 Normal termination of Gaussian 16 at Fri Dec 11 13:38:03 2020.

 ----------------------------------------------------------------------
 # B3LYP/6-311++G(d,p) empiricaldispersion=gd3bj scf=xqc pop=npa geom=c
 heck
 ----------------------------------------------------------------------

 ------------------------------------
 CID_43458127_JID_7868_Energie_kation
 ------------------------------------
 Structure from the checkpoint file:  "JID_7868.chk"
 Charge =  1 Multiplicity = 2

 SCF Done:  E(UB3LYP) =  -763.741679345     A.U. after   26 cycles
 Normal termination of Gaussian 16 at Fri Dec 11 13:47:06 2020.
 Gaussian 16:  ES64L-G16RevA.03 25-Dec-2016

 ----------------------------------------------------------------------
 # B3LYP/6-311++G(d,p) empiricaldispersion=gd3bj scf=xqc pop=npa geom=c
 heck
 ----------------------------------------------------------------------

 -----------------------------------
 CID_43458127_JID_7868_Energie_anion
 -----------------------------------
 Structure from the checkpoint file:  "JID_7868.chk"
 Charge = -1 Multiplicity = 2

                         Standard orientation:
 ---------------------------------------------------------------------
 Center     Atomic      Atomic             Coordinates (Angstroms)
 Number     Number       Type             X           Y           Z
 ---------------------------------------------------------------------
      1          6           0        0.559894    2.973025   -0.241375
      2          7           0        0.905488    1.616227    0.157642
      3          6           0        0.040111    1.013910    1.159031
      4          6           0       -1.267575    0.470935    0.609111
      5          6           0       -2.370788    0.305011    1.453710
      6          6           0       -3.565991   -0.229818    0.987027
      7          6           0       -3.698998   -0.613138   -0.358463
      8          6           0       -2.598148   -0.438897   -1.211202
      9          6           0       -1.405014    0.092793   -0.729703
     10          7           0       -4.878405   -1.201863   -0.820431
     11          6           0        2.086177    1.080634   -0.303835
     12          8           0        2.882725    1.746746   -0.964721
     13          6           0        2.399227   -0.348042   -0.026839
     14          6           0        1.603145   -1.445915    0.171799
     15          8           0        2.357699   -2.572123    0.254933
     16          6           0        3.666747   -2.191413    0.106838
     17          6           0        3.748563   -0.851093   -0.078542
     18          1           0        0.759897    3.685732    0.570424
     19          1           0       -0.505134    3.015147   -0.492219
     20          1           0        1.161400    3.247727   -1.106195
     21          1           0        0.601713    0.227147    1.669652
     22          1           0       -0.177082    1.775313    1.921121
     23          1           0       -2.296576    0.602454    2.497792
     24          1           0       -4.408178   -0.351716    1.664166
     25          1           0       -2.679963   -0.724856   -2.257195
     26          1           0       -0.567567    0.227192   -1.408030
     27          1           0       -5.034989   -1.113784   -1.816799
     28          1           0       -5.708905   -0.960604   -0.294083
     29          1           0        0.536076   -1.593436    0.230230
     30          1           0        4.390886   -2.989325    0.157478
     31          1           0        4.631341   -0.252466   -0.243854
 ---------------------------------------------------------------------

 SCF Done:  E(UB3LYP) =  -764.013111792     A.U. after   33 cycles
 SCF Done:  E(UB3LYP) =  -764.013111792     a.u. after    1 cycles

 The electronic state is 2-A.
 Alpha  occ. eigenvalues --  -19.10400 -18.98527 -14.24890 -14.21136 -10.17585
 Alpha  occ. eigenvalues --  -10.13839 -10.13369 -10.12029 -10.11468 -10.10500
 Alpha  occ. eigenvalues --  -10.09099 -10.08900 -10.07856 -10.07796 -10.07652
 Alpha  occ. eigenvalues --  -10.07049 -10.07045  -1.02891  -0.94044  -0.84480
 Alpha  occ. eigenvalues --   -0.81694  -0.74676  -0.72332  -0.66944  -0.66331
 Alpha  occ. eigenvalues --   -0.65028  -0.62041  -0.59100  -0.52896  -0.52041
 Alpha  occ. eigenvalues --   -0.49830  -0.49483  -0.47617  -0.44352  -0.42650
 Alpha  occ. eigenvalues --   -0.41046  -0.38846  -0.38706  -0.37819  -0.37093
 Alpha  occ. eigenvalues --   -0.35388  -0.35312  -0.33471  -0.33070  -0.32379
 Alpha  occ. eigenvalues --   -0.32109  -0.31278  -0.30889  -0.29952  -0.29561
 Alpha  occ. eigenvalues --   -0.28493  -0.27901  -0.26809  -0.24583  -0.21088
 Alpha  occ. eigenvalues --   -0.19769  -0.16573  -0.15953  -0.15451  -0.15134
 Alpha  occ. eigenvalues --   -0.10828   0.04208
 Alpha virt. eigenvalues --    0.05637   0.06454   0.06774   0.07541   0.07874
 Alpha virt. eigenvalues --    0.08573   0.09036   0.09211   0.09530   0.09840
 Alpha virt. eigenvalues --    0.10745   0.11225   0.11769   0.11878   0.12194

  Beta  occ. eigenvalues --  -19.10318 -18.98451 -14.24882 -14.21060 -10.17511
  Beta  occ. eigenvalues --  -10.13834 -10.13219 -10.12022 -10.11463 -10.10495
  Beta  occ. eigenvalues --  -10.09096 -10.08905 -10.07853 -10.07789 -10.07648
  Beta  occ. eigenvalues --  -10.07026 -10.07024  -1.02747  -0.93911  -0.84430
  Beta  occ. eigenvalues --   -0.81610  -0.74638  -0.72264  -0.66825  -0.66275
  Beta  occ. eigenvalues --   -0.64998  -0.61974  -0.59022  -0.52805  -0.51995
  Beta  occ. eigenvalues --   -0.49699  -0.49425  -0.47545  -0.44312  -0.42571
  Beta  occ. eigenvalues --   -0.40994  -0.38776  -0.38592  -0.37759  -0.36759
  Beta  occ. eigenvalues --   -0.35303  -0.35241  -0.33426  -0.33027  -0.32341
  Beta  occ. eigenvalues --   -0.32053  -0.31224  -0.30815  -0.29811  -0.29500
  Beta  occ. eigenvalues --   -0.28437  -0.27745  -0.26742  -0.24551  -0.21038
  Beta  occ. eigenvalues --   -0.19575  -0.16493  -0.15922  -0.15145  -0.14798
  Beta  occ. eigenvalues --   -0.10772
  Beta virt. eigenvalues --    0.06451   0.06823   0.06962   0.07593   0.07887
  Beta virt. eigenvalues --    0.08106   0.08964   0.09369   0.09475   0.09642
  Beta virt. eigenvalues --    0.10072   0.10933   0.11475   0.11680   0.12114

 Mulliken charges and spin densities:
               1          2
     1  C   -0.053582  -0.231489
     2  N    0.188185   0.012645
     3  C   -0.133034  -1.238902
     4  C    1.767124  -0.653887
     5  C   -0.814678   0.684184
     6  C    0.015583  -0.076231
     7  C    1.541487  -1.986395
     8  C   -0.914707   0.660118
     9  C   -0.330768   0.033163
    10  N   -0.276865  -0.020721
    11  C   -0.673063  -0.070161
    12  O   -0.338809   0.026794
    13  C    0.438379   0.102950
    14  C   -0.428749   0.094160
    15  O    0.000027   0.008135
    16  C   -0.223232  -0.003228
    17  C    0.262474   0.003761
    18  H    0.004785   0.148794
    19  H    0.128972   0.013478
    20  H    0.173358   0.012597
    21  H    0.174813   0.000751
    22  H   -0.001119   0.169268
    23  H   -0.317657   0.472940
    24  H   -0.760083   0.944268
    25  H   -0.486070   0.664644
    26  H    0.146532   0.025725
    27  H   -0.334791   0.582029
    28  H   -0.360944   0.615372
    29  H    0.278349  -0.019670
    30  H    0.157567   0.010594
    31  H    0.170517   0.014312
 Sum of Mulliken charges =  -1.00000   1.00000

 Dipole moment (field-independent basis, Debye):
    X=             10.9117    Y=              0.4904    Z=              2.0845  Tot=             11.1198
 Quadrupole moment (field-independent basis, Debye-Ang):
   XX=           -215.4527   YY=           -131.2604   ZZ=           -133.5123
   XY=            -19.6013   XZ=             -0.3365   YZ=             -2.2292

 Summary of Natural Population Analysis:

                                       Natural Population
                Natural  -----------------------------------------------
    Atom  No    Charge         Core      Valence    Rydberg      Total
 -----------------------------------------------------------------------
      C    1   -0.17935      0.99964     2.17335    0.00635     3.17935
      N    2   -0.24963      0.99965     2.74062    0.00936     3.74963
      C    3   -0.08981      0.99957     2.07921    0.01103     3.08981
      C    4   -0.05488      0.99949     2.04551    0.00987     3.05488
      C    5   -0.09176      0.99952     2.08224    0.01000     3.09176
      C    6   -0.11804      0.99952     2.10795    0.01057     3.11804
      C    7    0.08670      0.99949     1.90185    0.01196     2.91330
      C    8   -0.11950      0.99952     2.10949    0.01049     3.11950
      C    9   -0.09924      0.99952     2.09049    0.00923     3.09924
      N   10   -0.39319      0.99972     2.88279    0.01068     3.89319
      C   11    0.34469      0.99958     1.63417    0.02156     2.65531
      O   12   -0.32325      0.99988     3.31836    0.00501     4.32325
      C   13   -0.11293      0.99949     2.10440    0.00904     3.11293
      C   14    0.10263      0.99948     1.88427    0.01363     2.89737
      O   15   -0.22342      0.99987     3.21590    0.00765     4.22342
      C   16    0.04885      0.99952     1.93847    0.01316     2.95115
      C   17   -0.13404      0.99954     2.12550    0.00900     3.13404
      H   18    0.08984      0.00000     0.40882    0.00133     0.41016
      H   19    0.09773      0.00000     0.40129    0.00098     0.40227
      H   20    0.11318      0.00000     0.38575    0.00108     0.38682
      H   21    0.10821      0.00000     0.39040    0.00139     0.39179
      H   22    0.09832      0.00000     0.40048    0.00120     0.40168
      H   23    0.09870      0.00000     0.40022    0.00108     0.40130
      H   24    0.10321      0.00000     0.39513    0.00166     0.39679
      H   25    0.10140      0.00000     0.39757    0.00104     0.39860
      H   26    0.10363      0.00000     0.39454    0.00183     0.39637
      H   27    0.18894      0.00000     0.30387    0.00719     0.31106
      H   28    0.19049      0.00000     0.29997    0.00954     0.30951
      H   29    0.10438      0.00000     0.39403    0.00159     0.39562
      H   30    0.09260      0.00000     0.40652    0.00088     0.40740
      H   31    0.11556      0.00000     0.38350    0.00094     0.38444
 =======================================================================
   * Total *   -0.00000     16.99301    43.79666    0.21033    61.00000

 Normal termination of Gaussian 16 at Fri Dec 11 13:58:36 2020.
