 Gaussian 16, Revision A.03,

 -----------------------------------------------------------
 # opt freq B3LYP/6-31G(d) empiricaldispersion=gd3bj scf=xqc
 -----------------------------------------------------------

 -------------------------------
 CID_130740801_JID_3945_neutraal
 -------------------------------
 Symbolic Z-matrix:
 Charge =  0 Multiplicity = 1

 SCF Done:  E(RB3LYP) =  -606.195727136     A.U. after   16 cycles
 SCF Done:  E(RB3LYP) =  -606.203349535     A.U. after   15 cycles
 SCF Done:  E(RB3LYP) =  -606.203891762     A.U. after   13 cycles
 SCF Done:  E(RB3LYP) =  -606.204903891     A.U. after   13 cycles
 SCF Done:  E(RB3LYP) =  -606.205204191     A.U. after   12 cycles
 SCF Done:  E(RB3LYP) =  -606.205752625     A.U. after   14 cycles
 SCF Done:  E(RB3LYP) =  -606.206469111     A.U. after   14 cycles
 SCF Done:  E(RB3LYP) =  -606.207954786     A.U. after   16 cycles
 SCF Done:  E(RB3LYP) =  -606.208244169     A.U. after   13 cycles
 SCF Done:  E(RB3LYP) =  -606.208102958     A.U. after   14 cycles
 SCF Done:  E(RB3LYP) =  -606.209048694     A.U. after   10 cycles
 SCF Done:  E(RB3LYP) =  -606.209049468     A.U. after   10 cycles
 SCF Done:  E(RB3LYP) =  -606.209049752     A.U. after    8 cycles
 SCF Done:  E(RB3LYP) =  -606.209049816     A.U. after    7 cycles
 SCF Done:  E(RB3LYP) =  -606.209049844     A.U. after    7 cycles
 SCF Done:  E(RB3LYP) =  -606.209049854     A.U. after    6 cycles
 Optimization completed.
    -- Stationary point found.
 Normal termination of Gaussian 16 at Mon Dec 14 16:36:56 2020.

 --------------------------------------------------------------------
 #N Geom=AllCheck Guess=TCheck SCRF=Check GenChk RB3LYP/6-31G(d) Freq
 --------------------------------------------------------------------

 Structure from the checkpoint file:  "JID_3945.chk"
 -------------------------------
 CID_130740801_JID_3945_neutraal
 -------------------------------
 Charge =  0 Multiplicity = 1

 SCF Done:  E(RB3LYP) =  -606.209049854     A.U. after    1 cycles

  Exact polarizability: 152.335  -2.003 131.268  -2.988  -3.547  76.822
 Approx polarizability: 240.550   5.094 200.364 -14.539 -14.181 124.002

                      1                      2                      3
                      A                      A                      A
 Frequencies --     22.2639                61.6709                74.8546
 Red. masses --      3.9898                 5.2187                 2.0487
 Frc consts  --      0.0012                 0.0117                 0.0068
 IR Inten    --      0.0285                 0.5809                 2.2075

                      4                      5                      6
                      A                      A                      A
 Frequencies --     87.9333               128.4264               152.6088
 Red. masses --      3.0825                 3.2098                 3.2104
 Frc consts  --      0.0140                 0.0312                 0.0441
 IR Inten    --      0.1402                 1.0638                 0.6035

                      7                      8                      9
                      A                      A                      A
 Frequencies --    163.7814               197.7147               243.4655
 Red. masses --      2.4192                 2.6452                 5.4072
 Frc consts  --      0.0382                 0.0609                 0.1888
 IR Inten    --      1.1964                 4.4068                 2.5509

                     10                     11                     12
                      A                      A                      A
 Frequencies --    291.6277               304.8364               321.5016
 Red. masses --      3.2237                 2.3871                 2.9064
 Frc consts  --      0.1615                 0.1307                 0.1770
 IR Inten    --      1.0679                 1.1669                 0.6420

                     13                     14                     15
                      A                      A                      A
 Frequencies --    405.5500               438.4459               464.1514
 Red. masses --      4.2085                 4.6786                 3.3306
 Frc consts  --      0.4078                 0.5299                 0.4228
 IR Inten    --      8.6122                 3.2581                 2.6511

                     16                     17                     18
                      A                      A                      A
 Frequencies --    508.8833               538.9277               554.2765
 Red. masses --      4.6173                12.1666                 2.6779
 Frc consts  --      0.7045                 2.0820                 0.4847
 IR Inten    --      3.4288                 7.9424                 1.1766

                     19                     20                     21
                      A                      A                      A
 Frequencies --    616.0334               662.0676               727.2096
 Red. masses --      3.9850                 4.4853                 4.8103
 Frc consts  --      0.8910                 1.1584                 1.4988
 IR Inten    --      1.1631                 4.3062                 6.7034

                     22                     23                     24
                      A                      A                      A
 Frequencies --    787.2805               842.2196               884.3369
 Red. masses --      5.2363                 1.4641                 2.2979
 Frc consts  --      1.9122                 0.6119                 1.0588
 IR Inten    --      5.3859                 1.7150                 4.3192

                     25                     26                     27
                      A                      A                      A
 Frequencies --    886.2700               916.6397               927.1391
 Red. masses --      2.8502                 2.4627                 1.5939
 Frc consts  --      1.3190                 1.2192                 0.8072
 IR Inten    --     19.8913               101.0024                 0.7031

                     28                     29                     30
                      A                      A                      A
 Frequencies --    940.4592               989.8274              1070.0060
 Red. masses --      1.5957                 2.3696                 3.2191
 Frc consts  --      0.8315                 1.3678                 2.1715
 IR Inten    --     18.1354                16.1907                68.5479

                     31                     32                     33
                      A                      A                      A
 Frequencies --   1099.1294              1108.4437              1116.2877
 Red. masses --      2.5093                 5.5520                 2.0883
 Frc consts  --      1.7861                 4.0191                 1.5332
 IR Inten    --     23.9865               164.8014                 8.5252

                     34                     35                     36
                      A                      A                      A
 Frequencies --   1129.0322              1174.6025              1186.9817
 Red. masses --      2.4457                 1.1693                 1.2647
 Frc consts  --      1.8368                 0.9505                 1.0498
 IR Inten    --     22.1895                 0.4693                 0.7444

                     37                     38                     39
                      A                      A                      A
 Frequencies --   1212.5457              1228.4819              1252.6172
 Red. masses --      1.4515                 1.5884                 2.8410
 Frc consts  --      1.2574                 1.4124                 2.6264
 IR Inten    --      1.0521                 4.3775                27.9222

                     40                     41                     42
                      A                      A                      A
 Frequencies --   1287.0227              1308.9517              1352.1890
 Red. masses --      1.2773                 1.2565                 4.8671
 Frc consts  --      1.2466                 1.2684                 5.2432
 IR Inten    --      5.0831                 5.7328               139.2471

                     43                     44                     45
                      A                      A                      A
 Frequencies --   1382.0071              1388.8370              1394.1216
 Red. masses --      1.4031                 1.4063                 1.4121
 Frc consts  --      1.5789                 1.5983                 1.6171
 IR Inten    --     24.7980                 9.9900                 6.8335

                     46                     47                     48
                      A                      A                      A
 Frequencies --   1400.2953              1409.2359              1487.8710
 Red. masses --      1.7012                 1.7673                 1.1553
 Frc consts  --      1.9654                 2.0679                 1.5068
 IR Inten    --     19.7783                17.6805                 5.7601

                     49                     50                     51
                      A                      A                      A
 Frequencies --   1498.7863              1506.3126              1513.5009
 Red. masses --      1.1029                 1.0513                 1.0864
 Frc consts  --      1.4597                 1.4054                 1.4663
 IR Inten    --      3.5781                 4.0562                 2.8224

                     52                     53                     54
                      A                      A                      A
 Frequencies --   1520.0899              1531.3595              1535.2961
 Red. masses --      1.0871                 1.1059                 1.0500
 Frc consts  --      1.4799                 1.5280                 1.4582
 IR Inten    --      4.3746                 0.9475                20.1224

                     55                     56                     57
                      A                      A                      A
 Frequencies --   1667.1174              1689.3594              2263.4193
 Red. masses --      7.3684                 8.1828                13.9711
 Frc consts  --     12.0657                13.7593                42.1706
 IR Inten    --     34.3252                19.1508               537.1912

                     58                     59                     60
                      A                      A                      A
 Frequencies --   3018.7940              3023.8114              3036.7921
 Red. masses --      1.0755                 1.0693                 1.0675
 Frc consts  --      5.7749                 5.7605                 5.8005
 IR Inten    --     19.9260                20.7065                20.5636

                     61                     62                     63
                      A                      A                      A
 Frequencies --   3044.6454              3046.4724              3072.4110
 Red. masses --      1.0617                 1.0306                 1.0916
 Frc consts  --      5.7985                 5.6358                 6.0711
 IR Inten    --     35.7271                94.1172                24.1143

                     64                     65                     66
                      A                      A                      A
 Frequencies --   3089.2909              3093.7609              3114.9921
 Red. masses --      1.0967                 1.1034                 1.1075
 Frc consts  --      6.1668                 6.2225                 6.3318
 IR Inten    --     55.0862                48.1067                38.4452

                     67                     68                     69
                      A                      A                      A
 Frequencies --   3139.9026              3156.1617              3159.8128
 Red. masses --      1.0867                 1.1039                 1.0871
 Frc consts  --      6.3122                 6.4788                 6.3952
 IR Inten    --      5.1750                21.0514                 7.1789

 - Thermochemistry -
 -------------------
 Temperature   298.150 Kelvin.  Pressure   1.00000 Atm.
 Atom     1 has atomic number  6 and mass  12.00000

 Molecular mass:   180.10111 amu.
 Principal axes and moments of inertia in atomic units:
                           1         2         3
     Eigenvalues --  1934.306992748.426014408.39916
           X            0.99956   0.02973  -0.00223
           Y           -0.02971   0.99951   0.00968
           Z            0.00251  -0.00961   0.99995
 This molecule is an asymmetric top.
 Rotational symmetry number  1.
 Warning -- assumption of classical behavior for rotation
           may cause significant error
 Rotational temperatures (Kelvin)      0.04478     0.03151     0.01965
 Rotational constants (GHZ):           0.93302     0.65665     0.40939
 Zero-point vibrational energy     537429.2 (Joules/Mol)
                                  128.44867 (Kcal/Mol)
 Warning -- explicit consideration of  19 degrees of freedom as
           vibrations may cause significant error
 Vibrational temperatures:     32.03    88.73   107.70   126.52   184.78
          (Kelvin)            219.57   235.64   284.47   350.29   419.59
                              438.59   462.57   583.50   630.83   667.81
                              732.17   775.40   797.48   886.33   952.57
                             1046.29  1132.72  1211.77  1272.36  1275.14
                             1318.84  1333.95  1353.11  1424.14  1539.50
                             1581.40  1594.80  1606.09  1624.43  1689.99
                             1707.80  1744.58  1767.51  1802.24  1851.74
                             1883.29  1945.50  1988.40  1998.23  2005.83
                             2014.71  2027.58  2140.71  2156.42  2167.25
                             2177.59  2187.07  2203.28  2208.95  2398.61
                             2430.61  3256.56  4343.37  4350.59  4369.27
                             4380.57  4383.19  4420.51  4444.80  4451.23
                             4481.78  4517.62  4541.01  4546.27

 Zero-point correction=                           0.204696 (Hartree/Particle)
 Thermal correction to Energy=                    0.217586
 Thermal correction to Enthalpy=                  0.218530
 Thermal correction to Gibbs Free Energy=         0.163890
 Sum of electronic and zero-point Energies=           -606.004354
 Sum of electronic and thermal Energies=              -605.991464
 Sum of electronic and thermal Enthalpies=            -605.990520
 Sum of electronic and thermal Free Energies=         -606.045160

                     E (Thermal)             CV                S
                      KCal/Mol        Cal/Mol-Kelvin    Cal/Mol-Kelvin
 Total                  136.537             46.532            115.000
 Electronic               0.000              0.000              0.000
 Translational            0.889              2.981             41.472
 Rotational               0.889              2.981             31.528
 Vibrational            134.760             40.570             42.001
 Vibration     1          0.593              1.985              6.421
 Vibration     2          0.597              1.973              4.403
 Vibration     3          0.599              1.966              4.021
 Vibration     4          0.601              1.958              3.706
 Vibration     5          0.611              1.925              2.969
 Vibration     6          0.619              1.900              2.639
 Vibration     7          0.623              1.887              2.506
 Vibration     8          0.637              1.843              2.154
 Vibration     9          0.659              1.774              1.777
 Vibration    10          0.687              1.689              1.464
 Vibration    11          0.696              1.665              1.390
 Vibration    12          0.707              1.632              1.302
 Vibration    13          0.771              1.458              0.942
 Vibration    14          0.799              1.386              0.832
 Vibration    15          0.822              1.330              0.754
 Vibration    16          0.864              1.230              0.636
 Vibration    17          0.894              1.164              0.568
 Vibration    18          0.910              1.130              0.535
 Vibration    19          0.976              0.998              0.423

 Optimization completed.
    -- Stationary point found.
 Normal termination of Gaussian 16 at Mon Dec 14 16:42:39 2020.

 ----------------------------------------------------------------------
 # B3LYP/6-311++G(d,p) empiricaldispersion=gd3bj scf=xqc pop=npa geom=c
 heck
 ----------------------------------------------------------------------

 ---------------------------------------
 CID_130740801_JID_3945_Energie_neutraal
 ---------------------------------------
 Structure from the checkpoint file:  "JID_3945.chk"
 Charge =  0 Multiplicity = 1

 SCF Done:  E(RB3LYP) =  -606.374944032     A.U. after   16 cycles
 Normal termination of Gaussian 16 at Mon Dec 14 16:45:22 2020.

 ----------------------------------------------------------------------
 # B3LYP/6-311++G(d,p) empiricaldispersion=gd3bj scf=xqc pop=npa geom=c
 heck
 ----------------------------------------------------------------------

 -------------------------------------
 CID_130740801_JID_3945_Energie_kation
 -------------------------------------
 Structure from the checkpoint file:  "JID_3945.chk"
 Charge =  1 Multiplicity = 2

 SCF Done:  E(UB3LYP) =  -606.080345456     A.U. after   24 cycles
 Normal termination of Gaussian 16 at Mon Dec 14 16:51:14 2020.
 Gaussian 16:  ES64L-G16RevA.03 25-Dec-2016

 ----------------------------------------------------------------------
 # B3LYP/6-311++G(d,p) empiricaldispersion=gd3bj scf=xqc pop=npa geom=c
 heck
 ----------------------------------------------------------------------

 ------------------------------------
 CID_130740801_JID_3945_Energie_anion
 ------------------------------------
 Structure from the checkpoint file:  "JID_3945.chk"
 Charge = -1 Multiplicity = 2

                         Standard orientation:
 ---------------------------------------------------------------------
 Center     Atomic      Atomic             Coordinates (Angstroms)
 Number     Number       Type             X           Y           Z
 ---------------------------------------------------------------------
      1          6           0        3.940173   -0.914499   -0.354350
      2          8           0        2.527786   -0.749695   -0.281149
      3          7           0        2.245691    0.266445    0.633022
      4          6           0        0.987307    0.477154    0.796532
      5          6           0       -0.201138   -0.222762    0.290606
      6          6           0       -1.352617    0.470946    0.112967
      7          6           0       -2.697419   -0.158175   -0.141067
      8          6           0       -2.695738   -1.662337    0.139011
      9          6           0       -1.457078   -2.300545   -0.490408
     10          6           0       -0.175909   -1.734016    0.130092
     11          7           0       -1.466175    1.888677    0.192206
     12          7           0       -0.545198    2.606485   -0.225778
     13          7           0        0.191457    3.394910   -0.593158
     14          1           0        4.104624   -1.687214   -1.108917
     15          1           0        4.349545   -1.239379    0.609029
     16          1           0        4.426277    0.018392   -0.660057
     17          1           0        0.809128    1.307765    1.478894
     18          1           0       -2.989894    0.037028   -1.183508
     19          1           0       -3.438631    0.364182    0.476822
     20          1           0       -3.616073   -2.114016   -0.247512
     21          1           0       -2.683343   -1.833805    1.223717
     22          1           0       -1.471389   -3.389517   -0.368673
     23          1           0       -1.460245   -2.101098   -1.570906
     24          1           0       -0.012156   -2.181003    1.122185
     25          1           0        0.693964   -2.013990   -0.466222
 ---------------------------------------------------------------------

 SCF Done:  E(UB3LYP) =  -606.376145482     A.U. after   29 cycles

 The electronic state is 2-A.
 Alpha  occ. eigenvalues --  -19.02774 -14.31471 -14.21887 -14.21454 -14.19928
 Alpha  occ. eigenvalues --  -10.10259 -10.06352 -10.05189 -10.04783 -10.04602
 Alpha  occ. eigenvalues --  -10.04516 -10.03863 -10.03068  -0.98549  -0.95187
 Alpha  occ. eigenvalues --   -0.83178  -0.73353  -0.70655  -0.63040  -0.62166
 Alpha  occ. eigenvalues --   -0.56735  -0.51595  -0.50595  -0.44631  -0.43995
 Alpha  occ. eigenvalues --   -0.38959  -0.36962  -0.36517  -0.35107  -0.34472
 Alpha  occ. eigenvalues --   -0.33767  -0.31568  -0.30616  -0.30474  -0.29593
 Alpha  occ. eigenvalues --   -0.27753  -0.26436  -0.25492  -0.25120  -0.23684
 Alpha  occ. eigenvalues --   -0.21285  -0.20759  -0.20488  -0.17629  -0.15145
 Alpha  occ. eigenvalues --   -0.13437  -0.12063  -0.07711   0.05072
 Alpha virt. eigenvalues --    0.07647   0.08235   0.09542   0.09912   0.10446
 Alpha virt. eigenvalues --    0.11203   0.11606   0.12040   0.12713   0.12990
 Alpha virt. eigenvalues --    0.13286   0.14052   0.14402   0.15422   0.16752

  Beta  occ. eigenvalues --  -19.02740 -14.31177 -14.21579 -14.21431 -14.19575
  Beta  occ. eigenvalues --  -10.10257 -10.06011 -10.05101 -10.04764 -10.04586
  Beta  occ. eigenvalues --  -10.04531 -10.03867 -10.03033  -0.97950  -0.94978
  Beta  occ. eigenvalues --   -0.82850  -0.73005  -0.70462  -0.62701  -0.62036
  Beta  occ. eigenvalues --   -0.56660  -0.51291  -0.50485  -0.44397  -0.43902
  Beta  occ. eigenvalues --   -0.38762  -0.36695  -0.35435  -0.34699  -0.34279
  Beta  occ. eigenvalues --   -0.33592  -0.31392  -0.30425  -0.29669  -0.29406
  Beta  occ. eigenvalues --   -0.27559  -0.26054  -0.25383  -0.25000  -0.22941
  Beta  occ. eigenvalues --   -0.21193  -0.20665  -0.20368  -0.16692  -0.14836
  Beta  occ. eigenvalues --   -0.13059  -0.11531  -0.06755
  Beta virt. eigenvalues --    0.07775   0.08255   0.09769   0.09966   0.10622
  Beta virt. eigenvalues --    0.10889   0.11699   0.11813   0.12214   0.12797
  Beta virt. eigenvalues --    0.13197   0.13351   0.14110   0.14826   0.15918

 Mulliken charges and spin densities:
               1          2
     1  C   -0.238025  -0.025599
     2  O   -0.003854   0.004360
     3  N   -0.221183   0.170114
     4  C   -0.612284   0.052761
     5  C    1.764861   0.438698
     6  C   -1.418021  -0.402544
     7  C   -0.031714  -0.146342
     8  C   -0.172215  -0.090348
     9  C    0.017771  -0.223805
    10  C   -0.528230  -0.320876
    11  N    0.074298  -0.164018
    12  N    0.245394   0.187777
    13  N   -0.396851   0.295033
    14  H    0.094961   0.016913
    15  H    0.099678   0.029579
    16  H    0.137757  -0.005878
    17  H    0.134788   0.065981
    18  H   -0.065265   0.247196
    19  H    0.102043   0.049201
    20  H   -0.326868   0.478548
    21  H    0.124817  -0.013603
    22  H   -0.110711   0.250141
    23  H    0.035100   0.095627
    24  H    0.059519   0.084117
    25  H    0.234234  -0.073036
 Sum of Mulliken charges =  -1.00000   1.00000

 Dipole moment (field-independent basis, Debye):
    X=              1.5806    Y=             -2.9518    Z=              0.4326  Tot=              3.3762
 Quadrupole moment (field-independent basis, Debye-Ang):
   XX=           -109.8055   YY=           -115.3653   ZZ=            -90.4242
   XY=             -9.5267   XZ=             -6.0844   YZ=              0.7704

 Summary of Natural Population Analysis:

                                       Natural Population
                Natural  -----------------------------------------------
    Atom  No    Charge         Core      Valence    Rydberg      Total
 -----------------------------------------------------------------------
      C    1   -0.09255      0.99963     2.08355    0.00937     3.09255
      O    2   -0.23048      0.99989     3.21848    0.01211     4.23048
      N    3   -0.04846      0.99965     2.53331    0.01550     3.54846
      C    4    0.03111      0.99962     1.95185    0.01742     2.96889
      C    5   -0.07566      0.99941     2.06630    0.00996     3.07566
      C    6    0.14524      0.99938     1.84268    0.01270     2.85476
      C    7   -0.20383      0.99959     2.19481    0.00943     3.20383
      C    8   -0.18878      0.99964     2.18048    0.00867     3.18878
      C    9   -0.18883      0.99964     2.18016    0.00903     3.18883
      C   10   -0.19578      0.99960     2.18590    0.01028     3.19578
      N   11   -0.22049      0.99965     2.70697    0.01387     3.72049
      N   12    0.14565      0.99970     2.33937    0.01528     3.35435
      N   13    0.00824      0.99982     2.47792    0.01403     3.49176
      H   14    0.08131      0.00000     0.41759    0.00109     0.41869
      H   15    0.07738      0.00000     0.42017    0.00245     0.42262
      H   16    0.08112      0.00000     0.41688    0.00200     0.41888
      H   17    0.09156      0.00000     0.40670    0.00174     0.40844
      H   18    0.10252      0.00000     0.39567    0.00180     0.39748
      H   19    0.10383      0.00000     0.39486    0.00132     0.39617
      H   20    0.09526      0.00000     0.40344    0.00129     0.40474
      H   21    0.09151      0.00000     0.40722    0.00127     0.40849
      H   22    0.09391      0.00000     0.40517    0.00093     0.40609
      H   23    0.09312      0.00000     0.40565    0.00123     0.40688
      H   24    0.09138      0.00000     0.40735    0.00128     0.40862
      H   25    0.11171      0.00000     0.38618    0.00210     0.38829
 =======================================================================
   * Total *    0.00000     12.99521    34.82866    0.17614    48.00000

 Normal termination of Gaussian 16 at Mon Dec 14 16:58:16 2020.
