 Gaussian 16, Revision A.03,

 -----------------------------------------------------------
 # opt freq B3LYP/6-31G(d) empiricaldispersion=gd3bj scf=xqc
 -----------------------------------------------------------

 -------------------------------
 CID_121953884_JID_6391_neutraal
 -------------------------------
 Symbolic Z-matrix:
 Charge =  0 Multiplicity = 1

 SCF Done:  E(RB3LYP) =  -786.299328162     A.U. after   15 cycles
 SCF Done:  E(RB3LYP) =  -786.303264082     A.U. after   12 cycles
 SCF Done:  E(RB3LYP) =  -786.303471381     A.U. after   13 cycles
 SCF Done:  E(RB3LYP) =  -786.303558471     A.U. after   12 cycles
 SCF Done:  E(RB3LYP) =  -786.304062909     A.U. after   12 cycles
 SCF Done:  E(RB3LYP) =  -786.304150350     A.U. after   11 cycles
 SCF Done:  E(RB3LYP) =  -786.304267077     A.U. after   12 cycles
 SCF Done:  E(RB3LYP) =  -786.304468253     A.U. after   13 cycles
 SCF Done:  E(RB3LYP) =  -786.303627111     A.U. after   15 cycles
 SCF Done:  E(RB3LYP) =  -786.305080886     A.U. after   12 cycles
 SCF Done:  E(RB3LYP) =  -786.309270511     A.U. after   10 cycles
 SCF Done:  E(RB3LYP) =  -786.309270322     A.U. after    8 cycles
 SCF Done:  E(RB3LYP) =  -786.309271447     A.U. after    9 cycles
 SCF Done:  E(RB3LYP) =  -786.309271519     A.U. after    7 cycles
 SCF Done:  E(RB3LYP) =  -786.309271549     A.U. after    7 cycles
 Optimization completed.
    -- Stationary point found.
 Normal termination of Gaussian 16 at Thu Dec 10 22:46:36 2020.

 --------------------------------------------------------------------
 #N Geom=AllCheck Guess=TCheck SCRF=Check GenChk RB3LYP/6-31G(d) Freq
 --------------------------------------------------------------------

 Structure from the checkpoint file:  "JID_6391.chk"
 -------------------------------
 CID_121953884_JID_6391_neutraal
 -------------------------------
 Charge =  0 Multiplicity = 1

 SCF Done:  E(RB3LYP) =  -786.309271549     A.U. after    1 cycles

  Exact polarizability: 164.512  -4.966 119.503  14.910  -1.092 115.956
 Approx polarizability: 192.129 -13.237 171.641  33.725  -8.243 189.239

                      1                      2                      3
                      A                      A                      A
 Frequencies --     17.9894                29.8647                40.8899
 Red. masses --      4.4884                 5.7197                 2.8708
 Frc consts  --      0.0009                 0.0030                 0.0028
 IR Inten    --      0.1180                 1.0785                 0.0613

                      4                      5                      6
                      A                      A                      A
 Frequencies --     44.7325                52.2388                71.1853
 Red. masses --      4.6329                 4.4002                 2.9850
 Frc consts  --      0.0055                 0.0071                 0.0089
 IR Inten    --      1.1481                 0.8783                 0.4024

                      7                      8                      9
                      A                      A                      A
 Frequencies --     82.4141                92.1826               113.2376
 Red. masses --      6.4992                 4.1229                 2.9477
 Frc consts  --      0.0260                 0.0206                 0.0223
 IR Inten    --      0.5617                 0.2839                 1.8049

                     10                     11                     12
                      A                      A                      A
 Frequencies --    142.8501               155.8155               214.8053
 Red. masses --      3.6897                 3.9229                 3.3134
 Frc consts  --      0.0444                 0.0561                 0.0901
 IR Inten    --      0.5194                 1.7227                 4.2821

                     13                     14                     15
                      A                      A                      A
 Frequencies --    235.3356               262.9183               271.5785
 Red. masses --      1.0426                 1.1457                 3.9793
 Frc consts  --      0.0340                 0.0467                 0.1729
 IR Inten    --      0.1005                 0.6894                 1.7682

                     16                     17                     18
                      A                      A                      A
 Frequencies --    289.1861               335.2403               345.1287
 Red. masses --      3.2169                 2.7000                 3.1629
 Frc consts  --      0.1585                 0.1788                 0.2220
 IR Inten    --      6.3437                 0.7510                 4.4358

                     19                     20                     21
                      A                      A                      A
 Frequencies --    360.8571               379.3921               422.4992
 Red. masses --      2.5197                 2.2913                 2.6877
 Frc consts  --      0.1933                 0.1943                 0.2827
 IR Inten    --      3.6044                 1.1160                 4.7093

                     22                     23                     24
                      A                      A                      A
 Frequencies --    438.2731               448.1665               499.5051
 Red. masses --      3.3218                 2.9982                 2.7259
 Frc consts  --      0.3759                 0.3548                 0.4007
 IR Inten    --      4.5293                 4.5507                 2.9601

                     25                     26                     27
                      A                      A                      A
 Frequencies --    530.1525               573.2529               609.1678
 Red. masses --      2.1393                 3.0973                 3.2500
 Frc consts  --      0.3543                 0.5997                 0.7106
 IR Inten    --      0.1791                36.0292                36.8930

                     28                     29                     30
                      A                      A                      A
 Frequencies --    634.9149               664.3122               698.6748
 Red. masses --      3.5705                 1.8011                 1.3968
 Frc consts  --      0.8480                 0.4683                 0.4017
 IR Inten    --     58.7312                28.7637               127.9062

                     31                     32                     33
                      A                      A                      A
 Frequencies --    705.1280               769.1792               841.3310
 Red. masses --      1.6211                 3.5079                 3.3344
 Frc consts  --      0.4749                 1.2228                 1.3906
 IR Inten    --     45.4432                13.4816                14.0201

                     34                     35                     36
                      A                      A                      A
 Frequencies --    848.1552               862.6078               921.2904
 Red. masses --      3.0811                 2.9087                 1.7483
 Frc consts  --      1.3059                 1.2752                 0.8743
 IR Inten    --      1.1734                 5.2715                11.2744

                     37                     38                     39
                      A                      A                      A
 Frequencies --    931.5794               944.3733               949.3228
 Red. masses --      1.6854                 1.2471                 1.8778
 Frc consts  --      0.8618                 0.6553                 0.9971
 IR Inten    --      1.6821                 5.7976                 0.2424

                     40                     41                     42
                      A                      A                      A
 Frequencies --    961.1155               982.3804               991.2363
 Red. masses --      1.3852                 1.4952                 1.8931
 Frc consts  --      0.7539                 0.8502                 1.0959
 IR Inten    --     42.8751                 0.0222                 0.7344

                     43                     44                     45
                      A                      A                      A
 Frequencies --   1012.2672              1035.6392              1053.7339
 Red. masses --      1.7155                 1.2753                 2.9143
 Frc consts  --      1.0357                 0.8059                 1.9066
 IR Inten    --      1.8089                35.7771                21.8701

                     46                     47                     48
                      A                      A                      A
 Frequencies --   1065.2762              1136.6398              1138.8486
 Red. masses --      2.0619                 2.1829                 3.2566
 Frc consts  --      1.3786                 1.6616                 2.4885
 IR Inten    --     31.4836                85.1379               164.7524

                     49                     50                     51
                      A                      A                      A
 Frequencies --   1157.5474              1186.9654              1196.2365
 Red. masses --      2.0242                 2.1071                 2.1980
 Frc consts  --      1.5980                 1.7491                 1.8532
 IR Inten    --      2.8100                22.9204               168.5170

                     52                     53                     54
                      A                      A                      A
 Frequencies --   1208.4893              1212.3271              1273.9529
 Red. masses --      2.2905                 1.9798                 1.3728
 Frc consts  --      1.9709                 1.7144                 1.3127
 IR Inten    --     22.5356                 9.3586                39.6431

                     55                     56                     57
                      A                      A                      A
 Frequencies --   1278.0597              1285.5701              1295.0843
 Red. masses --      1.3357                 1.4172                 1.2528
 Frc consts  --      1.2855                 1.3800                 1.2380
 IR Inten    --     17.5822                66.5859                 0.9464

                     58                     59                     60
                      A                      A                      A
 Frequencies --   1317.2592              1328.4021              1341.9268
 Red. masses --      1.3450                 1.2534                 1.3121
 Frc consts  --      1.3751                 1.3031                 1.3921
 IR Inten    --      8.8996                 3.3969                14.3779

                     61                     62                     63
                      A                      A                      A
 Frequencies --   1361.5684              1387.9247              1392.0428
 Red. masses --      1.7748                 1.6098                 1.9398
 Frc consts  --      1.9386                 1.8271                 2.2147
 IR Inten    --     68.8897                40.9934                17.1872

                     64                     65                     66
                      A                      A                      A
 Frequencies --   1400.7542              1424.5146              1428.8297
 Red. masses --      1.2901                 1.5408                 1.3689
 Frc consts  --      1.4914                 1.8422                 1.6466
 IR Inten    --     27.2099                59.2741                18.3490

                     67                     68                     69
                      A                      A                      A
 Frequencies --   1435.6643              1447.3476              1478.1936
 Red. masses --      1.5235                 1.2601                 1.2027
 Frc consts  --      1.8501                 1.5553                 1.5484
 IR Inten    --     20.5205                 2.0292                23.5309

                     70                     71                     72
                      A                      A                      A
 Frequencies --   1488.2862              1497.0982              1516.1111
 Red. masses --      1.2269                 1.4872                 1.0991
 Frc consts  --      1.6012                 1.9639                 1.4885
 IR Inten    --     33.8149                88.6343                 4.1616

                     73                     74                     75
                      A                      A                      A
 Frequencies --   1520.7710              1524.7952              1534.7471
 Red. masses --      1.0515                 1.0512                 1.0553
 Frc consts  --      1.4329                 1.4400                 1.4646
 IR Inten    --      3.4646                 4.1775                 2.8672

                     76                     77                     78
                      A                      A                      A
 Frequencies --   1542.2088              1546.6163              1734.6382
 Red. masses --      1.0854                 1.0471                 4.4718
 Frc consts  --      1.5210                 1.4757                 7.9278
 IR Inten    --      9.1132                10.4515                 1.3437

                     79                     80                     81
                      A                      A                      A
 Frequencies --   1789.2450              1842.8822              3008.3256
 Red. masses --      8.7816                10.2394                 1.0676
 Frc consts  --     16.5639                20.4889                 5.6926
 IR Inten    --    372.6653               241.0378                39.3370

                     82                     83                     84
                      A                      A                      A
 Frequencies --   3022.4197              3026.1507              3033.8550
 Red. masses --      1.0655                 1.0588                 1.0383
 Frc consts  --      5.7349                 5.7126                 5.6310
 IR Inten    --     41.7198                24.0699                25.9036

                     85                     86                     87
                      A                      A                      A
 Frequencies --   3038.9088              3058.8051              3070.3345
 Red. masses --      1.0436                 1.0910                 1.0913
 Frc consts  --      5.6782                 6.0144                 6.0611
 IR Inten    --     29.8833                 4.2552                 9.3824

                     88                     89                     90
                      A                      A                      A
 Frequencies --   3089.6958              3090.1457              3096.2280
 Red. masses --      1.0945                 1.0852                 1.0992
 Frc consts  --      6.1559                 6.1052                 6.2088
 IR Inten    --     28.5970                 0.7086                17.5949

                     91                     92                     93
                      A                      A                      A
 Frequencies --   3100.9311              3104.3005              3111.6088
 Red. masses --      1.0972                 1.0993                 1.1010
 Frc consts  --      6.2164                 6.2418                 6.2810
 IR Inten    --     17.3495                58.0593                60.1557

                     94                     95                     96
                      A                      A                      A
 Frequencies --   3146.0864              3156.4416              3169.9179
 Red. masses --      1.0990                 1.0592                 1.0928
 Frc consts  --      6.4091                 6.2173                 6.4700
 IR Inten    --     16.1698                12.2285                 4.9355

                     97                     98                     99
                      A                      A                      A
 Frequencies --   3240.7773              3583.9126              3684.3398
 Red. masses --      1.1152                 1.0752                 1.0640
 Frc consts  --      6.9010                 8.1371                 8.5100
 IR Inten    --     14.7038                43.2269                58.6301

 - Thermochemistry -
 -------------------
 Temperature   298.150 Kelvin.  Pressure   1.00000 Atm.
 Atom     1 has atomic number  6 and mass  12.00000

 Molecular mass:   229.13141 amu.
 Principal axes and moments of inertia in atomic units:
                           1         2         3
     Eigenvalues --  1710.196148256.011438876.80278
           X            0.99996   0.00765  -0.00511
           Y           -0.00750   0.99958   0.02794
           Z            0.00532  -0.02790   0.99960
 This molecule is an asymmetric top.
 Rotational symmetry number  1.
 Warning -- assumption of classical behavior for rotation
           may cause significant error
 Rotational temperatures (Kelvin)      0.05065     0.01049     0.00976
 Rotational constants (GHZ):           1.05528     0.21860     0.20331
 Zero-point vibrational energy     786042.9 (Joules/Mol)
                                  187.86876 (Kcal/Mol)
 Warning -- explicit consideration of  27 degrees of freedom as
           vibrations may cause significant error
 Vibrational temperatures:     25.88    42.97    58.83    64.36    75.16
          (Kelvin)            102.42   118.58   132.63   162.92   205.53
                              224.18   309.06   338.60   378.28   390.74
                              416.07   482.34   496.56   519.19   545.86
                              607.88   630.58   644.81   718.68   762.77
                              824.78   876.46   913.50   955.80  1005.24
                             1014.52  1106.68  1210.49  1220.31  1241.10
                             1325.53  1340.33  1358.74  1365.86  1382.83
                             1413.43  1426.17  1456.43  1490.05  1516.09
                             1532.69  1635.37  1638.55  1665.45  1707.78
                             1721.12  1738.75  1744.27  1832.93  1838.84
                             1849.65  1863.34  1895.24  1911.27  1930.73
                             1958.99  1996.91  2002.84  2015.37  2049.56
                             2055.77  2065.60  2082.41  2126.79  2141.31
                             2153.99  2181.35  2188.05  2193.84  2208.16
                             2218.89  2225.24  2495.76  2574.32  2651.50
                             4328.31  4348.59  4353.96  4365.04  4372.31
                             4400.94  4417.53  4445.38  4446.03  4454.78
                             4461.55  4466.40  4476.91  4526.52  4541.42
                             4560.80  4662.76  5156.45  5300.94

 Zero-point correction=                           0.299388 (Hartree/Particle)
 Thermal correction to Energy=                    0.317776
 Thermal correction to Enthalpy=                  0.318720
 Thermal correction to Gibbs Free Energy=         0.249834
 Sum of electronic and zero-point Energies=           -786.009884
 Sum of electronic and thermal Energies=              -785.991496
 Sum of electronic and thermal Enthalpies=            -785.990552
 Sum of electronic and thermal Free Energies=         -786.059437

                     E (Thermal)             CV                S
                      KCal/Mol        Cal/Mol-Kelvin    Cal/Mol-Kelvin
 Total                  199.407             65.626            144.982
 Electronic               0.000              0.000              0.000
 Translational            0.889              2.981             42.189
 Rotational               0.889              2.981             33.194
 Vibrational            197.630             59.664             69.599
 Vibration     1          0.593              1.986              6.845
 Vibration     2          0.594              1.984              5.838
 Vibration     3          0.594              1.981              5.215
 Vibration     4          0.595              1.980              5.038
 Vibration     5          0.596              1.977              4.731
 Vibration     6          0.598              1.968              4.120
 Vibration     7          0.600              1.961              3.833
 Vibration     8          0.602              1.955              3.613
 Vibration     9          0.607              1.938              3.213
 Vibration    10          0.616              1.910              2.765
 Vibration    11          0.620              1.896              2.600
 Vibration    12          0.645              1.818              2.002
 Vibration    13          0.655              1.787              1.838
 Vibration    14          0.670              1.741              1.642
 Vibration    15          0.675              1.726              1.586
 Vibration    16          0.686              1.694              1.479
 Vibration    17          0.716              1.605              1.235
 Vibration    18          0.723              1.585              1.188
 Vibration    19          0.735              1.553              1.118
 Vibration    20          0.749              1.514              1.042
 Vibration    21          0.785              1.421              0.884
 Vibration    22          0.798              1.387              0.832
 Vibration    23          0.807              1.365              0.801
 Vibration    24          0.855              1.251              0.659
 Vibration    25          0.885              1.183              0.587
 Vibration    26          0.930              1.089              0.498
 Vibration    27          0.968              1.012              0.434

 Optimization completed.
    -- Stationary point found.
 Normal termination of Gaussian 16 at Thu Dec 10 22:56:40 2020.

 ----------------------------------------------------------------------
 # B3LYP/6-311++G(d,p) empiricaldispersion=gd3bj scf=xqc pop=npa geom=c
 heck
 ----------------------------------------------------------------------

 ---------------------------------------
 CID_121953884_JID_6391_Energie_neutraal
 ---------------------------------------
 Structure from the checkpoint file:  "JID_6391.chk"
 Charge =  0 Multiplicity = 1

 SCF Done:  E(RB3LYP) =  -786.554175368     A.U. after   15 cycles
 Normal termination of Gaussian 16 at Thu Dec 10 23:02:25 2020.

 ----------------------------------------------------------------------
 # B3LYP/6-311++G(d,p) empiricaldispersion=gd3bj scf=xqc pop=npa geom=c
 heck
 ----------------------------------------------------------------------

 -------------------------------------
 CID_121953884_JID_6391_Energie_kation
 -------------------------------------
 Structure from the checkpoint file:  "JID_6391.chk"
 Charge =  1 Multiplicity = 2

 SCF Done:  E(UB3LYP) =  -786.229595504     A.U. after   32 cycles
 Normal termination of Gaussian 16 at Thu Dec 10 23:16:38 2020.
 Gaussian 16:  ES64L-G16RevA.03 25-Dec-2016

 ----------------------------------------------------------------------
 # B3LYP/6-311++G(d,p) empiricaldispersion=gd3bj scf=xqc pop=npa geom=c
 heck
 ----------------------------------------------------------------------

 ------------------------------------
 CID_121953884_JID_6391_Energie_anion
 ------------------------------------
 Structure from the checkpoint file:  "JID_6391.chk"
 Charge = -1 Multiplicity = 2

                         Standard orientation:
 ---------------------------------------------------------------------
 Center     Atomic      Atomic             Coordinates (Angstroms)
 Number     Number       Type             X           Y           Z
 ---------------------------------------------------------------------
      1          6           0        4.391781   -1.458788   -0.768444
      2          6           0        4.011193   -0.091426   -0.188779
      3          6           0        4.792101    1.035700   -0.873703
      4          6           0        2.502660    0.162183   -0.303338
      5          6           0        1.668404   -0.732124    0.607584
      6          8           0        2.157633   -1.431978    1.483865
      7          7           0        0.308432   -0.734094    0.393425
      8          6           0       -0.454623    0.209867   -0.387272
      9          6           0       -1.825563   -0.381964   -0.708568
     10          8           0       -2.438357   -0.664257    0.538766
     11          6           0       -3.760441   -1.187745    0.422206
     12          6           0       -4.731597   -0.174745   -0.115830
     13          6           0       -5.519027   -0.380896   -1.170601
     14          6           0       -0.667306    1.587118    0.261434
     15          8           0       -1.349402    2.455672   -0.234290
     16          8           0        0.000729    1.739481    1.422271
     17          1           0        4.146308   -1.510512   -1.838041
     18          1           0        3.861918   -2.261241   -0.249196
     19          1           0        5.468140   -1.638741   -0.666754
     20          1           0        4.257496   -0.096819    0.879482
     21          1           0        4.557652    1.083911   -1.945351
     22          1           0        4.556302    2.013430   -0.436319
     23          1           0        5.872215    0.876448   -0.779210
     24          1           0        2.274958    1.204202   -0.038115
     25          1           0        2.183848    0.036165   -1.347820
     26          1           0       -0.218803   -1.218140    1.111954
     27          1           0        0.051573    0.404531   -1.338638
     28          1           0       -2.410737    0.339981   -1.288115
     29          1           0       -1.701970   -1.303604   -1.296811
     30          1           0       -3.760061   -2.092665   -0.205737
     31          1           0       -4.031943   -1.482141    1.442080
     32          1           0       -4.757506    0.775248    0.417019
     33          1           0       -6.221772    0.370698   -1.518837
     34          1           0       -5.497139   -1.319095   -1.721922
     35          1           0       -0.199830    2.642584    1.733325
 ---------------------------------------------------------------------

 SCF Done:  E(UB3LYP) =  -786.544727280     A.U. after   33 cycles
 SCF Done:  E(UB3LYP) =  -786.544727280     a.u. after    1 cycles

 The electronic state is 2-A.
 Alpha  occ. eigenvalues --  -19.07914 -19.04949 -19.02074 -18.99233 -14.23832
 Alpha  occ. eigenvalues --  -10.21010 -10.17767 -10.14284 -10.13890 -10.13522
 Alpha  occ. eigenvalues --  -10.09882 -10.09223 -10.08131 -10.07984 -10.06717
 Alpha  occ. eigenvalues --  -10.06165  -1.01986  -0.96306  -0.94325  -0.92933
 Alpha  occ. eigenvalues --   -0.83467  -0.71881  -0.71431  -0.68121  -0.62144
 Alpha  occ. eigenvalues --   -0.61111  -0.59161  -0.56412  -0.51767  -0.50495
 Alpha  occ. eigenvalues --   -0.48674  -0.46126  -0.43848  -0.42489  -0.40800
 Alpha  occ. eigenvalues --   -0.40093  -0.38548  -0.38442  -0.37158  -0.36737
 Alpha  occ. eigenvalues --   -0.35667  -0.34380  -0.34114  -0.33624  -0.33377
 Alpha  occ. eigenvalues --   -0.30770  -0.30261  -0.29428  -0.29231  -0.28582
 Alpha  occ. eigenvalues --   -0.28110  -0.27121  -0.24874  -0.24457  -0.23983
 Alpha  occ. eigenvalues --   -0.23364  -0.23186  -0.20851  -0.19669  -0.18862
 Alpha  occ. eigenvalues --   -0.16371  -0.15632   0.04027
 Alpha virt. eigenvalues --    0.05748   0.06297   0.06649   0.07063   0.07735
 Alpha virt. eigenvalues --    0.08059   0.08551   0.08911   0.09874   0.10204
 Alpha virt. eigenvalues --    0.10352   0.10902   0.11047   0.11406   0.11765

  Beta  occ. eigenvalues --  -19.07866 -19.04936 -19.02038 -18.99230 -14.23829
  Beta  occ. eigenvalues --  -10.20940 -10.17766 -10.14269 -10.13877 -10.13493
  Beta  occ. eigenvalues --  -10.09880 -10.09199 -10.08128 -10.07957 -10.06695
  Beta  occ. eigenvalues --  -10.06153  -1.01880  -0.96286  -0.94318  -0.92852
  Beta  occ. eigenvalues --   -0.83450  -0.71860  -0.71412  -0.68073  -0.62101
  Beta  occ. eigenvalues --   -0.61041  -0.59126  -0.56304  -0.51707  -0.50438
  Beta  occ. eigenvalues --   -0.48617  -0.46075  -0.43796  -0.42446  -0.40746
  Beta  occ. eigenvalues --   -0.40033  -0.38498  -0.38392  -0.37130  -0.36679
  Beta  occ. eigenvalues --   -0.35542  -0.34357  -0.34083  -0.33574  -0.33314
  Beta  occ. eigenvalues --   -0.30730  -0.30207  -0.29399  -0.29192  -0.28546
  Beta  occ. eigenvalues --   -0.28072  -0.27096  -0.24839  -0.24421  -0.23946
  Beta  occ. eigenvalues --   -0.23326  -0.23058  -0.20807  -0.19649  -0.18826
  Beta  occ. eigenvalues --   -0.16356  -0.15606
  Beta virt. eigenvalues --    0.06157   0.06441   0.06544   0.07321   0.07661
  Beta virt. eigenvalues --    0.08028   0.08502   0.08776   0.09282   0.10154
  Beta virt. eigenvalues --    0.10405   0.10641   0.11026   0.11195   0.11612

 Mulliken charges and spin densities:
               1          2
     1  C   -0.137571  -0.498206
     2  C   -1.122651   1.274133
     3  C    0.092248  -0.729701
     4  C   -0.097273   0.055870
     5  C    0.527742  -0.754698
     6  O   -0.297533   0.005319
     7  N    0.004732  -0.034303
     8  C    0.326428  -0.326464
     9  C    0.280484  -0.785986
    10  O   -0.086770   0.028071
    11  C    0.737832  -1.264995
    12  C   -0.583712   1.015170
    13  C    0.139863  -0.644447
    14  C    0.323665  -0.493630
    15  O   -0.254599   0.034139
    16  O   -0.146208   0.000456
    17  H   -0.087418   0.213089
    18  H    0.172236   0.007280
    19  H    0.041920   0.089309
    20  H    0.150974   0.039954
    21  H   -0.061051   0.203071
    22  H   -0.161281   0.295898
    23  H   -0.042666   0.186797
    24  H    0.140135   0.048684
    25  H    0.277187  -0.136723
    26  H    0.446945  -0.111267
    27  H   -0.990851   1.239543
    28  H    0.372416  -0.144604
    29  H   -0.240003   0.409885
    30  H   -0.023060   0.168252
    31  H   -0.019531   0.180727
    32  H   -0.077905   0.259818
    33  H    0.035686   0.081982
    34  H   -0.438238   0.572549
    35  H   -0.202170   0.515030
 Sum of Mulliken charges =  -1.00000   1.00000

 Dipole moment (field-independent basis, Debye):
    X=             -0.5319    Y=             -1.0496    Z=              1.8944  Tot=              2.2301
 Quadrupole moment (field-independent basis, Debye-Ang):
   XX=           -174.7840   YY=           -141.6277   ZZ=           -137.7164
   XY=             -3.2976   XZ=             -7.2051   YZ=             -1.3070

 Summary of Natural Population Analysis:

                                       Natural Population
                Natural  -----------------------------------------------
    Atom  No    Charge         Core      Valence    Rydberg      Total
 -----------------------------------------------------------------------
      C    1   -0.28549      0.99965     2.28109    0.00475     3.28549
      C    2   -0.11683      0.99962     2.10611    0.01109     3.11683
      C    3   -0.28141      0.99965     2.27717    0.00459     3.28141
      C    4   -0.23931      0.99956     2.23126    0.00849     3.23931
      C    5    0.35806      0.99968     1.62046    0.02180     2.64194
      O    6   -0.32399      0.99988     3.31884    0.00527     4.32399
      N    7   -0.32205      0.99966     2.81161    0.01078     3.82205
      C    8   -0.06714      0.99953     2.05227    0.01533     3.06714
      C    9   -0.00995      0.99956     1.99655    0.01384     3.00995
      O   10   -0.30371      0.99988     3.29525    0.00858     4.30371
      C   11   -0.02587      0.99956     2.01280    0.01351     3.02587
      C   12   -0.10344      0.99956     2.09475    0.00913     3.10344
      C   13   -0.17953      0.99956     2.17310    0.00687     3.17953
      C   14    0.41328      0.99970     1.56051    0.02650     2.58672
      O   15   -0.30615      0.99987     3.30002    0.00626     4.30615
      O   16   -0.33921      0.99987     3.33259    0.00675     4.33921
      H   17    0.09435      0.00000     0.40476    0.00089     0.40565
      H   18    0.10854      0.00000     0.39050    0.00096     0.39146
      H   19    0.09490      0.00000     0.40434    0.00076     0.40510
      H   20    0.10159      0.00000     0.39650    0.00191     0.39841
      H   21    0.09655      0.00000     0.40233    0.00112     0.40345
      H   22    0.09977      0.00000     0.39918    0.00105     0.40023
      H   23    0.09628      0.00000     0.40287    0.00085     0.40372
      H   24    0.11463      0.00000     0.38329    0.00208     0.38537
      H   25    0.10765      0.00000     0.39058    0.00176     0.39235
      H   26    0.19981      0.00000     0.29707    0.00311     0.30019
      H   27    0.12361      0.00000     0.37336    0.00303     0.37639
      H   28    0.09915      0.00000     0.39913    0.00172     0.40085
      H   29    0.08788      0.00000     0.41008    0.00204     0.41212
      H   30    0.08336      0.00000     0.41513    0.00152     0.41664
      H   31    0.09533      0.00000     0.40352    0.00114     0.40467
      H   32    0.09833      0.00000     0.40050    0.00117     0.40167
      H   33    0.09472      0.00000     0.40420    0.00108     0.40528
      H   34    0.09282      0.00000     0.40542    0.00175     0.40718
      H   35    0.24347      0.00000     0.24915    0.00738     0.25653
 =======================================================================
   * Total *   -0.00000     15.99481    45.79632    0.20887    62.00000

 Normal termination of Gaussian 16 at Thu Dec 10 23:30:08 2020.
