 Gaussian 16, Revision A.03,

 -----------------------------------------------------------
 # opt freq B3LYP/6-31G(d) empiricaldispersion=gd3bj scf=xqc
 -----------------------------------------------------------

 ------------------------------
 CID_88184185_JID_2727_neutraal
 ------------------------------
 Symbolic Z-matrix:
 Charge =  0 Multiplicity = 1

 SCF Done:  E(RB3LYP) =  -569.628469326     A.U. after   15 cycles
 SCF Done:  E(RB3LYP) =  -569.643786089     A.U. after   15 cycles
 SCF Done:  E(RB3LYP) =  -569.646315239     A.U. after   15 cycles
 SCF Done:  E(RB3LYP) =  -569.647873638     A.U. after   15 cycles
 SCF Done:  E(RB3LYP) =  -569.649583437     A.U. after   13 cycles
 SCF Done:  E(RB3LYP) =  -569.651155097     A.U. after   15 cycles
 SCF Done:  E(RB3LYP) =  -569.650690859     A.U. after   15 cycles
 SCF Done:  E(RB3LYP) =  -569.652276714     A.U. after   12 cycles
 SCF Done:  E(RB3LYP) =  -569.652743757     A.U. after   12 cycles
 SCF Done:  E(RB3LYP) =  -569.652916529     A.U. after   12 cycles
 SCF Done:  E(RB3LYP) =  -569.652951698     A.U. after   10 cycles
 SCF Done:  E(RB3LYP) =  -569.652954496     A.U. after    9 cycles
 SCF Done:  E(RB3LYP) =  -569.652954940     A.U. after    9 cycles
 SCF Done:  E(RB3LYP) =  -569.652955034     A.U. after    8 cycles
 SCF Done:  E(RB3LYP) =  -569.652955067     A.U. after    7 cycles
 Optimization completed.
    -- Stationary point found.
 Normal termination of Gaussian 16 at Wed Dec  9 17:55:53 2020.

 --------------------------------------------------------------------
 #N Geom=AllCheck Guess=TCheck SCRF=Check GenChk RB3LYP/6-31G(d) Freq
 --------------------------------------------------------------------

 Structure from the checkpoint file:  "JID_2727.chk"
 ------------------------------
 CID_88184185_JID_2727_neutraal
 ------------------------------
 Charge =  0 Multiplicity = 1

 SCF Done:  E(RB3LYP) =  -569.652955067     A.U. after    1 cycles

  Exact polarizability: 166.422   1.356  91.212   5.638  -0.378  50.242
 Approx polarizability: 245.768  13.515 158.559  13.858   0.347  72.500

                      1                      2                      3
                      A                      A                      A
 Frequencies --     40.6664                77.3395                81.4531
 Red. masses --      4.8288                 7.3036                 8.2975
 Frc consts  --      0.0047                 0.0257                 0.0324
 IR Inten    --      0.4787                 0.0150                 1.0181

                      4                      5                      6
                      A                      A                      A
 Frequencies --    117.7824               199.4852               227.1568
 Red. masses --      3.1171                 1.2981                 5.3519
 Frc consts  --      0.0255                 0.0304                 0.1627
 IR Inten    --      0.1202                 0.2971                 2.0643

                      7                      8                      9
                      A                      A                      A
 Frequencies --    241.7497               263.9183               326.8962
 Red. masses --      4.2882                 3.3266                 3.0293
 Frc consts  --      0.1477                 0.1365                 0.1907
 IR Inten    --      0.5885                 1.7250                 5.4495

                     10                     11                     12
                      A                      A                      A
 Frequencies --    423.8264               473.4712               490.2295
 Red. masses --      3.9857                 2.9690                 4.7999
 Frc consts  --      0.4218                 0.3921                 0.6796
 IR Inten    --      4.9753                 3.3164                 0.4569

                     13                     14                     15
                      A                      A                      A
 Frequencies --    507.5906               572.5314               591.5036
 Red. masses --      9.9210                12.6725                 4.1348
 Frc consts  --      1.5060                 2.4474                 0.8524
 IR Inten    --      1.9642                23.5284                 7.4880

                     16                     17                     18
                      A                      A                      A
 Frequencies --    657.5096               684.1794               748.3937
 Red. masses --      5.2598                 9.3997                 3.7328
 Frc consts  --      1.3397                 2.5924                 1.2318
 IR Inten    --      1.9302                13.4220                 1.2748

                     19                     20                     21
                      A                      A                      A
 Frequencies --    776.6048               819.6621               827.0259
 Red. masses --      5.3702                 1.3701                 1.1854
 Frc consts  --      1.9083                 0.5424                 0.4777
 IR Inten    --     29.8760                25.2209                 0.6526

                     22                     23                     24
                      A                      A                      A
 Frequencies --    874.8466               877.8663               965.7772
 Red. masses --      2.0947                 2.0698                 2.7718
 Frc consts  --      0.9446                 0.9398                 1.5233
 IR Inten    --     12.6457                16.2098                33.3692

                     25                     26                     27
                      A                      A                      A
 Frequencies --    971.2111              1010.6259              1076.9541
 Red. masses --      1.3545                 7.5306                 2.9917
 Frc consts  --      0.7527                 4.5317                 2.0444
 IR Inten    --      0.3212                 8.4298                60.0810

                     28                     29                     30
                      A                      A                      A
 Frequencies --   1123.0952              1138.1525              1167.6942
 Red. masses --      1.7551                 2.1941                 1.7837
 Frc consts  --      1.3043                 1.6746                 1.4329
 IR Inten    --      6.0449               152.3258               102.5477

                     31                     32                     33
                      A                      A                      A
 Frequencies --   1207.5543              1288.4926              1316.8694
 Red. masses --      1.6424                 3.3705                 1.5717
 Frc consts  --      1.4110                 3.2969                 1.6059
 IR Inten    --     15.3634                74.2066                30.8782

                     34                     35                     36
                      A                      A                      A
 Frequencies --   1338.7453              1352.0951              1422.6878
 Red. masses --      2.0532                 1.8060                 1.3043
 Frc consts  --      2.1681                 1.9453                 1.5555
 IR Inten    --      1.1212               154.9417                 0.4531

                     37                     38                     39
                      A                      A                      A
 Frequencies --   1432.6638              1445.0011              1516.5885
 Red. masses --      3.5717                 1.3025                 1.0463
 Frc consts  --      4.3193                 1.6023                 1.4178
 IR Inten    --      1.2318                25.6377                 6.8074

                     40                     41                     42
                      A                      A                      A
 Frequencies --   1519.9267              1531.5356              1537.5803
 Red. masses --      2.5999                 1.0581                 5.8586
 Frc consts  --      3.5388                 1.4623                 8.1605
 IR Inten    --     75.4224                 2.8915               110.4244

                     43                     44                     45
                      A                      A                      A
 Frequencies --   1549.0303              1615.4045              1657.6634
 Red. masses --      1.1748                 6.9254                 6.1724
 Frc consts  --      1.6608                10.6477                 9.9930
 IR Inten    --      1.6279                76.9233               566.7752

                     46                     47                     48
                      A                      A                      A
 Frequencies --   2351.2941              3060.8311              3063.9004
 Red. masses --     12.7235                 1.0665                 1.0362
 Frc consts  --     41.4448                 5.8867                 5.7312
 IR Inten    --   1510.7248                35.8465                12.9188

                     49                     50                     51
                      A                      A                      A
 Frequencies --   3122.1504              3134.2683              3148.5922
 Red. masses --      1.1001                 1.1010                 1.1039
 Frc consts  --      6.3184                 6.3724                 6.4478
 IR Inten    --      6.6797                29.1521                39.1836

                     52                     53                     54
                      A                      A                      A
 Frequencies --   3177.9624              3244.7230              3245.9497
 Red. masses --      1.0902                 1.0924                 1.0924
 Frc consts  --      6.4871                 6.7761                 6.7814
 IR Inten    --     22.6216                 5.1885                 2.2090

 - Thermochemistry -
 -------------------
 Temperature   298.150 Kelvin.  Pressure   1.00000 Atm.
 Atom     1 has atomic number  6 and mass  12.00000

 Molecular mass:   164.05858 amu.
 Principal axes and moments of inertia in atomic units:
                           1         2         3
     Eigenvalues --   578.697764328.773894719.98101
           X            0.99998  -0.00118  -0.00689
           Y            0.00117   1.00000  -0.00142
           Z            0.00689   0.00141   0.99998
 This molecule is an asymmetric top.
 Rotational symmetry number  1.
 Warning -- assumption of classical behavior for rotation
           may cause significant error
 Rotational temperatures (Kelvin)      0.14967     0.02001     0.01835
 Rotational constants (GHZ):           3.11862     0.41692     0.38236
 Zero-point vibrational energy     404557.4 (Joules/Mol)
                                   96.69153 (Kcal/Mol)
 Warning -- explicit consideration of  15 degrees of freedom as
           vibrations may cause significant error
 Vibrational temperatures:     58.51   111.27   117.19   169.46   287.01
          (Kelvin)            326.83   347.82   379.72   470.33   609.79
                              681.22   705.33   730.31   823.74   851.04
                              946.01   984.38  1076.77  1117.36  1179.31
                             1189.91  1258.71  1263.05  1389.54  1397.36
                             1454.07  1549.50  1615.88  1637.55  1680.05
                             1737.40  1853.85  1894.68  1926.16  1945.36
                             2046.93  2061.28  2079.03  2182.03  2186.84
                             2203.54  2212.24  2228.71  2324.21  2385.01
                             3382.99  4403.85  4408.27  4492.08  4509.51
                             4530.12  4572.38  4668.43  4670.20

 Zero-point correction=                           0.154088 (Hartree/Particle)
 Thermal correction to Energy=                    0.164786
 Thermal correction to Enthalpy=                  0.165731
 Thermal correction to Gibbs Free Energy=         0.116563
 Sum of electronic and zero-point Energies=           -569.498867
 Sum of electronic and thermal Energies=              -569.488169
 Sum of electronic and thermal Enthalpies=            -569.487224
 Sum of electronic and thermal Free Energies=         -569.536392

                     E (Thermal)             CV                S
                      KCal/Mol        Cal/Mol-Kelvin    Cal/Mol-Kelvin
 Total                  103.405             39.141            103.482
 Electronic               0.000              0.000              0.000
 Translational            0.889              2.981             41.194
 Rotational               0.889              2.981             30.848
 Vibrational            101.628             33.179             31.440
 Vibration     1          0.594              1.981              5.226
 Vibration     2          0.599              1.964              3.957
 Vibration     3          0.600              1.962              3.856
 Vibration     4          0.608              1.935              3.136
 Vibration     5          0.638              1.841              2.138
 Vibration     6          0.651              1.800              1.901
 Vibration     7          0.658              1.776              1.790
 Vibration     8          0.670              1.739              1.636
 Vibration     9          0.711              1.622              1.275
 Vibration    10          0.786              1.418              0.879
 Vibration    11          0.830              1.309              0.728
 Vibration    12          0.846              1.272              0.683
 Vibration    13          0.863              1.233              0.639
 Vibration    14          0.929              1.091              0.499
 Vibration    15          0.949              1.050              0.464

 Optimization completed.
    -- Stationary point found.
 Normal termination of Gaussian 16 at Wed Dec  9 17:59:49 2020.

 ----------------------------------------------------------------------
 # B3LYP/6-311++G(d,p) empiricaldispersion=gd3bj scf=xqc pop=npa geom=c
 heck
 ----------------------------------------------------------------------

 --------------------------------------
 CID_88184185_JID_2727_Energie_neutraal
 --------------------------------------
 Structure from the checkpoint file:  "JID_2727.chk"
 Charge =  0 Multiplicity = 1

 SCF Done:  E(RB3LYP) =  -569.812207301     A.U. after   15 cycles
 Normal termination of Gaussian 16 at Wed Dec  9 18:02:12 2020.

 ----------------------------------------------------------------------
 # B3LYP/6-311++G(d,p) empiricaldispersion=gd3bj scf=xqc pop=npa geom=c
 heck
 ----------------------------------------------------------------------

 ------------------------------------
 CID_88184185_JID_2727_Energie_kation
 ------------------------------------
 Structure from the checkpoint file:  "JID_2727.chk"
 Charge =  1 Multiplicity = 2

 SCF Done:  E(UB3LYP) =  -569.485334295     A.U. after   28 cycles
 Normal termination of Gaussian 16 at Wed Dec  9 18:07:11 2020.
 Gaussian 16:  ES64L-G16RevA.03 25-Dec-2016

 ----------------------------------------------------------------------
 # B3LYP/6-311++G(d,p) empiricaldispersion=gd3bj scf=xqc pop=npa geom=c
 heck
 ----------------------------------------------------------------------

 -----------------------------------
 CID_88184185_JID_2727_Energie_anion
 -----------------------------------
 Structure from the checkpoint file:  "JID_2727.chk"
 Charge = -1 Multiplicity = 2

                         Standard orientation:
 ---------------------------------------------------------------------
 Center     Atomic      Atomic             Coordinates (Angstroms)
 Number     Number       Type             X           Y           Z
 ---------------------------------------------------------------------
      1          6           0       -3.975040    0.006844    0.970354
      2          6           0       -3.483975   -0.419997   -0.406296
      3          8           0       -2.184813   -1.025667   -0.352492
      4          6           0       -1.087709   -0.241953   -0.246884
      5          6           0        0.134903   -0.913966   -0.138064
      6          6           0        1.298462   -0.156560   -0.044052
      7          7           0        1.331407    1.185471   -0.049209
      8          6           0        0.152682    1.803489   -0.153147
      9          6           0       -1.080119    1.160513   -0.252724
     10          7           0        2.516056   -0.836404    0.063503
     11          6           0        3.657276   -0.416978    0.156354
     12          8           0        4.799235   -0.169191    0.250631
     13          1           0       -3.986530   -0.851302    1.649111
     14          1           0       -4.992977    0.405498    0.897413
     15          1           0       -3.334541    0.778966    1.406475
     16          1           0       -4.125120   -1.202563   -0.819078
     17          1           0       -3.477876    0.414663   -1.117484
     18          1           0        0.167338   -1.996194   -0.130732
     19          1           0        0.189567    2.891151   -0.155507
     20          1           0       -1.986358    1.746818   -0.328607
 ---------------------------------------------------------------------

 SCF Done:  E(UB3LYP) =  -569.803822691     A.U. after   33 cycles
 SCF Done:  E(UB3LYP) =  -569.803822691     a.u. after    1 cycles

 The electronic state is 2-A.
 Alpha  occ. eigenvalues --  -19.07796 -19.05126 -14.24028 -14.19162 -10.20859
 Alpha  occ. eigenvalues --  -10.14158 -10.13424 -10.12114 -10.10257 -10.06877
 Alpha  occ. eigenvalues --  -10.06349 -10.05472  -1.01566  -0.96838  -0.87993
 Alpha  occ. eigenvalues --   -0.81786  -0.70064  -0.66419  -0.65061  -0.56720
 Alpha  occ. eigenvalues --   -0.53721  -0.51975  -0.45008  -0.42095  -0.41360
 Alpha  occ. eigenvalues --   -0.39958  -0.37525  -0.37305  -0.35786  -0.34873
 Alpha  occ. eigenvalues --   -0.33325  -0.33148  -0.30751  -0.29887  -0.28334
 Alpha  occ. eigenvalues --   -0.26040  -0.24818  -0.22595  -0.21981  -0.21924
 Alpha  occ. eigenvalues --   -0.16438  -0.14321  -0.13978   0.04648
 Alpha virt. eigenvalues --    0.06920   0.07997   0.08269   0.08462   0.09083
 Alpha virt. eigenvalues --    0.09929   0.10708   0.10867   0.12008   0.12428
 Alpha virt. eigenvalues --    0.13050   0.13822   0.14875   0.15337   0.15808

  Beta  occ. eigenvalues --  -19.07726 -19.05113 -14.24076 -14.19026 -10.20748
  Beta  occ. eigenvalues --  -10.13994 -10.13269 -10.12088 -10.10272 -10.06926
  Beta  occ. eigenvalues --  -10.06279 -10.05408  -1.01425  -0.96761  -0.87855
  Beta  occ. eigenvalues --   -0.81632  -0.69874  -0.66227  -0.64967  -0.56505
  Beta  occ. eigenvalues --   -0.53645  -0.51881  -0.44885  -0.41969  -0.41265
  Beta  occ. eigenvalues --   -0.39859  -0.37267  -0.37034  -0.35708  -0.34678
  Beta  occ. eigenvalues --   -0.33215  -0.33090  -0.30441  -0.29657  -0.28234
  Beta  occ. eigenvalues --   -0.25944  -0.24477  -0.22552  -0.21966  -0.21669
  Beta  occ. eigenvalues --   -0.16264  -0.14058  -0.13442
  Beta virt. eigenvalues --    0.07525   0.08217   0.08428   0.08747   0.08838
  Beta virt. eigenvalues --    0.09696   0.10583   0.10943   0.11086   0.12599
  Beta virt. eigenvalues --    0.12941   0.13373   0.13871   0.14869   0.15526

 Mulliken charges and spin densities:
               1          2
     1  C    1.754514  -2.151278
     2  C   -0.422162   0.231445
     3  O   -0.138117   0.015896
     4  C   -0.241868  -0.505311
     5  C   -0.862653   1.821680
     6  C   -0.183008  -0.581277
     7  N   -0.193633   0.106073
     8  C    0.550066  -1.021116
     9  C    0.953800  -0.547852
    10  N   -0.070650  -0.037266
    11  C    0.487928  -0.027295
    12  O   -0.305658   0.020502
    13  H   -0.080753   0.226861
    14  H   -0.769794   0.913863
    15  H   -0.367728   0.502751
    16  H   -0.731956   0.917648
    17  H   -0.016976   0.146394
    18  H    0.086428   0.132299
    19  H   -0.066844   0.242256
    20  H   -0.380937   0.593728
 Sum of Mulliken charges =  -1.00000   1.00000

 Dipole moment (field-independent basis, Debye):
    X=              7.2144    Y=             -1.7792    Z=             -1.1613  Tot=              7.5207
 Quadrupole moment (field-independent basis, Debye-Ang):
   XX=           -174.0004   YY=            -95.8821   ZZ=            -87.8616
   XY=              1.0055   XZ=              3.5970   YZ=             -2.2089

 Summary of Natural Population Analysis:

                                       Natural Population
                Natural  -----------------------------------------------
    Atom  No    Charge         Core      Valence    Rydberg      Total
 -----------------------------------------------------------------------
      C    1   -0.30054      0.99966     2.29556    0.00531     3.30054
      C    2   -0.01190      0.99958     1.99963    0.01269     3.01190
      O    3   -0.27187      0.99985     3.26225    0.00977     4.27187
      C    4    0.20468      0.99939     1.78151    0.01441     2.79532
      C    5   -0.15413      0.99948     2.14591    0.00874     3.15413
      C    6    0.20436      0.99948     1.78157    0.01459     2.79564
      N    7   -0.24878      0.99968     2.73793    0.01117     3.74878
      C    8    0.03511      0.99961     1.94990    0.01538     2.96489
      C    9   -0.16457      0.99952     2.15674    0.00831     3.16457
      N   10   -0.29200      0.99950     2.78380    0.00870     3.79200
      C   11    0.45397      0.99963     1.52691    0.01949     2.54603
      O   12   -0.25270      0.99987     3.24613    0.00670     4.25270
      H   13    0.10026      0.00000     0.39851    0.00123     0.39974
      H   14    0.10819      0.00000     0.38633    0.00548     0.39181
      H   15    0.10268      0.00000     0.39547    0.00184     0.39732
      H   16    0.09323      0.00000     0.40493    0.00183     0.40677
      H   17    0.08488      0.00000     0.41314    0.00198     0.41512
      H   18    0.11026      0.00000     0.38843    0.00131     0.38974
      H   19    0.08883      0.00000     0.40980    0.00136     0.41117
      H   20    0.11002      0.00000     0.38849    0.00149     0.38998
 =======================================================================
   * Total *   -0.00000     11.99525    30.85295    0.15180    43.00000

 Normal termination of Gaussian 16 at Wed Dec  9 18:13:35 2020.
