 Gaussian 16, Revision A.03,

 -----------------------------------------------------------
 # opt freq B3LYP/6-31G(d) empiricaldispersion=gd3bj scf=xqc
 -----------------------------------------------------------

 ------------------------------
 CID_80792013_JID_9567_neutraal
 ------------------------------
 Symbolic Z-matrix:
 Charge =  0 Multiplicity = 1

 SCF Done:  E(RB3LYP) =  -842.245914324     A.U. after   14 cycles
 SCF Done:  E(RB3LYP) =  -842.253686182     A.U. after   12 cycles
 SCF Done:  E(RB3LYP) =  -842.256025239     A.U. after   12 cycles
 SCF Done:  E(RB3LYP) =  -842.257609680     A.U. after   12 cycles
 SCF Done:  E(RB3LYP) =  -842.258106613     A.U. after   11 cycles
 SCF Done:  E(RB3LYP) =  -842.258246045     A.U. after   11 cycles
 SCF Done:  E(RB3LYP) =  -842.258303242     A.U. after   10 cycles
 SCF Done:  E(RB3LYP) =  -842.258332790     A.U. after   10 cycles
 SCF Done:  E(RB3LYP) =  -842.258349579     A.U. after   10 cycles
 SCF Done:  E(RB3LYP) =  -842.258356861     A.U. after    9 cycles
 SCF Done:  E(RB3LYP) =  -842.258383660     A.U. after    8 cycles
 SCF Done:  E(RB3LYP) =  -842.258383847     A.U. after    7 cycles
 SCF Done:  E(RB3LYP) =  -842.258383931     A.U. after    7 cycles
 SCF Done:  E(RB3LYP) =  -842.258383923     A.U. after    7 cycles
 SCF Done:  E(RB3LYP) =  -842.258383912     A.U. after    6 cycles
 Optimization completed.
    -- Stationary point found.
 Normal termination of Gaussian 16 at Sun Dec 13 16:28:22 2020.

 --------------------------------------------------------------------
 #N Geom=AllCheck Guess=TCheck SCRF=Check GenChk RB3LYP/6-31G(d) Freq
 --------------------------------------------------------------------

 Structure from the checkpoint file:  "JID_9567.chk"
 ------------------------------
 CID_80792013_JID_9567_neutraal
 ------------------------------
 Charge =  0 Multiplicity = 1

 SCF Done:  E(RB3LYP) =  -842.258383912     A.U. after    1 cycles

  Exact polarizability: 217.085 -20.043 163.303 -15.199 -11.524 149.002
 Approx polarizability: 289.954 -37.093 242.503 -31.790 -27.052 240.963

                      1                      2                      3
                      A                      A                      A
 Frequencies --     27.7602                32.9207                47.1102
 Red. masses --      3.1929                 4.5616                 4.3266
 Frc consts  --      0.0014                 0.0029                 0.0057
 IR Inten    --      0.5795                 2.9577                 0.4566

                      4                      5                      6
                      A                      A                      A
 Frequencies --     70.0075                79.8622                90.6906
 Red. masses --      4.6911                 2.7820                 3.0916
 Frc consts  --      0.0135                 0.0105                 0.0150
 IR Inten    --      3.7961                 0.2026                 2.5895

                      7                      8                      9
                      A                      A                      A
 Frequencies --    112.3832               118.6161               131.8820
 Red. masses --      2.3420                 1.6308                 1.5273
 Frc consts  --      0.0174                 0.0135                 0.0157
 IR Inten    --      1.8975                 3.4087                 0.8485

                     10                     11                     12
                      A                      A                      A
 Frequencies --    157.9818               187.1197               200.4870
 Red. masses --      3.8898                 2.7662                 3.0915
 Frc consts  --      0.0572                 0.0571                 0.0732
 IR Inten    --      4.9714                 1.9720                 4.9293

                     13                     14                     15
                      A                      A                      A
 Frequencies --    226.4841               236.1054               258.6775
 Red. masses --      3.8870                 1.7576                 1.8539
 Frc consts  --      0.1175                 0.0577                 0.0731
 IR Inten    --      0.8342                 1.4313                19.9226

                     16                     17                     18
                      A                      A                      A
 Frequencies --    273.2957               293.0147               299.5823
 Red. masses --      1.7020                 1.8039                 2.1596
 Frc consts  --      0.0749                 0.0913                 0.1142
 IR Inten    --     48.1673                37.0777                38.7805

                     19                     20                     21
                      A                      A                      A
 Frequencies --    313.0750               336.6519               366.0145
 Red. masses --      2.0382                 2.0210                 2.1355
 Frc consts  --      0.1177                 0.1349                 0.1686
 IR Inten    --     17.6225                27.7898                18.5679

                     22                     23                     24
                      A                      A                      A
 Frequencies --    372.1669               407.9166               430.2765
 Red. masses --      2.3523                 2.2212                 2.0817
 Frc consts  --      0.1920                 0.2178                 0.2271
 IR Inten    --      2.6697                27.5599                 0.5948

                     25                     26                     27
                      A                      A                      A
 Frequencies --    456.1326               501.3189               510.8538
 Red. masses --      2.8889                 4.0364                 2.9625
 Frc consts  --      0.3541                 0.5977                 0.4555
 IR Inten    --      2.7881                 1.5478                 2.9967

                     28                     29                     30
                      A                      A                      A
 Frequencies --    530.2571               547.0299               574.6806
 Red. masses --      2.9747                 5.1515                 3.1551
 Frc consts  --      0.4928                 0.9083                 0.6139
 IR Inten    --      4.0557                 2.6548                 5.7868

                     31                     32                     33
                      A                      A                      A
 Frequencies --    633.3761               662.8331               707.4165
 Red. masses --      3.7160                 2.5367                 3.5965
 Frc consts  --      0.8783                 0.6567                 1.0604
 IR Inten    --      6.9257                 2.6800                 1.1218

                     34                     35                     36
                      A                      A                      A
 Frequencies --    718.6933               785.7213               798.3898
 Red. masses --      6.0731                 2.0111                 2.4486
 Frc consts  --      1.8482                 0.7315                 0.9196
 IR Inten    --      2.9436                12.3556                 4.3075

                     37                     38                     39
                      A                      A                      A
 Frequencies --    822.0124               835.6932               861.9587
 Red. masses --      3.6235                 3.1709                 2.1068
 Frc consts  --      1.4426                 1.3048                 0.9222
 IR Inten    --      8.5375                 3.9456                 0.6908

                     40                     41                     42
                      A                      A                      A
 Frequencies --    873.9920               883.7008               886.9859
 Red. masses --      1.5142                 2.3913                 1.9731
 Frc consts  --      0.6815                 1.1003                 0.9146
 IR Inten    --     17.7526                 4.1719                 3.9426

                     43                     44                     45
                      A                      A                      A
 Frequencies --    904.4220               917.4655               958.5813
 Red. masses --      2.2895                 2.6403                 2.1337
 Frc consts  --      1.1034                 1.3094                 1.1552
 IR Inten    --      7.8049                 5.5286                25.0339

                     46                     47                     48
                      A                      A                      A
 Frequencies --    984.4430               996.4728              1026.8281
 Red. masses --      1.4577                 1.9018                 1.8266
 Frc consts  --      0.8324                 1.1126                 1.1347
 IR Inten    --      2.0062                 8.3415                10.1298

                     49                     50                     51
                      A                      A                      A
 Frequencies --   1045.4245              1052.0125              1068.0827
 Red. masses --      2.3994                 1.9980                 2.2219
 Frc consts  --      1.5450                 1.3028                 1.4934
 IR Inten    --     47.4171                 3.5409                 1.6808

                     52                     53                     54
                      A                      A                      A
 Frequencies --   1079.6547              1093.1522              1107.9040
 Red. masses --      3.9196                 1.8774                 2.0502
 Frc consts  --      2.6919                 1.3218                 1.4827
 IR Inten    --    133.8557                 0.7547                 1.7619

                     55                     56                     57
                      A                      A                      A
 Frequencies --   1116.0096              1132.9361              1138.9419
 Red. masses --      1.5610                 2.1221                 2.3890
 Frc consts  --      1.1455                 1.6048                 1.8258
 IR Inten    --      2.0004                 5.9437                27.1457

                     58                     59                     60
                      A                      A                      A
 Frequencies --   1160.9830              1163.7456              1178.4161
 Red. masses --      1.5044                 1.5738                 1.8927
 Frc consts  --      1.1947                 1.2558                 1.5486
 IR Inten    --     39.4009                 4.2441                20.3707

                     61                     62                     63
                      A                      A                      A
 Frequencies --   1194.9427              1213.8776              1248.9526
 Red. masses --      1.8142                 1.9519                 1.8217
 Frc consts  --      1.5263                 1.6946                 1.6742
 IR Inten    --     15.7273                31.5405                 5.2584

                     64                     65                     66
                      A                      A                      A
 Frequencies --   1257.7347              1267.1966              1287.9708
 Red. masses --      1.3910                 1.6716                 2.5045
 Frc consts  --      1.2964                 1.5815                 2.4478
 IR Inten    --     17.3645                60.4401                69.9138

                     67                     68                     69
                      A                      A                      A
 Frequencies --   1302.7274              1308.0108              1338.1064
 Red. masses --      1.2589                 1.2747                 1.6347
 Frc consts  --      1.2588                 1.2849                 1.7245
 IR Inten    --      9.8625                 4.5786                 8.6298

                     70                     71                     72
                      A                      A                      A
 Frequencies --   1345.9277              1368.7381              1374.4744
 Red. masses --      1.7048                 1.6009                 1.3443
 Frc consts  --      1.8196                 1.7671                 1.4963
 IR Inten    --      9.6196                 3.8781                 1.5446

                     73                     74                     75
                      A                      A                      A
 Frequencies --   1379.9408              1385.0040              1390.2692
 Red. masses --      1.4402                 1.9240                 1.4263
 Frc consts  --      1.6158                 2.1745                 1.6243
 IR Inten    --      5.3290                15.8315                17.4698

                     76                     77                     78
                      A                      A                      A
 Frequencies --   1396.8691              1404.1085              1409.3150
 Red. masses --      1.7583                 1.3992                 1.5434
 Frc consts  --      2.0214                 1.6253                 1.8062
 IR Inten    --     13.4978                13.4787                 1.2587

                     79                     80                     81
                      A                      A                      A
 Frequencies --   1414.9799              1428.5035              1442.8661
 Red. masses --      1.2558                 1.3643                 1.3283
 Frc consts  --      1.4815                 1.6403                 1.6293
 IR Inten    --     82.4897                37.5275                 7.0863

                     82                     83                     84
                      A                      A                      A
 Frequencies --   1447.9340              1449.4058              1475.5164
 Red. masses --      1.3895                 1.4115                 1.3408
 Frc consts  --      1.7164                 1.7471                 1.7199
 IR Inten    --     12.9615                 5.4790               103.7589

                     85                     86                     87
                      A                      A                      A
 Frequencies --   1485.1570              1502.4919              1505.6256
 Red. masses --      1.6444                 1.0997                 1.0794
 Frc consts  --      2.1370                 1.4626                 1.4417
 IR Inten    --    102.1647                32.6163                16.0527

                     88                     89                     90
                      A                      A                      A
 Frequencies --   1516.3645              1518.7292              1520.8791
 Red. masses --      1.1888                 1.0799                 1.1730
 Frc consts  --      1.6105                 1.4676                 1.5986
 IR Inten    --     20.8206                 8.0501                11.5292

                     91                     92                     93
                      A                      A                      A
 Frequencies --   1526.9042              1533.9434              1535.0232
 Red. masses --      1.0663                 1.2134                 1.1080
 Frc consts  --      1.4647                 1.6821                 1.5383
 IR Inten    --      4.3308                 6.4463                15.3807

                     94                     95                     96
                      A                      A                      A
 Frequencies --   1536.7236              1545.0090              1546.7405
 Red. masses --      1.0677                 1.1285                 1.1320
 Frc consts  --      1.4856                 1.5872                 1.5956
 IR Inten    --      6.4947                 4.0966                17.3826

                     97                     98                     99
                      A                      A                      A
 Frequencies --   1567.4616              1602.5499              1636.5825
 Red. masses --      2.3212                 5.3108                 4.0795
 Frc consts  --      3.3602                 8.0359                 6.4378
 IR Inten    --     80.8795                89.2128               715.3697

                    100                    101                    102
                      A                      A                      A
 Frequencies --   3014.4607              3024.7882              3028.8516
 Red. masses --      1.0728                 1.0730                 1.0700
 Frc consts  --      5.7436                 5.7840                 5.7834
 IR Inten    --     36.0086                26.4289                13.0342

                    103                    104                    105
                      A                      A                      A
 Frequencies --   3039.9994              3040.6508              3042.4024
 Red. masses --      1.0604                 1.0514                 1.0760
 Frc consts  --      5.7738                 5.7271                 5.8682
 IR Inten    --     78.8460                43.3479                85.3252

                    106                    107                    108
                      A                      A                      A
 Frequencies --   3047.5335              3049.0470              3049.4135
 Red. masses --      1.0622                 1.0596                 1.0480
 Frc consts  --      5.8121                 5.8038                 5.7418
 IR Inten    --     30.6981                67.4591                20.5705

                    109                    110                    111
                      A                      A                      A
 Frequencies --   3054.1611              3069.5276              3086.1306
 Red. masses --      1.0665                 1.0961                 1.0972
 Frc consts  --      5.8611                 6.0850                 6.1572
 IR Inten    --     23.9417                52.5482                17.0699

                    112                    113                    114
                      A                      A                      A
 Frequencies --   3095.4111              3111.7223              3112.8612
 Red. masses --      1.1076                 1.0984                 1.1008
 Frc consts  --      6.2527                 6.2661                 6.2849
 IR Inten    --     37.8082                30.0980                41.3534

                    115                    116                    117
                      A                      A                      A
 Frequencies --   3116.4868              3120.6992              3127.3660
 Red. masses --      1.0898                 1.0911                 1.1018
 Frc consts  --      6.2365                 6.2605                 6.3491
 IR Inten    --     34.0908                35.1439                43.3868

                    118                    119                    120
                      A                      A                      A
 Frequencies --   3142.4688              3147.2899              3158.2840
 Red. masses --      1.0900                 1.0922                 1.1042
 Frc consts  --      6.3421                 6.3742                 6.4894
 IR Inten    --     19.7273                12.9903                15.4697

                    121                    122                    123
                      A                      A                      A
 Frequencies --   3168.2063              3666.4292              3763.0142
 Red. masses --      1.0903                 1.0762                 1.0663
 Frc consts  --      6.4478                 8.5235                 8.8965
 IR Inten    --     41.0394                22.0439                11.6671

 - Thermochemistry -
 -------------------
 Temperature   298.150 Kelvin.  Pressure   1.00000 Atm.
 Atom     1 has atomic number  6 and mass  12.00000

 Molecular mass:   264.19501 amu.
 Principal axes and moments of inertia in atomic units:
                           1         2         3
     Eigenvalues --  3041.660507133.076908196.92785
           X            0.99995  -0.00029  -0.00987
           Y            0.00026   1.00000  -0.00304
           Z            0.00987   0.00304   0.99995
 This molecule is an asymmetric top.
 Rotational symmetry number  1.
 Warning -- assumption of classical behavior for rotation
           may cause significant error
 Rotational temperatures (Kelvin)      0.02848     0.01214     0.01057
 Rotational constants (GHZ):           0.59334     0.25301     0.22017
 Zero-point vibrational energy    1002933.4 (Joules/Mol)
                                  239.70683 (Kcal/Mol)
 Warning -- explicit consideration of  30 degrees of freedom as
           vibrations may cause significant error
 Vibrational temperatures:     39.94    47.37    67.78   100.73   114.90
          (Kelvin)            130.48   161.69   170.66   189.75   227.30
                              269.22   288.46   325.86   339.70   372.18
                              393.21   421.58   431.03   450.45   484.37
                              526.61   535.47   586.90   619.07   656.27
                              721.29   735.00   762.92   787.05   826.84
                              911.29   953.67  1017.81  1034.04  1130.48
                             1148.70  1182.69  1202.38  1240.17  1257.48
                             1271.45  1276.17  1301.26  1320.03  1379.18
                             1416.39  1433.70  1477.38  1504.13  1513.61
                             1536.73  1553.38  1572.80  1594.03  1605.69
                             1630.04  1638.68  1670.40  1674.37  1695.48
                             1719.26  1746.50  1796.96  1809.60  1823.21
                             1853.10  1874.33  1881.94  1925.24  1936.49
                             1969.31  1977.56  1985.43  1992.71  2000.29
                             2009.78  2020.20  2027.69  2035.84  2055.30
                             2075.96  2083.25  2085.37  2122.94  2136.81
                             2161.75  2166.26  2181.71  2185.11  2188.21
                             2196.87  2207.00  2208.56  2211.00  2222.92
                             2225.41  2255.23  2305.71  2354.68  4337.14
                             4352.00  4357.84  4373.88  4374.82  4377.34
                             4384.72  4386.90  4387.43  4394.26  4416.37
                             4440.25  4453.61  4477.07  4478.71  4483.93
                             4489.99  4499.58  4521.31  4528.25  4544.07
                             4558.34  5275.17  5414.14

 Zero-point correction=                           0.381997 (Hartree/Particle)
 Thermal correction to Energy=                    0.401577
 Thermal correction to Enthalpy=                  0.402522
 Thermal correction to Gibbs Free Energy=         0.333365
 Sum of electronic and zero-point Energies=           -841.876387
 Sum of electronic and thermal Energies=              -841.856806
 Sum of electronic and thermal Enthalpies=            -841.855862
 Sum of electronic and thermal Free Energies=         -841.925018

                     E (Thermal)             CV                S
                      KCal/Mol        Cal/Mol-Kelvin    Cal/Mol-Kelvin
 Total                  251.994             73.980            145.551
 Electronic               0.000              0.000              0.000
 Translational            0.889              2.981             42.614
 Rotational               0.889              2.981             33.541
 Vibrational            250.216             68.018             69.396
 Vibration     1          0.593              1.984              5.983
 Vibration     2          0.594              1.983              5.645
 Vibration     3          0.595              1.979              4.935
 Vibration     4          0.598              1.968              4.153
 Vibration     5          0.600              1.963              3.894
 Vibration     6          0.602              1.956              3.645
 Vibration     7          0.607              1.939              3.227
 Vibration     8          0.609              1.934              3.123
 Vibration     9          0.612              1.921              2.918
 Vibration    10          0.621              1.894              2.574
 Vibration    11          0.632              1.858              2.256
 Vibration    12          0.638              1.839              2.129
 Vibration    13          0.650              1.801              1.907
 Vibration    14          0.655              1.785              1.832
 Vibration    15          0.667              1.748              1.671
 Vibration    16          0.676              1.723              1.575
 Vibration    17          0.688              1.687              1.456
 Vibration    18          0.692              1.674              1.419
 Vibration    19          0.701              1.649              1.346
 Vibration    20          0.717              1.602              1.228
 Vibration    21          0.739              1.542              1.096
 Vibration    22          0.744              1.529              1.071
 Vibration    23          0.772              1.453              0.934
 Vibration    24          0.791              1.404              0.858
 Vibration    25          0.814              1.347              0.777
 Vibration    26          0.857              1.247              0.655
 Vibration    27          0.866              1.226              0.632
 Vibration    28          0.885              1.183              0.587
 Vibration    29          0.902              1.146              0.550
 Vibration    30          0.931              1.086              0.495

                           ! Non-Optimized Parameters !
 Normal termination of Gaussian 16 at Sun Dec 13 16:56:12 2020.

 ----------------------------------------------------------------------
 # B3LYP/6-311++G(d,p) empiricaldispersion=gd3bj scf=xqc pop=npa geom=c
 heck
 ----------------------------------------------------------------------

 --------------------------------------
 CID_80792013_JID_9567_Energie_neutraal
 --------------------------------------
 Structure from the checkpoint file:  "JID_9567.chk"
 Charge =  0 Multiplicity = 1

 SCF Done:  E(RB3LYP) =  -842.496496262     A.U. after   14 cycles
 Normal termination of Gaussian 16 at Sun Dec 13 17:08:21 2020.

 ----------------------------------------------------------------------
 # B3LYP/6-311++G(d,p) empiricaldispersion=gd3bj scf=xqc pop=npa geom=c
 heck
 ----------------------------------------------------------------------

 ------------------------------------
 CID_80792013_JID_9567_Energie_kation
 ------------------------------------
 Structure from the checkpoint file:  "JID_9567.chk"
 Charge =  1 Multiplicity = 2

 SCF Done:  E(UB3LYP) =  -842.227556546     A.U. after   23 cycles
 Normal termination of Gaussian 16 at Sun Dec 13 17:36:43 2020.
 Gaussian 16:  ES64L-G16RevA.03 25-Dec-2016

 ----------------------------------------------------------------------
 # B3LYP/6-311++G(d,p) empiricaldispersion=gd3bj scf=xqc pop=npa geom=c
 heck
 ----------------------------------------------------------------------

 -----------------------------------
 CID_80792013_JID_9567_Energie_anion
 -----------------------------------
 Structure from the checkpoint file:  "JID_9567.chk"
 Charge = -1 Multiplicity = 2

                         Standard orientation:
 ---------------------------------------------------------------------
 Center     Atomic      Atomic             Coordinates (Angstroms)
 Number     Number       Type             X           Y           Z
 ---------------------------------------------------------------------
      1          6           0        3.302332    2.370795    0.306927
      2          6           0        2.030468    2.557660   -0.522117
      3          6           0        1.576675    1.284182   -1.267264
      4          6           0        1.230448    0.158804   -0.313967
      5          6           0        2.158459   -0.866186    0.006720
      6          7           0        1.965806   -1.726510    1.029780
      7          6           0        0.863153   -1.537202    1.747001
      8          7           0       -0.111190   -0.662504    1.521834
      9          6           0        0.059232    0.164593    0.463698
     10          7           0       -0.969842    1.079107    0.211528
     11          6           0       -1.859908    1.433471    1.323148
     12          6           0       -3.097123    0.535710    1.432491
     13          6           0       -3.841354    0.493814    0.092075
     14          6           0       -2.905818    0.105230   -1.065429
     15          6           0       -1.669728    1.026940   -1.078826
     16          6           0       -2.495879   -1.375647   -1.027817
     17          8           0       -3.614032   -2.252899   -1.144857
     18          7           0        3.337728   -1.011866   -0.670319
     19          6           0        4.237389   -2.123426   -0.417326
     20          1           0        3.161276    1.612832    1.084050
     21          1           0        3.589390    3.306853    0.798672
     22          1           0        4.143159    2.048659   -0.319103
     23          1           0        1.207389    2.882707    0.124932
     24          1           0        2.184188    3.354363   -1.262221
     25          1           0        0.729888    1.545832   -1.904518
     26          1           0        2.369302    0.982182   -1.963197
     27          1           0        0.733850   -2.191418    2.608520
     28          1           0       -2.179146    2.472309    1.150503
     29          1           0       -1.278022    1.407333    2.245117
     30          1           0       -3.756756    0.917542    2.222003
     31          1           0       -2.769660   -0.463842    1.735523
     32          1           0       -4.693906   -0.195438    0.130957
     33          1           0       -4.264247    1.486970   -0.116035
     34          1           0       -3.441328    0.258307   -2.012732
     35          1           0       -0.977051    0.685921   -1.849626
     36          1           0       -1.981415    2.047399   -1.341626
     37          1           0       -1.855567   -1.593329   -1.890282
     38          1           0       -1.912862   -1.601286   -0.126160
     39          1           0       -4.041300   -2.295226   -0.276953
     40          1           0        3.420801   -0.546257   -1.558878
     41          1           0        3.797473   -3.091746   -0.690715
     42          1           0        5.149252   -1.965573   -0.999190
     43          1           0        4.489956   -2.161922    0.644178
 ---------------------------------------------------------------------

 SCF Done:  E(UB3LYP) =  -842.486767063     A.U. after   33 cycles
 SCF Done:  E(UB3LYP) =  -842.486767063     a.u. after    1 cycles

 The electronic state is 2-A.
 Alpha  occ. eigenvalues --  -19.03630 -14.23773 -14.23097 -14.20526 -14.20455
 Alpha  occ. eigenvalues --  -10.15629 -10.15173 -10.13862 -10.12157 -10.11285
 Alpha  occ. eigenvalues --  -10.10515 -10.10410 -10.08651 -10.08402 -10.08090
 Alpha  occ. eigenvalues --  -10.07875 -10.07401 -10.07329 -10.06249  -0.93582
 Alpha  occ. eigenvalues --   -0.90107  -0.86528  -0.83223  -0.76782  -0.72580
 Alpha  occ. eigenvalues --   -0.70888  -0.67813  -0.66592  -0.61213  -0.60708
 Alpha  occ. eigenvalues --   -0.59204  -0.56874  -0.54833  -0.53340  -0.50998
 Alpha  occ. eigenvalues --   -0.48875  -0.47161  -0.45407  -0.43126  -0.42172
 Alpha  occ. eigenvalues --   -0.40646  -0.38284  -0.37580  -0.36843  -0.36373
 Alpha  occ. eigenvalues --   -0.35670  -0.35500  -0.34628  -0.33886  -0.33726
 Alpha  occ. eigenvalues --   -0.32487  -0.32131  -0.31209  -0.30631  -0.30274
 Alpha  occ. eigenvalues --   -0.29709  -0.29210  -0.28188  -0.26487  -0.25501
 Alpha  occ. eigenvalues --   -0.25300  -0.25122  -0.24309  -0.24153  -0.23497
 Alpha  occ. eigenvalues --   -0.22601  -0.20114  -0.19766  -0.18527  -0.16271
 Alpha  occ. eigenvalues --   -0.13866  -0.11806   0.03857
 Alpha virt. eigenvalues --    0.05253   0.06209   0.06830   0.07215   0.07525
 Alpha virt. eigenvalues --    0.07901   0.08207   0.08309   0.09029   0.09426
 Alpha virt. eigenvalues --    0.09705   0.09947   0.10713   0.10897   0.11307

  Beta  occ. eigenvalues --  -19.03618 -14.23745 -14.23099 -14.20519 -14.20450
  Beta  occ. eigenvalues --  -10.15622 -10.15170 -10.13860 -10.12149 -10.11270
  Beta  occ. eigenvalues --  -10.10505 -10.10382 -10.08654 -10.08397 -10.08062
  Beta  occ. eigenvalues --  -10.07856 -10.07389 -10.07316 -10.06231  -0.93556
  Beta  occ. eigenvalues --   -0.90092  -0.86508  -0.83197  -0.76763  -0.72556
  Beta  occ. eigenvalues --   -0.70863  -0.67791  -0.66568  -0.61169  -0.60674
  Beta  occ. eigenvalues --   -0.59169  -0.56835  -0.54802  -0.53307  -0.50966
  Beta  occ. eigenvalues --   -0.48815  -0.47129  -0.45369  -0.43099  -0.42144
  Beta  occ. eigenvalues --   -0.40608  -0.38251  -0.37557  -0.36817  -0.36333
  Beta  occ. eigenvalues --   -0.35644  -0.35472  -0.34595  -0.33863  -0.33710
  Beta  occ. eigenvalues --   -0.32463  -0.32110  -0.31186  -0.30587  -0.30245
  Beta  occ. eigenvalues --   -0.29678  -0.29171  -0.28164  -0.26463  -0.25473
  Beta  occ. eigenvalues --   -0.25275  -0.25100  -0.24285  -0.24114  -0.23466
  Beta  occ. eigenvalues --   -0.22576  -0.20092  -0.19752  -0.18509  -0.16260
  Beta  occ. eigenvalues --   -0.13838  -0.11788
  Beta virt. eigenvalues --    0.05724   0.06289   0.06707   0.07064   0.07529
  Beta virt. eigenvalues --    0.07806   0.08250   0.08389   0.08618   0.09213
  Beta virt. eigenvalues --    0.09557   0.10066   0.10257   0.10879   0.11054

 Mulliken charges and spin densities:
               1          2
     1  C    0.278527  -0.973007
     2  C   -0.236416   0.054915
     3  C   -0.663967   0.268152
     4  C    1.150699  -0.874800
     5  C   -0.063683  -0.257525
     6  N   -0.106441  -0.008897
     7  C   -0.041995   0.055132
     8  N   -0.075350   0.016947
     9  C   -0.791504  -0.230494
    10  N    0.532189   0.028927
    11  C    0.170188  -0.132262
    12  C   -0.250778   0.056749
    13  C    0.196661  -0.900003
    14  C   -0.357697   0.612102
    15  C    0.195299  -0.577378
    16  C    0.338339  -0.877592
    17  O   -0.243767   0.019402
    18  N   -0.171576   0.065515
    19  C    0.385189  -0.712231
    20  H    0.103009   0.094413
    21  H    0.011821   0.124549
    22  H   -0.016266   0.164780
    23  H    0.055625   0.069277
    24  H   -0.227607   0.394477
    25  H   -0.203344   0.351665
    26  H   -0.911374   1.058847
    27  H    0.114683   0.062611
    28  H   -0.069271   0.235485
    29  H    0.135582   0.037220
    30  H   -0.222948   0.397440
    31  H    0.156700   0.015104
    32  H   -0.122331   0.252412
    33  H   -0.068751   0.207132
    34  H   -0.047227   0.257408
    35  H    0.136104  -0.029258
    36  H   -0.222957   0.415359
    37  H    0.058384   0.139547
    38  H    0.153347   0.031631
    39  H    0.173178   0.076994
    40  H    0.176781   0.122295
    41  H    0.020866   0.143131
    42  H   -0.519788   0.662963
    43  H    0.091866   0.080865
 Sum of Mulliken charges =  -1.00000   1.00000

 Dipole moment (field-independent basis, Debye):
    X=             -2.7112    Y=             -0.6449    Z=              4.3379  Tot=              5.1559
 Quadrupole moment (field-independent basis, Debye-Ang):
   XX=           -211.8098   YY=           -163.4001   ZZ=           -160.0562
   XY=              0.7387   XZ=             10.7558   YZ=             -0.5797

 Summary of Natural Population Analysis:

                                       Natural Population
                Natural  -----------------------------------------------
    Atom  No    Charge         Core      Valence    Rydberg      Total
 -----------------------------------------------------------------------
      C    1   -0.28739      0.99966     2.28257    0.00516     3.28739
      C    2   -0.18440      0.99963     2.17714    0.00763     3.18440
      C    3   -0.19559      0.99960     2.18507    0.01092     3.19559
      C    4   -0.08427      0.99942     2.07385    0.01099     3.08427
      C    5    0.21868      0.99950     1.76586    0.01596     2.78132
      N    6   -0.28279      0.99968     2.77442    0.00869     3.78279
      C    7    0.15127      0.99966     1.83087    0.01819     2.84873
      N    8   -0.29023      0.99967     2.78048    0.01007     3.79023
      C    9    0.22369      0.99945     1.76193    0.01492     2.77631
      N   10   -0.27198      0.99967     2.76026    0.01206     3.77198
      C   11   -0.08163      0.99961     2.07056    0.01146     3.08163
      C   12   -0.20388      0.99962     2.19533    0.00892     3.20388
      C   13   -0.19371      0.99961     2.18385    0.01025     3.19371
      C   14   -0.12852      0.99958     2.11762    0.01132     3.12852
      C   15   -0.07993      0.99957     2.06855    0.01181     3.07993
      C   16   -0.01414      0.99955     2.00311    0.01148     3.01414
      O   17   -0.36841      0.99990     3.36231    0.00620     4.36841
      N   18   -0.30212      0.99966     2.79224    0.01021     3.80212
      C   19   -0.17757      0.99965     2.16897    0.00896     3.17757
      H   20    0.09859      0.00000     0.40038    0.00103     0.40141
      H   21    0.09585      0.00000     0.40346    0.00070     0.40415
      H   22    0.09893      0.00000     0.39989    0.00118     0.40107
      H   23    0.09724      0.00000     0.40123    0.00153     0.40276
      H   24    0.09503      0.00000     0.40386    0.00111     0.40497
      H   25    0.10561      0.00000     0.39257    0.00182     0.39439
      H   26    0.09752      0.00000     0.39992    0.00256     0.40248
      H   27    0.07967      0.00000     0.41931    0.00101     0.42033
      H   28    0.09089      0.00000     0.40799    0.00113     0.40911
      H   29    0.10681      0.00000     0.39204    0.00115     0.39319
      H   30    0.09836      0.00000     0.40062    0.00101     0.40164
      H   31    0.10318      0.00000     0.39509    0.00173     0.39682
      H   32    0.09834      0.00000     0.40035    0.00131     0.40166
      H   33    0.09838      0.00000     0.40023    0.00139     0.40162
      H   34    0.10164      0.00000     0.39686    0.00151     0.39836
      H   35    0.10267      0.00000     0.39574    0.00159     0.39733
      H   36    0.09692      0.00000     0.40181    0.00127     0.40308
      H   37    0.08669      0.00000     0.41206    0.00126     0.41331
      H   38    0.08731      0.00000     0.41100    0.00169     0.41269
      H   39    0.22636      0.00000     0.27079    0.00285     0.27364
      H   40    0.19646      0.00000     0.29846    0.00508     0.30354
      H   41    0.09141      0.00000     0.40735    0.00124     0.40859
      H   42    0.09809      0.00000     0.40064    0.00127     0.40191
      H   43    0.10100      0.00000     0.39765    0.00135     0.39900
 =======================================================================
   * Total *    0.00000     18.99271    52.76432    0.24297    72.00000

 Normal termination of Gaussian 16 at Sun Dec 13 18:15:28 2020.
