 Gaussian 16, Revision A.03,

 -----------------------------------------------------------
 # opt freq B3LYP/6-31G(d) empiricaldispersion=gd3bj scf=xqc
 -----------------------------------------------------------

 -------------------------------
 CID_131202501_JID_1704_neutraal
 -------------------------------
 Symbolic Z-matrix:
 Charge =  0 Multiplicity = 1

 SCF Done:  E(RB3LYP) =  -572.163919162     A.U. after   14 cycles
 SCF Done:  E(RB3LYP) =  -572.167611710     A.U. after   13 cycles
 SCF Done:  E(RB3LYP) =  -572.166368012     A.U. after   13 cycles
 SCF Done:  E(RB3LYP) =  -572.168572624     A.U. after   11 cycles
 SCF Done:  E(RB3LYP) =  -572.169022242     A.U. after   12 cycles
 SCF Done:  E(RB3LYP) =  -572.169109917     A.U. after   11 cycles
 SCF Done:  E(RB3LYP) =  -572.169176829     A.U. after   10 cycles
 SCF Done:  E(RB3LYP) =  -572.169203781     A.U. after   10 cycles
 SCF Done:  E(RB3LYP) =  -572.169210072     A.U. after   10 cycles
 SCF Done:  E(RB3LYP) =  -572.169213214     A.U. after    8 cycles
 SCF Done:  E(RB3LYP) =  -572.169213988     A.U. after    8 cycles
 SCF Done:  E(RB3LYP) =  -572.169214074     A.U. after    7 cycles
 Optimization completed.
    -- Stationary point found.
 Normal termination of Gaussian 16 at Tue Dec  8 20:49:55 2020.

 --------------------------------------------------------------------
 #N Geom=AllCheck Guess=TCheck SCRF=Check GenChk RB3LYP/6-31G(d) Freq
 --------------------------------------------------------------------

 Structure from the checkpoint file:  "JID_1704.chk"
 -------------------------------
 CID_131202501_JID_1704_neutraal
 -------------------------------
 Charge =  0 Multiplicity = 1

 SCF Done:  E(RB3LYP) =  -572.169214074     A.U. after    1 cycles

  Exact polarizability: 104.925   5.867  99.474   1.720   0.961  64.020
 Approx polarizability: 128.783  13.849 140.555   3.234   2.539  98.326

                      1                      2                      3
                      A                      A                      A
 Frequencies --     37.2153                60.6883                75.1657
 Red. masses --      2.8806                 3.4949                 4.3002
 Frc consts  --      0.0024                 0.0076                 0.0143
 IR Inten    --      0.3274                 0.2668                 0.0651

                      4                      5                      6
                      A                      A                      A
 Frequencies --    115.5661               144.4373               161.7931
 Red. masses --      3.1769                 3.2701                 4.8582
 Frc consts  --      0.0250                 0.0402                 0.0749
 IR Inten    --      0.0570                 0.6814                 6.4670

                      7                      8                      9
                      A                      A                      A
 Frequencies --    192.6800               216.3857               230.4372
 Red. masses --      3.0153                 1.2624                 1.0618
 Frc consts  --      0.0660                 0.0348                 0.0332
 IR Inten    --      2.1073                 0.6595                 0.1872

                     10                     11                     12
                      A                      A                      A
 Frequencies --    270.2490               276.6634               300.7354
 Red. masses --      1.9691                 1.5444                 3.9108
 Frc consts  --      0.0847                 0.0696                 0.2084
 IR Inten    --      0.2855                 1.9101                 2.9045

                     13                     14                     15
                      A                      A                      A
 Frequencies --    350.2942               394.8340               418.7380
 Red. masses --      3.0247                 2.8325                 2.1270
 Frc consts  --      0.2187                 0.2602                 0.2197
 IR Inten    --      9.1945                12.3850                 0.5280

                     16                     17                     18
                      A                      A                      A
 Frequencies --    429.6695               528.3656               572.8642
 Red. masses --      2.8775                 3.2850                 3.7804
 Frc consts  --      0.3130                 0.5403                 0.7310
 IR Inten    --      4.4775                 4.1581                 9.7477

                     19                     20                     21
                      A                      A                      A
 Frequencies --    594.7310               649.9239               752.3698
 Red. masses --      3.6698                 1.6351                 3.3528
 Frc consts  --      0.7648                 0.4069                 1.1182
 IR Inten    --     20.1917               285.8725                45.5340

                     22                     23                     24
                      A                      A                      A
 Frequencies --    787.1460               824.4827               927.4918
 Red. masses --      5.5442                 2.6732                 1.4321
 Frc consts  --      2.0239                 1.0707                 0.7258
 IR Inten    --    149.5764                 4.3861                 9.4039

                     25                     26                     27
                      A                      A                      A
 Frequencies --    941.2789               952.2915               978.9746
 Red. masses --      1.3279                 1.8444                 2.1007
 Frc consts  --      0.6932                 0.9855                 1.1862
 IR Inten    --      1.7314                10.1660                 7.2364

                     28                     29                     30
                      A                      A                      A
 Frequencies --    981.7703               993.9642              1016.5192
 Red. masses --      1.5908                 3.2984                 3.3238
 Frc consts  --      0.9034                 1.9200                 2.0235
 IR Inten    --      3.8864                57.4825                40.4135

                     31                     32                     33
                      A                      A                      A
 Frequencies --   1112.5457              1144.2437              1155.1890
 Red. masses --      6.5263                 6.1670                 2.2873
 Frc consts  --      4.7594                 4.7573                 1.7984
 IR Inten    --     15.4169                40.9808                 0.9299

                     34                     35                     36
                      A                      A                      A
 Frequencies --   1187.2502              1207.9197              1211.5288
 Red. masses --      1.2768                 1.9973                 1.7860
 Frc consts  --      1.0604                 1.7170                 1.5446
 IR Inten    --      2.5041                 0.3191                 0.0725

                     37                     38                     39
                      A                      A                      A
 Frequencies --   1228.6847              1316.7811              1344.3048
 Red. masses --      1.5099                 1.1993                 1.2731
 Frc consts  --      1.3430                 1.2252                 1.3555
 IR Inten    --      3.9347                 1.2237                 5.8063

                     40                     41                     42
                      A                      A                      A
 Frequencies --   1397.7994              1414.2218              1429.7370
 Red. masses --      1.2998                 1.3359                 1.4313
 Frc consts  --      1.4963                 1.5742                 1.7238
 IR Inten    --      1.9465                 5.5561                51.7923

                     43                     44                     45
                      A                      A                      A
 Frequencies --   1433.6832              1447.1989              1450.3808
 Red. masses --      1.6206                 1.4415                 1.2291
 Frc consts  --      1.9626                 1.7788                 1.5233
 IR Inten    --     87.8908                41.7129                 8.7385

                     46                     47                     48
                      A                      A                      A
 Frequencies --   1464.8476              1485.1379              1503.6571
 Red. masses --      1.5863                 1.2247                 1.0855
 Frc consts  --      2.0055                 1.5915                 1.4461
 IR Inten    --     41.7190                 5.6274                 8.5058

                     49                     50                     51
                      A                      A                      A
 Frequencies --   1506.8824              1519.3018              1525.6596
 Red. masses --      1.0637                 1.0551                 1.0493
 Frc consts  --      1.4231                 1.4349                 1.4390
 IR Inten    --      1.0235                 1.3711                 2.9443

                     52                     53                     54
                      A                      A                      A
 Frequencies --   1535.3236              1537.6862              1545.8837
 Red. masses --      1.0576                 1.0579                 1.0491
 Frc consts  --      1.4688                 1.4737                 1.4771
 IR Inten    --      4.8130                 6.4707                16.5903

                     55                     56                     57
                      A                      A                      A
 Frequencies --   1798.6956              3030.2780              3041.6163
 Red. masses --      7.6218                 1.0838                 1.0361
 Frc consts  --     14.5285                 5.8636                 5.6475
 IR Inten    --    379.3416                14.9348                25.7570

                     58                     59                     60
                      A                      A                      A
 Frequencies --   3043.8715              3048.7114              3064.4284
 Red. masses --      1.0334                 1.0361                 1.0594
 Frc consts  --      5.6412                 5.6739                 5.8614
 IR Inten    --     47.2488                22.5121                32.1375

                     61                     62                     63
                      A                      A                      A
 Frequencies --   3104.5653              3113.1758              3119.1750
 Red. masses --      1.1018                 1.1027                 1.1020
 Frc consts  --      6.2571                 6.2968                 6.3172
 IR Inten    --     23.5782                14.2560                59.6548

                     64                     65                     66
                      A                      A                      A
 Frequencies --   3119.6540              3121.1029              3126.8439
 Red. masses --      1.1017                 1.1010                 1.1054
 Frc consts  --      6.3173                 6.3193                 6.3678
 IR Inten    --     28.7815                30.7228                43.1815

                     67                     68                     69
                      A                      A                      A
 Frequencies --   3155.2245              3530.2093              3545.0601
 Red. masses --      1.1068                 1.0765                 1.0765
 Frc consts  --      6.4922                 7.9047                 7.9708
 IR Inten    --     19.3818                15.3923                14.4114

 - Thermochemistry -
 -------------------
 Temperature   298.150 Kelvin.  Pressure   1.00000 Atm.
 Atom     1 has atomic number  6 and mass  12.00000

 Molecular mass:   162.10044 amu.
 Principal axes and moments of inertia in atomic units:
                           1         2         3
     Eigenvalues --  1095.633762794.174313654.81083
           X            0.99961  -0.02647  -0.00876
           Y            0.02652   0.99963   0.00647
           Z            0.00859  -0.00670   0.99994
 This molecule is an asymmetric top.
 Rotational symmetry number  1.
 Warning -- assumption of classical behavior for rotation
           may cause significant error
 Rotational temperatures (Kelvin)      0.07905     0.03100     0.02370
 Rotational constants (GHZ):           1.64721     0.64589     0.49380
 Zero-point vibrational energy     563717.4 (Joules/Mol)
                                  134.73169 (Kcal/Mol)
 Warning -- explicit consideration of  19 degrees of freedom as
           vibrations may cause significant error
 Vibrational temperatures:     53.54    87.32   108.15   166.27   207.81
          (Kelvin)            232.78   277.22   311.33   331.55   388.83
                              398.06   432.69   504.00   568.08   602.47
                              618.20   760.20   824.22   855.69   935.10
                             1082.49  1132.53  1186.25  1334.45  1354.29
                             1370.14  1408.53  1412.55  1430.09  1462.54
                             1600.71  1646.31  1662.06  1708.19  1737.93
                             1743.12  1767.80  1894.55  1934.15  2011.12
                             2034.75  2057.07  2062.75  2082.20  2086.77
                             2107.59  2136.78  2163.43  2168.07  2185.94
                             2195.08  2208.99  2212.39  2224.18  2587.92
                             4359.89  4376.21  4379.45  4386.42  4409.03
                             4466.78  4479.17  4487.80  4488.49  4490.57
                             4498.83  4539.66  5079.18  5100.55

 Zero-point correction=                           0.214709 (Hartree/Particle)
 Thermal correction to Energy=                    0.227627
 Thermal correction to Enthalpy=                  0.228571
 Thermal correction to Gibbs Free Energy=         0.175040
 Sum of electronic and zero-point Energies=           -571.954505
 Sum of electronic and thermal Energies=              -571.941587
 Sum of electronic and thermal Enthalpies=            -571.940643
 Sum of electronic and thermal Free Energies=         -571.994174

                     E (Thermal)             CV                S
                      KCal/Mol        Cal/Mol-Kelvin    Cal/Mol-Kelvin
 Total                  142.838             46.296            112.665
 Electronic               0.000              0.000              0.000
 Translational            0.889              2.981             41.158
 Rotational               0.889              2.981             30.793
 Vibrational            141.060             40.334             40.714
 Vibration     1          0.594              1.982              5.402
 Vibration     2          0.597              1.973              4.435
 Vibration     3          0.599              1.966              4.013
 Vibration     4          0.608              1.936              3.173
 Vibration     5          0.616              1.909              2.744
 Vibration     6          0.622              1.889              2.529
 Vibration     7          0.635              1.850              2.202
 Vibration     8          0.645              1.816              1.989
 Vibration     9          0.652              1.794              1.876
 Vibration    10          0.674              1.728              1.595
 Vibration    11          0.678              1.717              1.554
 Vibration    12          0.693              1.672              1.413
 Vibration    13          0.727              1.575              1.165
 Vibration    14          0.762              1.481              0.982
 Vibration    15          0.782              1.430              0.896
 Vibration    16          0.791              1.406              0.860
 Vibration    17          0.883              1.187              0.591
 Vibration    18          0.929              1.090              0.499
 Vibration    19          0.952              1.043              0.459

                           ! Non-Optimized Parameters !
 Normal termination of Gaussian 16 at Tue Dec  8 20:54:36 2020.

 ----------------------------------------------------------------------
 # B3LYP/6-311++G(d,p) empiricaldispersion=gd3bj scf=xqc pop=npa geom=c
 heck
 ----------------------------------------------------------------------

 ---------------------------------------
 CID_131202501_JID_1704_Energie_neutraal
 ---------------------------------------
 Structure from the checkpoint file:  "JID_1704.chk"
 Charge =  0 Multiplicity = 1

 SCF Done:  E(RB3LYP) =  -572.348322271     A.U. after   14 cycles
 Normal termination of Gaussian 16 at Tue Dec  8 20:56:22 2020.

 ----------------------------------------------------------------------
 # B3LYP/6-311++G(d,p) empiricaldispersion=gd3bj scf=xqc pop=npa geom=c
 heck
 ----------------------------------------------------------------------

 -------------------------------------
 CID_131202501_JID_1704_Energie_kation
 -------------------------------------
 Structure from the checkpoint file:  "JID_1704.chk"
 Charge =  1 Multiplicity = 2

 SCF Done:  E(UB3LYP) =  -571.995170434     A.U. after   33 cycles
 SCF Done:  E(UB3LYP) =  -572.003717552     a.u. after   13 cycles
 Normal termination of Gaussian 16 at Tue Dec  8 21:40:17 2020.
 Gaussian 16:  ES64L-G16RevA.03 25-Dec-2016

 ----------------------------------------------------------------------
 # B3LYP/6-311++G(d,p) empiricaldispersion=gd3bj scf=xqc pop=npa geom=c
 heck
 ----------------------------------------------------------------------

 ------------------------------------
 CID_131202501_JID_1704_Energie_anion
 ------------------------------------
 Structure from the checkpoint file:  "JID_1704.chk"
 Charge = -1 Multiplicity = 2

                         Standard orientation:
 ---------------------------------------------------------------------
 Center     Atomic      Atomic             Coordinates (Angstroms)
 Number     Number       Type             X           Y           Z
 ---------------------------------------------------------------------
      1          6           0        2.678244   -1.438900   -0.075321
      2          6           0        2.555657    0.041430    0.303435
      3          6           0        3.562506    0.898115   -0.476156
      4          6           0        1.149178    0.595611    0.072397
      5          8           0        0.136717   -0.091538    0.833363
      6          7           0       -0.466710   -1.107116    0.066292
      7          6           0       -1.850429   -1.074888   -0.071170
      8          8           0       -2.494467   -2.107415   -0.181571
      9          7           0       -2.481169    0.166181   -0.082815
     10          8           0       -1.772781    1.251859   -0.640984
     11          6           0       -1.747875    2.322992    0.303062
     12          1           0        2.374384   -1.608820   -1.115201
     13          1           0        2.057215   -2.070213    0.568516
     14          1           0        3.713551   -1.780608    0.034656
     15          1           0        2.772992    0.139724    1.376451
     16          1           0        3.387537    0.821153   -1.556735
     17          1           0        3.492134    1.956864   -0.199836
     18          1           0        4.588420    0.568027   -0.281344
     19          1           0        1.098483    1.634622    0.417119
     20          1           0        0.870465    0.567354   -0.984888
     21          1           0       -0.174209   -2.021159    0.400831
     22          1           0       -3.389740    0.084455   -0.533531
     23          1           0       -2.762296    2.678419    0.522877
     24          1           0       -1.255181    2.009040    1.227625
     25          1           0       -1.178039    3.118292   -0.184841
 ---------------------------------------------------------------------

 SCF Done:  E(UB3LYP) =  -572.334988327     A.U. after   31 cycles

 The electronic state is 2-A.
 Alpha  occ. eigenvalues --  -19.07878 -19.07440 -19.01079 -14.29033 -14.28975
 Alpha  occ. eigenvalues --  -10.21502 -10.11638 -10.11548 -10.07766 -10.06275
 Alpha  occ. eigenvalues --  -10.05974  -1.01921  -0.99137  -0.95628  -0.78723
 Alpha  occ. eigenvalues --   -0.76108  -0.70162  -0.59353  -0.58866  -0.57905
 Alpha  occ. eigenvalues --   -0.53105  -0.47528  -0.45353  -0.44133  -0.41759
 Alpha  occ. eigenvalues --   -0.39273  -0.37456  -0.36486  -0.35164  -0.34795
 Alpha  occ. eigenvalues --   -0.33798  -0.32130  -0.29778  -0.28651  -0.28227
 Alpha  occ. eigenvalues --   -0.27678  -0.27036  -0.24429  -0.23280  -0.21131
 Alpha  occ. eigenvalues --   -0.20165  -0.18365  -0.17963  -0.17198   0.04400
 Alpha virt. eigenvalues --    0.06321   0.07527   0.08401   0.08672   0.09180
 Alpha virt. eigenvalues --    0.09372   0.10355   0.10951   0.11537   0.11918
 Alpha virt. eigenvalues --    0.12372   0.13312   0.14025   0.14503   0.15122

  Beta  occ. eigenvalues --  -19.07870 -19.07432 -19.01077 -14.29013 -14.28962
  Beta  occ. eigenvalues --  -10.21500 -10.11620 -10.11499 -10.07754 -10.06243
  Beta  occ. eigenvalues --  -10.05931  -1.01906  -0.99121  -0.95622  -0.78701
  Beta  occ. eigenvalues --   -0.76075  -0.70125  -0.59290  -0.58787  -0.57843
  Beta  occ. eigenvalues --   -0.53061  -0.47461  -0.45329  -0.44103  -0.41730
  Beta  occ. eigenvalues --   -0.39228  -0.37407  -0.36444  -0.35116  -0.34775
  Beta  occ. eigenvalues --   -0.33758  -0.32098  -0.29737  -0.28608  -0.28183
  Beta  occ. eigenvalues --   -0.27644  -0.27000  -0.24380  -0.23232  -0.21111
  Beta  occ. eigenvalues --   -0.20141  -0.18346  -0.17931  -0.17184
  Beta virt. eigenvalues --    0.06787   0.07500   0.08336   0.08829   0.09069
  Beta virt. eigenvalues --    0.09719   0.10006   0.10946   0.11389   0.11905
  Beta virt. eigenvalues --    0.12547   0.12693   0.13464   0.14297   0.14876

 Mulliken charges and spin densities:
               1          2
     1  C    0.708526  -1.347938
     2  C   -2.439435   2.817185
     3  C    1.337124  -1.925763
     4  C    1.415922  -1.913220
     5  O    0.056356   0.010333
     6  N   -0.402839   0.044806
     7  C    0.280610  -0.097238
     8  O   -0.372692   0.013492
     9  N   -0.459726   0.086736
    10  O   -0.045722   0.044377
    11  C    1.284641  -1.536954
    12  H    0.000643   0.164029
    13  H   -0.164471   0.260109
    14  H   -0.345546   0.502848
    15  H   -0.230276   0.403691
    16  H   -0.062698   0.193560
    17  H   -0.511287   0.650497
    18  H   -0.431051   0.592246
    19  H    0.250512  -0.081697
    20  H    0.030138   0.147957
    21  H    0.271581   0.031924
    22  H    0.055217   0.243506
    23  H   -0.467234   0.621836
    24  H   -0.315890   0.482612
    25  H   -0.442403   0.591065
 Sum of Mulliken charges =  -1.00000   1.00000

 Dipole moment (field-independent basis, Debye):
    X=             -2.7259    Y=             -3.3315    Z=             -0.7239  Tot=              4.3650
 Quadrupole moment (field-independent basis, Debye-Ang):
   XX=           -144.6261   YY=           -122.5330   ZZ=            -93.1621
   XY=             -0.5642   XZ=              0.3575   YZ=             -1.6278

 Summary of Natural Population Analysis:

                                       Natural Population
                Natural  -----------------------------------------------
    Atom  No    Charge         Core      Valence    Rydberg      Total
 -----------------------------------------------------------------------
      C    1   -0.28555      0.99965     2.27932    0.00658     3.28555
      C    2   -0.12793      0.99961     2.11816    0.01016     3.12793
      C    3   -0.28540      0.99965     2.27947    0.00628     3.28540
      C    4   -0.00855      0.99953     1.99490    0.01412     3.00855
      O    5   -0.21937      0.99989     3.20969    0.00979     4.21937
      N    6   -0.17295      0.99964     2.66078    0.01254     3.67295
      C    7    0.39073      0.99973     1.58785    0.02170     2.60927
      O    8   -0.32468      0.99988     3.31916    0.00565     4.32468
      N    9   -0.17473      0.99964     2.66172    0.01337     3.67473
      O   10   -0.21660      0.99990     3.20579    0.01091     4.21660
      C   11   -0.09888      0.99962     2.08874    0.01052     3.09888
      H   12    0.09750      0.00000     0.40143    0.00107     0.40250
      H   13    0.09512      0.00000     0.40347    0.00142     0.40488
      H   14    0.10231      0.00000     0.39655    0.00114     0.39769
      H   15    0.09561      0.00000     0.40240    0.00199     0.40439
      H   16    0.09592      0.00000     0.40292    0.00116     0.40408
      H   17    0.10332      0.00000     0.39484    0.00184     0.39668
      H   18    0.10269      0.00000     0.39581    0.00150     0.39731
      H   19    0.09448      0.00000     0.40350    0.00202     0.40552
      H   20    0.09183      0.00000     0.40619    0.00198     0.40817
      H   21    0.18844      0.00000     0.30968    0.00188     0.31156
      H   22    0.18788      0.00000     0.30995    0.00217     0.31212
      H   23    0.08387      0.00000     0.41359    0.00253     0.41613
      H   24    0.09058      0.00000     0.40744    0.00198     0.40942
      H   25    0.09436      0.00000     0.40336    0.00228     0.40564
 =======================================================================
   * Total *   -0.00000     10.99675    32.85668    0.14656    44.00000

 Normal termination of Gaussian 16 at Tue Dec  8 21:46:46 2020.
