 Gaussian 16, Revision A.03,

 -----------------------------------------------------------
 # opt freq B3LYP/6-31G(d) empiricaldispersion=gd3bj scf=xqc
 -----------------------------------------------------------

 -------------------------------
 CID_113754177_JID_7779_neutraal
 -------------------------------
 Symbolic Z-matrix:
 Charge =  0 Multiplicity = 1

 SCF Done:  E(RB3LYP) =  -783.442045734     A.U. after   14 cycles
 SCF Done:  E(RB3LYP) =  -783.448012161     A.U. after   14 cycles
 SCF Done:  E(RB3LYP) =  -783.450421458     A.U. after   12 cycles
 SCF Done:  E(RB3LYP) =  -783.445872827     A.U. after   14 cycles
 SCF Done:  E(RB3LYP) =  -783.450246179     A.U. after   14 cycles
 SCF Done:  E(RB3LYP) =  -783.452103507     A.U. after   11 cycles
 SCF Done:  E(RB3LYP) =  -783.452959715     A.U. after   12 cycles
 SCF Done:  E(RB3LYP) =  -783.453522758     A.U. after   12 cycles
 SCF Done:  E(RB3LYP) =  -783.453892487     A.U. after   11 cycles
 SCF Done:  E(RB3LYP) =  -783.454121936     A.U. after   11 cycles
 SCF Done:  E(RB3LYP) =  -783.454299669     A.U. after    9 cycles
 SCF Done:  E(RB3LYP) =  -783.454300809     A.U. after    8 cycles
 SCF Done:  E(RB3LYP) =  -783.454301127     A.U. after    7 cycles
 SCF Done:  E(RB3LYP) =  -783.454301227     A.U. after    7 cycles
 SCF Done:  E(RB3LYP) =  -783.454301247     A.U. after    6 cycles
 Optimization completed.
    -- Stationary point found.
 Normal termination of Gaussian 16 at Mon Dec 14 13:25:17 2020.

 --------------------------------------------------------------------
 #N Geom=AllCheck Guess=TCheck SCRF=Check GenChk RB3LYP/6-31G(d) Freq
 --------------------------------------------------------------------

 Structure from the checkpoint file:  "JID_7779.chk"
 -------------------------------
 CID_113754177_JID_7779_neutraal
 -------------------------------
 Charge =  0 Multiplicity = 1

 SCF Done:  E(RB3LYP) =  -783.454301247     A.U. after    1 cycles

  Exact polarizability: 176.546 -13.985 122.508   1.797   8.432 138.839
 Approx polarizability: 237.526 -25.136 176.706   4.318  15.277 231.952

                      1                      2                      3
                      A                      A                      A
 Frequencies --     49.2259                52.9436                59.6034
 Red. masses --      4.6956                 3.1442                 3.4513
 Frc consts  --      0.0067                 0.0052                 0.0072
 IR Inten    --      0.5648                 1.1837                 0.7136

                      4                      5                      6
                      A                      A                      A
 Frequencies --     84.6381                97.5503               105.7910
 Red. masses --      2.8686                 3.2877                 4.5036
 Frc consts  --      0.0121                 0.0184                 0.0297
 IR Inten    --      2.3222                 0.3203                 0.4658

                      7                      8                      9
                      A                      A                      A
 Frequencies --    115.5208               141.1165               187.7736
 Red. masses --      3.1628                 3.8520                 3.1324
 Frc consts  --      0.0249                 0.0452                 0.0651
 IR Inten    --      1.5634                 1.4029                 3.5606

                     10                     11                     12
                      A                      A                      A
 Frequencies --    234.5230               255.4065               258.0896
 Red. masses --      3.2976                 1.3217                 2.9201
 Frc consts  --      0.1069                 0.0508                 0.1146
 IR Inten    --      2.4252                 1.9855                 3.4575

                     13                     14                     15
                      A                      A                      A
 Frequencies --    295.2726               315.6632               325.8322
 Red. masses --      2.4554                 2.9943                 1.9574
 Frc consts  --      0.1261                 0.1758                 0.1224
 IR Inten    --      0.5205                 2.7985                 3.2561

                     16                     17                     18
                      A                      A                      A
 Frequencies --    367.6146               381.9701               422.3632
 Red. masses --      2.1810                 3.2555                 3.0090
 Frc consts  --      0.1737                 0.2799                 0.3163
 IR Inten    --      0.8628                 2.0409                 1.8866

                     19                     20                     21
                      A                      A                      A
 Frequencies --    438.6720               449.9085               477.3793
 Red. masses --      2.8894                 5.1010                 3.6478
 Frc consts  --      0.3276                 0.6084                 0.4898
 IR Inten    --      2.4701                 1.7372                 7.9129

                     22                     23                     24
                      A                      A                      A
 Frequencies --    496.0774               541.9251               568.8445
 Red. masses --      3.2254                 2.1858                 3.3851
 Frc consts  --      0.4677                 0.3782                 0.6454
 IR Inten    --     11.7894                 8.7874                11.1324

                     25                     26                     27
                      A                      A                      A
 Frequencies --    613.8600               648.7102               731.6829
 Red. masses --      2.5112                 4.2222                 2.9180
 Frc consts  --      0.5575                 1.0469                 0.9204
 IR Inten    --     17.2165                 2.8800                23.9909

                     28                     29                     30
                      A                      A                      A
 Frequencies --    764.4778               799.9475               815.0438
 Red. masses --      4.7460                 3.5234                 2.9313
 Frc consts  --      1.6342                 1.3284                 1.1473
 IR Inten    --      5.1620                14.8042                25.5522

                     31                     32                     33
                      A                      A                      A
 Frequencies --    835.0009               871.5557               911.2232
 Red. masses --      1.9996                 2.4958                 2.7773
 Frc consts  --      0.8214                 1.1170                 1.3587
 IR Inten    --     26.1627                15.4584                 6.9571

                     34                     35                     36
                      A                      A                      A
 Frequencies --    919.2465               950.1636               956.4856
 Red. masses --      2.2409                 1.4809                 2.6716
 Frc consts  --      1.1157                 0.7877                 1.4401
 IR Inten    --     10.3878                15.2397                 1.8608

                     37                     38                     39
                      A                      A                      A
 Frequencies --    966.7460              1008.2098              1022.2990
 Red. masses --      2.7283                 2.7006                 2.3409
 Frc consts  --      1.5023                 1.6174                 1.4414
 IR Inten    --     16.9743                35.9318                 8.9993

                     40                     41                     42
                      A                      A                      A
 Frequencies --   1033.0749              1034.8122              1057.1903
 Red. masses --      1.7504                 1.9699                 2.6651
 Frc consts  --      1.1006                 1.2429                 1.7550
 IR Inten    --      1.2234                 4.1682                27.0987

                     43                     44                     45
                      A                      A                      A
 Frequencies --   1080.5531              1098.1789              1128.5147
 Red. masses --      2.1525                 2.0274                 1.9592
 Frc consts  --      1.4808                 1.4406                 1.4701
 IR Inten    --     22.1720                 4.0596                 1.3185

                     46                     47                     48
                      A                      A                      A
 Frequencies --   1147.8149              1154.3179              1173.1041
 Red. masses --      3.2800                 3.4247                 4.5051
 Frc consts  --      2.5461                 2.6886                 3.6528
 IR Inten    --     67.6359                26.2540               100.0340

                     49                     50                     51
                      A                      A                      A
 Frequencies --   1196.9914              1203.2105              1209.8626
 Red. masses --      1.2914                 1.7506                 3.5229
 Frc consts  --      1.0902                 1.4932                 3.0382
 IR Inten    --      2.3047                32.7559                 2.0398

                     52                     53                     54
                      A                      A                      A
 Frequencies --   1223.3451              1230.7833              1245.4176
 Red. masses --      1.0869                 1.4269                 1.6763
 Frc consts  --      0.9584                 1.2735                 1.5319
 IR Inten    --      7.2528                 2.7738                15.0437

                     55                     56                     57
                      A                      A                      A
 Frequencies --   1273.4795              1279.0332              1300.2509
 Red. masses --      2.3388                 1.1185                 1.7183
 Frc consts  --      2.2347                 1.0781                 1.7116
 IR Inten    --      3.2080                 3.2517                 2.4144

                     58                     59                     60
                      A                      A                      A
 Frequencies --   1305.5998              1317.0128              1327.2213
 Red. masses --      1.7600                 1.4657                 1.3795
 Frc consts  --      1.7676                 1.4979                 1.4318
 IR Inten    --      8.2140                15.0648                28.1351

                     61                     62                     63
                      A                      A                      A
 Frequencies --   1336.1458              1363.2847              1366.8565
 Red. masses --      1.5403                 1.2119                 1.3902
 Frc consts  --      1.6202                 1.3270                 1.5303
 IR Inten    --      3.8149                14.0546                12.1858

                     64                     65                     66
                      A                      A                      A
 Frequencies --   1380.0247              1410.1903              1428.8733
 Red. masses --      1.5420                 1.2612                 1.4442
 Frc consts  --      1.7302                 1.4777                 1.7372
 IR Inten    --      5.9140                16.8180                53.9831

                     67                     68                     69
                      A                      A                      A
 Frequencies --   1439.8773              1451.8232              1462.2089
 Red. masses --      1.5817                 1.4412                 2.5442
 Frc consts  --      1.9321                 1.7898                 3.2049
 IR Inten    --     13.9889                 5.4694                 4.1645

                     70                     71                     72
                      A                      A                      A
 Frequencies --   1481.4058              1488.5246              1496.7606
 Red. masses --      1.9038                 1.1240                 1.2180
 Frc consts  --      2.4616                 1.4673                 1.6077
 IR Inten    --     65.7820                16.1031                10.3728

                     73                     74                     75
                      A                      A                      A
 Frequencies --   1504.0061              1506.6082              1521.7647
 Red. masses --      1.4570                 1.2476                 1.0930
 Frc consts  --      1.9418                 1.6685                 1.4913
 IR Inten    --     24.6801                28.1019                 0.0649

                     76                     77                     78
                      A                      A                      A
 Frequencies --   1523.7187              1524.4001              1529.3705
 Red. masses --      1.0828                 1.0661                 1.0707
 Frc consts  --      1.4812                 1.4596                 1.4756
 IR Inten    --     12.6750                 2.0199                 5.4499

                     79                     80                     81
                      A                      A                      A
 Frequencies --   1534.2031              1537.6869              1548.7143
 Red. masses --      1.0998                 1.1116                 1.0936
 Frc consts  --      1.5252                 1.5485                 1.5454
 IR Inten    --      9.3501                 0.6166                 0.4063

                     82                     83                     84
                      A                      A                      A
 Frequencies --   1611.5016              1647.1329              2916.0492
 Red. masses --      7.5029                 6.3881                 1.0739
 Frc consts  --     11.4799                10.2112                 5.3803
 IR Inten    --     93.3288               102.0690                74.8927

                     85                     86                     87
                      A                      A                      A
 Frequencies --   2939.6736              2964.8782              2987.0181
 Red. masses --      1.0737                 1.0589                 1.0410
 Frc consts  --      5.4669                 5.4843                 5.4726
 IR Inten    --    102.1107                43.1513                84.6912

                     88                     89                     90
                      A                      A                      A
 Frequencies --   3008.8409              3029.5978              3053.4579
 Red. masses --      1.0974                 1.1042                 1.0595
 Frc consts  --      5.8533                 5.9712                 5.8202
 IR Inten    --     50.9626                48.8014                60.9908

                     91                     92                     93
                      A                      A                      A
 Frequencies --   3055.6152              3057.8486              3069.3946
 Red. masses --      1.0634                 1.0613                 1.0652
 Frc consts  --      5.8499                 5.8470                 5.9126
 IR Inten    --     13.8968                 7.4174                10.1982

                     94                     95                     96
                      A                      A                      A
 Frequencies --   3071.8062              3097.7345              3101.1662
 Red. masses --      1.0867                 1.0929                 1.0962
 Frc consts  --      6.0413                 6.1787                 6.2116
 IR Inten    --     25.9298                32.3856                28.2486

                     97                     98                     99
                      A                      A                      A
 Frequencies --   3103.0497              3110.9665              3134.9274
 Red. masses --      1.1063                 1.1045                 1.1003
 Frc consts  --      6.2764                 6.2981                 6.3714
 IR Inten    --     27.6957                57.1268                11.1705

                    100                    101                    102
                      A                      A                      A
 Frequencies --   3145.1807              3146.2695              3508.7930
 Red. masses --      1.0966                 1.0906                 1.0748
 Frc consts  --      6.3916                 6.3609                 7.7967
 IR Inten    --      7.6207                33.9731                 0.6681

 - Thermochemistry -
 -------------------
 Temperature   298.150 Kelvin.  Pressure   1.00000 Atm.
 Atom     1 has atomic number  6 and mass  12.00000

 Molecular mass:   237.14773 amu.
 Principal axes and moments of inertia in atomic units:
                           1         2         3
     Eigenvalues --  2161.181875379.294925969.14063
           X            1.00000  -0.00081   0.00270
           Y            0.00074   0.99968   0.02516
           Z           -0.00272  -0.02516   0.99968
 This molecule is an asymmetric top.
 Rotational symmetry number  1.
 Warning -- assumption of classical behavior for rotation
           may cause significant error
 Rotational temperatures (Kelvin)      0.04008     0.01610     0.01451
 Rotational constants (GHZ):           0.83507     0.33550     0.30235
 Zero-point vibrational energy     820371.9 (Joules/Mol)
                                  196.07360 (Kcal/Mol)
 Warning -- explicit consideration of  25 degrees of freedom as
           vibrations may cause significant error
 Vibrational temperatures:     70.83    76.17    85.76   121.78   140.35
          (Kelvin)            152.21   166.21   203.04   270.16   337.43
                              367.47   371.33   424.83   454.17   468.80
                              528.92   549.57   607.69   631.15   647.32
                              686.84   713.74   779.71   818.44   883.21
                              933.35  1052.73  1099.91  1150.95  1172.67
                             1201.38  1253.97  1311.05  1322.59  1367.07
                             1376.17  1390.93  1450.59  1470.86  1486.36
                             1488.86  1521.06  1554.67  1580.03  1623.68
                             1651.45  1660.81  1687.84  1722.20  1731.15
                             1740.72  1760.12  1770.82  1791.88  1832.25
                             1840.24  1870.77  1878.47  1894.89  1909.58
                             1922.42  1961.46  1966.60  1985.55  2028.95
                             2055.83  2071.66  2088.85  2103.79  2131.41
                             2141.65  2153.50  2163.93  2167.67  2189.48
                             2192.29  2193.27  2200.42  2207.38  2212.39
                             2228.25  2318.59  2369.86  4195.54  4229.53
                             4265.80  4297.65  4329.05  4358.92  4393.24
                             4396.35  4399.56  4416.17  4419.64  4456.95
                             4461.89  4464.60  4475.99  4510.46  4525.21
                             4526.78  5048.37

 Zero-point correction=                           0.312463 (Hartree/Particle)
 Thermal correction to Energy=                    0.328540
 Thermal correction to Enthalpy=                  0.329484
 Thermal correction to Gibbs Free Energy=         0.268569
 Sum of electronic and zero-point Energies=           -783.141838
 Sum of electronic and thermal Energies=              -783.125762
 Sum of electronic and thermal Enthalpies=            -783.124818
 Sum of electronic and thermal Free Energies=         -783.185732

                     E (Thermal)             CV                S
                      KCal/Mol        Cal/Mol-Kelvin    Cal/Mol-Kelvin
 Total                  206.162             60.989            128.206
 Electronic               0.000              0.000              0.000
 Translational            0.889              2.981             42.292
 Rotational               0.889              2.981             32.606
 Vibrational            204.384             55.028             53.308
 Vibration     1          0.595              1.978              4.848
 Vibration     2          0.596              1.976              4.704
 Vibration     3          0.597              1.974              4.470
 Vibration     4          0.601              1.960              3.780
 Vibration     5          0.603              1.951              3.503
 Vibration     6          0.605              1.945              3.345
 Vibration     7          0.608              1.937              3.174
 Vibration     8          0.615              1.912              2.789
 Vibration     9          0.632              1.857              2.250
 Vibration    10          0.654              1.788              1.844
 Vibration    11          0.666              1.754              1.693
 Vibration    12          0.667              1.749              1.675
 Vibration    13          0.689              1.683              1.444
 Vibration    14          0.703              1.644              1.332
 Vibration    15          0.710              1.624              1.281
 Vibration    16          0.740              1.539              1.090
 Vibration    17          0.751              1.509              1.031
 Vibration    18          0.785              1.422              0.884
 Vibration    19          0.799              1.386              0.831
 Vibration    20          0.809              1.361              0.796
 Vibration    21          0.834              1.300              0.717
 Vibration    22          0.852              1.259              0.668
 Vibration    23          0.897              1.157              0.561
 Vibration    24          0.925              1.099              0.506
 Vibration    25          0.973              1.003              0.426

 Optimization completed.
    -- Stationary point found.
 Normal termination of Gaussian 16 at Mon Dec 14 13:40:39 2020.

 ----------------------------------------------------------------------
 # B3LYP/6-311++G(d,p) empiricaldispersion=gd3bj scf=xqc pop=npa geom=c
 heck
 ----------------------------------------------------------------------

 ---------------------------------------
 CID_113754177_JID_7779_Energie_neutraal
 ---------------------------------------
 Structure from the checkpoint file:  "JID_7779.chk"
 Charge =  0 Multiplicity = 1

 SCF Done:  E(RB3LYP) =  -783.671960056     A.U. after   14 cycles
 Normal termination of Gaussian 16 at Mon Dec 14 13:47:49 2020.

 ----------------------------------------------------------------------
 # B3LYP/6-311++G(d,p) empiricaldispersion=gd3bj scf=xqc pop=npa geom=c
 heck
 ----------------------------------------------------------------------

 -------------------------------------
 CID_113754177_JID_7779_Energie_kation
 -------------------------------------
 Structure from the checkpoint file:  "JID_7779.chk"
 Charge =  1 Multiplicity = 2

 SCF Done:  E(UB3LYP) =  -783.372504730     A.U. after   28 cycles
 Normal termination of Gaussian 16 at Mon Dec 14 14:07:42 2020.
 Gaussian 16:  ES64L-G16RevA.03 25-Dec-2016

 ----------------------------------------------------------------------
 # B3LYP/6-311++G(d,p) empiricaldispersion=gd3bj scf=xqc pop=npa geom=c
 heck
 ----------------------------------------------------------------------

 ------------------------------------
 CID_113754177_JID_7779_Energie_anion
 ------------------------------------
 Structure from the checkpoint file:  "JID_7779.chk"
 Charge = -1 Multiplicity = 2

                         Standard orientation:
 ---------------------------------------------------------------------
 Center     Atomic      Atomic             Coordinates (Angstroms)
 Number     Number       Type             X           Y           Z
 ---------------------------------------------------------------------
      1          6           0        0.073548    2.521457   -0.594105
      2          8           0        0.934720    1.489000   -0.165052
      3          6           0        2.241703    1.945482    0.132598
      4          6           0        3.090119    0.797067    0.665098
      5          8           0        3.670525   -0.036961   -0.325949
      6          6           0        2.804469   -0.881296   -1.071523
      7          6           0        2.062578   -1.956775   -0.239547
      8          6           0        0.702256   -1.497939    0.213049
      9          7           0        0.517148   -1.219261    1.512996
     10          6           0       -0.654773   -0.667110    1.832330
     11          6           0       -1.647185   -0.385132    0.897482
     12          6           0       -2.938299    0.310705    1.254262
     13          7           0       -3.530673    0.896017    0.051851
     14          6           0       -3.742826   -0.129177   -0.973066
     15          6           0       -2.381151   -0.561033   -1.521123
     16          6           0       -1.378022   -0.786496   -0.416802
     17          7           0       -0.212177   -1.347584   -0.752836
     18          1           0        0.043267    3.345396    0.137809
     19          1           0       -0.929104    2.096450   -0.683656
     20          1           0        0.387507    2.936589   -1.565232
     21          1           0        2.721070    2.378451   -0.761138
     22          1           0        2.191224    2.737418    0.901234
     23          1           0        3.947009    1.226378    1.195725
     24          1           0        2.497601    0.218430    1.385053
     25          1           0        2.068657   -0.300460   -1.641430
     26          1           0        3.472515   -1.378579   -1.780811
     27          1           0        1.927218   -2.833421   -0.882970
     28          1           0        2.674520   -2.247523    0.618333
     29          1           0       -0.802110   -0.421957    2.885024
     30          1           0       -2.740618    1.111026    1.977005
     31          1           0       -3.617110   -0.411306    1.751320
     32          1           0       -4.415171    1.336567    0.293152
     33          1           0       -4.280429   -1.011944   -0.576495
     34          1           0       -4.356134    0.293411   -1.774789
     35          1           0       -2.463356   -1.472659   -2.123476
     36          1           0       -1.983098    0.218690   -2.182642
 ---------------------------------------------------------------------

 SCF Done:  E(UB3LYP) =  -783.663660633     A.U. after   33 cycles
 SCF Done:  E(UB3LYP) =  -783.663660633     a.u. after    1 cycles

 The electronic state is 2-A.
 Alpha  occ. eigenvalues --  -19.02332 -19.02152 -14.19091 -14.17950 -14.17380
 Alpha  occ. eigenvalues --  -10.11880 -10.11445 -10.11426 -10.11264 -10.10232
 Alpha  occ. eigenvalues --  -10.08897 -10.08687 -10.08307 -10.08015 -10.06395
 Alpha  occ. eigenvalues --  -10.06121 -10.05630  -0.94139  -0.92744  -0.85684
 Alpha  occ. eigenvalues --   -0.80568  -0.75886  -0.69391  -0.66804  -0.64996
 Alpha  occ. eigenvalues --   -0.63614  -0.58442  -0.55480  -0.53944  -0.52072
 Alpha  occ. eigenvalues --   -0.50654  -0.48124  -0.44807  -0.42061  -0.40511
 Alpha  occ. eigenvalues --   -0.40260  -0.38308  -0.36841  -0.36759  -0.36041
 Alpha  occ. eigenvalues --   -0.35585  -0.34392  -0.33521  -0.31847  -0.30991
 Alpha  occ. eigenvalues --   -0.30189  -0.29716  -0.28984  -0.28738  -0.27819
 Alpha  occ. eigenvalues --   -0.26720  -0.26289  -0.25408  -0.24411  -0.23046
 Alpha  occ. eigenvalues --   -0.22218  -0.20905  -0.18326  -0.17665  -0.16426
 Alpha  occ. eigenvalues --   -0.15786  -0.13614  -0.12368  -0.12176   0.04630
 Alpha virt. eigenvalues --    0.06722   0.07180   0.07986   0.08312   0.08912
 Alpha virt. eigenvalues --    0.09496   0.09699   0.10204   0.10470   0.10978
 Alpha virt. eigenvalues --    0.11400   0.11810   0.12367   0.12612   0.13145

  Beta  occ. eigenvalues --  -19.02332 -19.02149 -14.19067 -14.17832 -14.17201
  Beta  occ. eigenvalues --  -10.11873 -10.11475 -10.11424 -10.11262 -10.10214
  Beta  occ. eigenvalues --  -10.08870 -10.08515 -10.08276 -10.07821 -10.06395
  Beta  occ. eigenvalues --  -10.06181 -10.05640  -0.94134  -0.92741  -0.85436
  Beta  occ. eigenvalues --   -0.80511  -0.75534  -0.69281  -0.66759  -0.64931
  Beta  occ. eigenvalues --   -0.63562  -0.58409  -0.55348  -0.53826  -0.51947
  Beta  occ. eigenvalues --   -0.50470  -0.48076  -0.44724  -0.41962  -0.40480
  Beta  occ. eigenvalues --   -0.40240  -0.38225  -0.36764  -0.36709  -0.35968
  Beta  occ. eigenvalues --   -0.35555  -0.34281  -0.33467  -0.31721  -0.30923
  Beta  occ. eigenvalues --   -0.30119  -0.29675  -0.28872  -0.28570  -0.27715
  Beta  occ. eigenvalues --   -0.26684  -0.26120  -0.25326  -0.24339  -0.22941
  Beta  occ. eigenvalues --   -0.22139  -0.20866  -0.17503  -0.17406  -0.16239
  Beta  occ. eigenvalues --   -0.15701  -0.13316  -0.12209  -0.12034
  Beta virt. eigenvalues --    0.07040   0.07648   0.07943   0.08420   0.09004
  Beta virt. eigenvalues --    0.09218   0.09818   0.10116   0.10302   0.10614
  Beta virt. eigenvalues --    0.11017   0.11675   0.11889   0.12515   0.12795

 Mulliken charges and spin densities:
               1          2
     1  C    0.086072  -0.407881
     2  O   -0.127494   0.027166
     3  C    0.012266  -0.151079
     4  C   -0.625799   0.088139
     5  O   -0.090423   0.000617
     6  C   -0.238656  -0.030799
     7  C   -0.538815  -0.034926
     8  C   -0.092407  -0.114509
     9  N    0.070193   0.043649
    10  C   -0.192055   0.055700
    11  C   -0.441245   0.892609
    12  C    0.884808  -1.611611
    13  N   -0.320794   0.196028
    14  C    0.812722  -1.141340
    15  C   -1.089563   0.666418
    16  C    0.665792  -0.552052
    17  N    0.115345   0.119916
    18  H   -0.115173   0.241122
    19  H    0.188283   0.017015
    20  H   -0.067845   0.184278
    21  H    0.155737   0.010431
    22  H    0.012207   0.093051
    23  H    0.114993   0.045726
    24  H    0.214905  -0.016117
    25  H    0.126974   0.025335
    26  H    0.164318   0.001485
    27  H    0.126223  -0.001327
    28  H    0.188670   0.004161
    29  H    0.027175   0.107283
    30  H   -0.272495   0.472865
    31  H   -0.000733   0.132416
    32  H   -0.280094   0.547320
    33  H    0.081340   0.003249
    34  H   -0.753531   0.951583
    35  H    0.127205   0.024414
    36  H    0.071894   0.109667
 Sum of Mulliken charges =  -1.00000   1.00000

 Dipole moment (field-independent basis, Debye):
    X=              6.6842    Y=             -2.7203    Z=              0.1259  Tot=              7.2177
 Quadrupole moment (field-independent basis, Debye-Ang):
   XX=           -174.6488   YY=           -133.3995   ZZ=           -131.7439
   XY=             16.1065   XZ=             -4.5305   YZ=              1.7156

 Summary of Natural Population Analysis:

                                       Natural Population
                Natural  -----------------------------------------------
    Atom  No    Charge         Core      Valence    Rydberg      Total
 -----------------------------------------------------------------------
      C    1   -0.09892      0.99961     2.08973    0.00958     3.09892
      O    2   -0.30053      0.99988     3.28835    0.01229     4.30053
      C    3   -0.02181      0.99959     2.01025    0.01197     3.02181
      C    4   -0.02906      0.99956     2.01580    0.01370     3.02906
      O    5   -0.30453      0.99989     3.29564    0.00901     4.30453
      C    6   -0.00501      0.99958     1.99445    0.01098     3.00501
      C    7   -0.22307      0.99958     2.21621    0.00728     3.22307
      C    8    0.21368      0.99960     1.76638    0.02034     2.78632
      N    9   -0.25046      0.99967     2.74049    0.01030     3.75046
      C   10    0.08323      0.99953     1.90224    0.01500     2.91677
      C   11   -0.07133      0.99944     2.06200    0.00989     3.07133
      C   12   -0.08950      0.99959     2.07712    0.01279     3.08950
      N   13   -0.33829      0.99974     2.82507    0.01347     3.83829
      C   14   -0.08497      0.99963     2.07364    0.01171     3.08497
      C   15   -0.20920      0.99959     2.19937    0.01024     3.20920
      C   16    0.15656      0.99948     1.82995    0.01401     2.84344
      N   17   -0.23955      0.99963     2.72942    0.01049     3.73955
      H   18    0.07591      0.00000     0.42253    0.00156     0.42409
      H   19    0.10254      0.00000     0.39522    0.00224     0.39746
      H   20    0.07373      0.00000     0.42507    0.00120     0.42627
      H   21    0.07879      0.00000     0.41980    0.00141     0.42121
      H   22    0.07960      0.00000     0.41886    0.00153     0.42040
      H   23    0.08588      0.00000     0.41314    0.00098     0.41412
      H   24    0.10039      0.00000     0.39770    0.00191     0.39961
      H   25    0.09209      0.00000     0.40606    0.00185     0.40791
      H   26    0.08240      0.00000     0.41658    0.00102     0.41760
      H   27    0.10636      0.00000     0.39272    0.00091     0.39364
      H   28    0.10615      0.00000     0.39288    0.00097     0.39385
      H   29    0.08194      0.00000     0.41646    0.00160     0.41806
      H   30    0.10136      0.00000     0.39675    0.00189     0.39864
      H   31    0.08057      0.00000     0.41784    0.00159     0.41943
      H   32    0.17874      0.00000     0.31455    0.00671     0.32126
      H   33    0.07434      0.00000     0.42402    0.00163     0.42566
      H   34    0.09861      0.00000     0.39924    0.00215     0.40139
      H   35    0.10429      0.00000     0.39456    0.00115     0.39571
      H   36    0.10905      0.00000     0.38933    0.00162     0.39095
 =======================================================================
   * Total *    0.00000     16.99359    46.76945    0.23696    64.00000

 Normal termination of Gaussian 16 at Mon Dec 14 14:30:24 2020.
