 Gaussian 16, Revision A.03,

 -----------------------------------------------------------
 # opt freq B3LYP/6-31G(d) empiricaldispersion=gd3bj scf=xqc
 -----------------------------------------------------------

 ------------------------------
 CID_22893880_JID_6514_neutraal
 ------------------------------
 Symbolic Z-matrix:
 Charge =  0 Multiplicity = 1

 SCF Done:  E(RB3LYP) =  -709.695636639     A.U. after   15 cycles
 SCF Done:  E(RB3LYP) =  -709.699261141     A.U. after   12 cycles
 SCF Done:  E(RB3LYP) =  -709.698740349     A.U. after   12 cycles
 SCF Done:  E(RB3LYP) =  -709.699563711     A.U. after   12 cycles
 SCF Done:  E(RB3LYP) =  -709.699714567     A.U. after   12 cycles
 SCF Done:  E(RB3LYP) =  -709.699791437     A.U. after   12 cycles
 SCF Done:  E(RB3LYP) =  -709.699810609     A.U. after   10 cycles
 SCF Done:  E(RB3LYP) =  -709.699830087     A.U. after   10 cycles
 SCF Done:  E(RB3LYP) =  -709.699843178     A.U. after   10 cycles
 SCF Done:  E(RB3LYP) =  -709.699836545     A.U. after    9 cycles
 SCF Done:  E(RB3LYP) =  -709.700276899     A.U. after    9 cycles
 SCF Done:  E(RB3LYP) =  -709.700279642     A.U. after   10 cycles
 SCF Done:  E(RB3LYP) =  -709.700280642     A.U. after    8 cycles
 SCF Done:  E(RB3LYP) =  -709.700281033     A.U. after    9 cycles
 SCF Done:  E(RB3LYP) =  -709.700281077     A.U. after    7 cycles
 Optimization completed.
    -- Stationary point found.
 Normal termination of Gaussian 16 at Thu Dec 10 23:36:35 2020.

 --------------------------------------------------------------------
 #N Geom=AllCheck Guess=TCheck SCRF=Check GenChk RB3LYP/6-31G(d) Freq
 --------------------------------------------------------------------

 Structure from the checkpoint file:  "JID_6514.chk"
 ------------------------------
 CID_22893880_JID_6514_neutraal
 ------------------------------
 Charge =  0 Multiplicity = 1

 SCF Done:  E(RB3LYP) =  -709.700281077     A.U. after    1 cycles

  Exact polarizability: 163.199  10.887 179.877  12.669  -9.760  90.556
 Approx polarizability: 240.487  14.907 292.194  24.017 -29.547 139.646

                      1                      2                      3
                      A                      A                      A
 Frequencies --     24.7887                53.4348                56.6445
 Red. masses --      5.2880                 1.6213                 3.7102
 Frc consts  --      0.0019                 0.0027                 0.0070
 IR Inten    --      1.9172                 0.2209                 1.1127

                      4                      5                      6
                      A                      A                      A
 Frequencies --     66.9581               120.3549               128.5568
 Red. masses --      1.7877                 2.8826                 2.0116
 Frc consts  --      0.0047                 0.0246                 0.0196
 IR Inten    --      0.5704                 1.1512                 2.7469

                      7                      8                      9
                      A                      A                      A
 Frequencies --    137.7912               164.3313               206.0216
 Red. masses --      1.6032                 3.5283                 3.8791
 Frc consts  --      0.0179                 0.0561                 0.0970
 IR Inten    --      0.6296                 1.2670                 3.3143

                     10                     11                     12
                      A                      A                      A
 Frequencies --    211.5817               225.6649               245.1242
 Red. masses --      3.4174                 1.0817                 3.4136
 Frc consts  --      0.0901                 0.0325                 0.1208
 IR Inten    --      3.3578                 1.0870                 1.3869

                     13                     14                     15
                      A                      A                      A
 Frequencies --    288.2069               296.6831               337.6038
 Red. masses --      3.6551                 4.3734                 3.1254
 Frc consts  --      0.1789                 0.2268                 0.2099
 IR Inten    --      0.4201                 1.8265                10.4856

                     16                     17                     18
                      A                      A                      A
 Frequencies --    348.5927               414.3729               442.9792
 Red. masses --      1.7348                 2.4487                 3.1579
 Frc consts  --      0.1242                 0.2477                 0.3651
 IR Inten    --     52.6935                25.3545                 2.0619

                     19                     20                     21
                      A                      A                      A
 Frequencies --    477.3380               498.6791               523.8682
 Red. masses --      4.8995                 5.3441                 3.8927
 Frc consts  --      0.6577                 0.7830                 0.6294
 IR Inten    --     14.6905                 0.1419                 0.9025

                     22                     23                     24
                      A                      A                      A
 Frequencies --    584.4669               591.7061               649.0200
 Red. masses --      4.2327                 3.4954                 4.3103
 Frc consts  --      0.8519                 0.7210                 1.0697
 IR Inten    --      5.6086                14.6160                 1.7367

                     25                     26                     27
                      A                      A                      A
 Frequencies --    667.5522               686.5961               727.9088
 Red. masses --      4.6284                 4.5936                 3.9603
 Frc consts  --      1.2152                 1.2759                 1.2363
 IR Inten    --      3.9017                 0.2421                 3.0151

                     28                     29                     30
                      A                      A                      A
 Frequencies --    755.7588               773.9866               802.3902
 Red. masses --      1.3353                 4.4849                 4.8865
 Frc consts  --      0.4494                 1.5830                 1.8536
 IR Inten    --     52.3909                 2.3477                 5.9189

                     31                     32                     33
                      A                      A                      A
 Frequencies --    855.9654               859.0843               883.0561
 Red. masses --      2.8676                 1.8116                 4.1817
 Frc consts  --      1.2379                 0.7878                 1.9212
 IR Inten    --      9.7094                 0.8771                 0.0217

                     34                     35                     36
                      A                      A                      A
 Frequencies --    924.9707               932.3477               966.7667
 Red. masses --      1.3491                 2.6572                 1.2241
 Frc consts  --      0.6801                 1.3609                 0.6741
 IR Inten    --      1.8290                 1.6680                 0.7789

                     37                     38                     39
                      A                      A                      A
 Frequencies --    989.4126              1014.7050              1044.4852
 Red. masses --      2.2050                 1.6793                 2.3103
 Frc consts  --      1.2718                 1.0187                 1.4850
 IR Inten    --      4.1930                 5.4683                 3.6159

                     40                     41                     42
                      A                      A                      A
 Frequencies --   1059.3996              1073.0830              1097.3513
 Red. masses --      2.6249                 1.4809                 2.7688
 Frc consts  --      1.7357                 1.0047                 1.9644
 IR Inten    --     14.3464                 1.5326               107.9682

                     43                     44                     45
                      A                      A                      A
 Frequencies --   1121.7342              1140.5760              1167.7342
 Red. masses --      2.2741                 2.4415                 1.6018
 Frc consts  --      1.6859                 1.8714                 1.2869
 IR Inten    --     15.6627                 5.2160                13.0816

                     46                     47                     48
                      A                      A                      A
 Frequencies --   1186.7901              1194.1034              1220.0456
 Red. masses --      1.2776                 1.2157                 1.4722
 Frc consts  --      1.0602                 1.0213                 1.2911
 IR Inten    --      0.9729                 3.4720                 4.4440

                     49                     50                     51
                      A                      A                      A
 Frequencies --   1249.1214              1282.3336              1287.0676
 Red. masses --      1.5977                 2.3013                 4.4803
 Frc consts  --      1.4688                 2.2295                 4.3728
 IR Inten    --      2.7190                48.6884               203.1679

                     52                     53                     54
                      A                      A                      A
 Frequencies --   1334.4769              1340.1295              1349.4215
 Red. masses --      1.5200                 4.4540                 1.5580
 Frc consts  --      1.5949                 4.7129                 1.6715
 IR Inten    --     16.0353                46.2557                 7.5976

                     55                     56                     57
                      A                      A                      A
 Frequencies --   1384.0006              1403.8941              1439.2004
 Red. masses --      1.7513                 3.8592                 1.2308
 Frc consts  --      1.9764                 4.4814                 1.5020
 IR Inten    --      5.3020                10.2961                 5.3482

                     58                     59                     60
                      A                      A                      A
 Frequencies --   1450.2771              1472.8519              1491.4082
 Red. masses --      1.3537                 2.5903                 1.2178
 Frc consts  --      1.6775                 3.3106                 1.5960
 IR Inten    --      0.5515                34.3592                 7.0217

                     61                     62                     63
                      A                      A                      A
 Frequencies --   1501.4340              1508.2256              1512.5898
 Red. masses --      2.6716                 1.0461                 1.0487
 Frc consts  --      3.5484                 1.4020                 1.4137
 IR Inten    --     27.2083                 4.7842                 6.3504

                     64                     65                     66
                      A                      A                      A
 Frequencies --   1521.9993              1524.1537              1525.1701
 Red. masses --      1.1400                 1.0558                 1.0939
 Frc consts  --      1.5559                 1.4450                 1.4992
 IR Inten    --      1.1182                 4.3534                16.6091

                     67                     68                     69
                      A                      A                      A
 Frequencies --   1528.7499              1543.4092              1623.7906
 Red. masses --      1.0610                 2.7597                 5.7013
 Frc consts  --      1.4610                 3.8732                 8.8570
 IR Inten    --      5.1363                 3.5579                 9.1283

                     70                     71                     72
                      A                      A                      A
 Frequencies --   1640.3016              1682.5827              1824.2467
 Red. masses --      5.7829                 6.0614                11.2173
 Frc consts  --      9.1674                10.1105                21.9940
 IR Inten    --      7.6856                 7.3544               210.8050

                     73                     74                     75
                      A                      A                      A
 Frequencies --   3037.1721              3063.8494              3076.9438
 Red. masses --      1.0416                 1.0383                 1.0292
 Frc consts  --      5.6610                 5.7428                 5.7411
 IR Inten    --     49.7695                31.3616                33.3918

                     76                     77                     78
                      A                      A                      A
 Frequencies --   3082.5566              3091.7799              3127.5285
 Red. masses --      1.1011                 1.0833                 1.1030
 Frc consts  --      6.1647                 6.1014                 6.3565
 IR Inten    --     18.9000                13.4860                30.4486

                     79                     80                     81
                      A                      A                      A
 Frequencies --   3152.7244              3154.3145              3164.2061
 Red. masses --      1.1076                 1.0949                 1.0990
 Frc consts  --      6.4862                 6.4185                 6.4832
 IR Inten    --     20.9540                11.7476                18.8205

                     82                     83                     84
                      A                      A                      A
 Frequencies --   3181.0644              3182.1931              3190.2220
 Red. masses --      1.0856                 1.1073                 1.0902
 Frc consts  --      6.4725                 6.6064                 6.5370
 IR Inten    --      0.4604                14.6091                23.3083

                     85                     86                     87
                      A                      A                      A
 Frequencies --   3205.8816              3231.3339              3662.9084
 Red. masses --      1.0954                 1.0923                 1.0796
 Frc consts  --      6.6331                 6.7196                 8.5343
 IR Inten    --     34.7823                 8.2743                53.1707

 - Thermochemistry -
 -------------------
 Temperature   298.150 Kelvin.  Pressure   1.00000 Atm.
 Atom     1 has atomic number  6 and mass  12.00000

 Molecular mass:   217.11028 amu.
 Principal axes and moments of inertia in atomic units:
                           1         2         3
     Eigenvalues --  2538.460943946.695125460.51766
           X            0.99975  -0.01998   0.01002
           Y            0.01990   0.99978   0.00707
           Z           -0.01016  -0.00687   0.99992
 This molecule is an asymmetric top.
 Rotational symmetry number  1.
 Warning -- assumption of classical behavior for rotation
           may cause significant error
 Rotational temperatures (Kelvin)      0.03412     0.02195     0.01586
 Rotational constants (GHZ):           0.71096     0.45728     0.33051
 Zero-point vibrational energy     677481.7 (Joules/Mol)
                                  161.92200 (Kcal/Mol)
 Warning -- explicit consideration of  23 degrees of freedom as
           vibrations may cause significant error
 Vibrational temperatures:     35.67    76.88    81.50    96.34   173.16
          (Kelvin)            184.96   198.25   236.44   296.42   304.42
                              324.68   352.68   414.67   426.86   485.74
                              501.55   596.19   637.35   686.78   717.49
                              753.73   840.92   851.33   933.79   960.46
                              987.86  1047.30  1087.37  1113.59  1154.46
                             1231.54  1236.03  1270.52  1330.83  1341.44
                             1390.96  1423.54  1459.93  1502.78  1524.24
                             1543.93  1578.84  1613.93  1641.03  1680.11
                             1707.53  1718.05  1755.37  1797.21  1844.99
                             1851.80  1920.01  1928.15  1941.52  1991.27
                             2019.89  2070.69  2086.63  2119.11  2145.80
                             2160.23  2170.00  2176.28  2189.82  2192.92
                             2194.38  2199.53  2220.62  2336.27  2360.03
                             2420.86  2624.68  4369.81  4408.20  4427.04
                             4435.11  4448.38  4499.82  4536.07  4538.35
                             4552.59  4576.84  4578.47  4590.02  4612.55
                             4649.17  5270.11

 Zero-point correction=                           0.258039 (Hartree/Particle)
 Thermal correction to Energy=                    0.273659
 Thermal correction to Enthalpy=                  0.274603
 Thermal correction to Gibbs Free Energy=         0.214167
 Sum of electronic and zero-point Energies=           -709.442242
 Sum of electronic and thermal Energies=              -709.426622
 Sum of electronic and thermal Enthalpies=            -709.425678
 Sum of electronic and thermal Free Energies=         -709.486114

                     E (Thermal)             CV                S
                      KCal/Mol        Cal/Mol-Kelvin    Cal/Mol-Kelvin
 Total                  171.724             57.974            127.200
 Electronic               0.000              0.000              0.000
 Translational            0.889              2.981             42.029
 Rotational               0.889              2.981             32.370
 Vibrational            169.946             52.013             52.801
 Vibration     1          0.593              1.985              6.208
 Vibration     2          0.596              1.976              4.686
 Vibration     3          0.596              1.975              4.571
 Vibration     4          0.598              1.970              4.241
 Vibration     5          0.609              1.932              3.095
 Vibration     6          0.611              1.925              2.968
 Vibration     7          0.614              1.916              2.834
 Vibration     8          0.623              1.886              2.499
 Vibration     9          0.641              1.831              2.079
 Vibration    10          0.643              1.823              2.030
 Vibration    11          0.650              1.802              1.913
 Vibration    12          0.660              1.771              1.765
 Vibration    13          0.685              1.696              1.484
 Vibration    14          0.690              1.680              1.436
 Vibration    15          0.718              1.600              1.223
 Vibration    16          0.726              1.578              1.173
 Vibration    17          0.778              1.439              0.911
 Vibration    18          0.803              1.376              0.817
 Vibration    19          0.834              1.300              0.717
 Vibration    20          0.854              1.253              0.661
 Vibration    21          0.879              1.197              0.601
 Vibration    22          0.941              1.065              0.477
 Vibration    23          0.949              1.049              0.464

                           ! Non-Optimized Parameters !
 Normal termination of Gaussian 16 at Thu Dec 10 23:47:21 2020.

 ----------------------------------------------------------------------
 # B3LYP/6-311++G(d,p) empiricaldispersion=gd3bj scf=xqc pop=npa geom=c
 heck
 ----------------------------------------------------------------------

 --------------------------------------
 CID_22893880_JID_6514_Energie_neutraal
 --------------------------------------
 Structure from the checkpoint file:  "JID_6514.chk"
 Charge =  0 Multiplicity = 1

 SCF Done:  E(RB3LYP) =  -709.895507143     A.U. after   15 cycles
 Normal termination of Gaussian 16 at Thu Dec 10 23:51:35 2020.

 ----------------------------------------------------------------------
 # B3LYP/6-311++G(d,p) empiricaldispersion=gd3bj scf=xqc pop=npa geom=c
 heck
 ----------------------------------------------------------------------

 ------------------------------------
 CID_22893880_JID_6514_Energie_kation
 ------------------------------------
 Structure from the checkpoint file:  "JID_6514.chk"
 Charge =  1 Multiplicity = 2

 SCF Done:  E(UB3LYP) =  -709.626254869     A.U. after   24 cycles
 Normal termination of Gaussian 16 at Fri Dec 11 00:00:42 2020.
 Gaussian 16:  ES64L-G16RevA.03 25-Dec-2016

 ----------------------------------------------------------------------
 # B3LYP/6-311++G(d,p) empiricaldispersion=gd3bj scf=xqc pop=npa geom=c
 heck
 ----------------------------------------------------------------------

 -----------------------------------
 CID_22893880_JID_6514_Energie_anion
 -----------------------------------
 Structure from the checkpoint file:  "JID_6514.chk"
 Charge = -1 Multiplicity = 2

                         Standard orientation:
 ---------------------------------------------------------------------
 Center     Atomic      Atomic             Coordinates (Angstroms)
 Number     Number       Type             X           Y           Z
 ---------------------------------------------------------------------
      1          6           0       -0.276382    3.402569   -0.280019
      2          6           0       -0.701744    1.979589   -0.128584
      3          6           0       -0.008416    0.861871    0.285804
      4          6           0       -0.923390   -0.257406    0.214464
      5          6           0       -0.822918   -1.635416    0.475544
      6          6           0       -1.939989   -2.442212    0.294435
      7          6           0       -3.164980   -1.907071   -0.147815
      8          6           0       -3.295060   -0.550441   -0.423495
      9          6           0       -2.170076    0.256040   -0.239825
     10          7           0       -2.002643    1.611368   -0.437262
     11          6           0        1.432952    0.834645    0.733764
     12          6           0        1.601613    0.326218    2.175236
     13          6           0        2.260088    0.064846   -0.291983
     14          8           0        2.764689    0.558173   -1.276727
     15          8           0        2.341727   -1.253740   -0.000569
     16          6           0        3.020693   -2.054391   -0.979873
     17          1           0       -0.379057    3.741304   -1.319070
     18          1           0       -0.877851    4.073118    0.347888
     19          1           0        0.770571    3.530008    0.001754
     20          1           0        0.119723   -2.064706    0.794316
     21          1           0       -1.867560   -3.507610    0.494275
     22          1           0       -4.020456   -2.563207   -0.280203
     23          1           0       -4.236459   -0.133393   -0.771207
     24          1           0       -2.714322    2.244392   -0.767330
     25          1           0        1.825055    1.854006    0.674735
     26          1           0        1.197977   -0.680509    2.296135
     27          1           0        2.657745    0.308106    2.465166
     28          1           0        1.064226    0.991563    2.858163
     29          1           0        2.506328   -1.993872   -1.942344
     30          1           0        4.051520   -1.713700   -1.105274
     31          1           0        2.995384   -3.073579   -0.593714
 ---------------------------------------------------------------------

 SCF Done:  E(UB3LYP) =  -709.883763904     A.U. after   33 cycles
 SCF Done:  E(UB3LYP) =  -709.883763904     a.u. after    1 cycles

 The electronic state is 2-A.
 Alpha  occ. eigenvalues --  -19.08099 -19.02003 -14.25069 -10.20834 -10.13758
 Alpha  occ. eigenvalues --  -10.11478 -10.10694 -10.10178 -10.07660 -10.07604
 Alpha  occ. eigenvalues --  -10.07449 -10.07428 -10.07278 -10.07262 -10.07234
 Alpha  occ. eigenvalues --  -10.07046  -1.01954  -0.93039  -0.88126  -0.74659
 Alpha  occ. eigenvalues --   -0.72816  -0.67384  -0.66110  -0.63894  -0.63061
 Alpha  occ. eigenvalues --   -0.59289  -0.56017  -0.51545  -0.49475  -0.48513
 Alpha  occ. eigenvalues --   -0.46349  -0.43831  -0.41031  -0.39856  -0.38794
 Alpha  occ. eigenvalues --   -0.38524  -0.36611  -0.36187  -0.34699  -0.33527
 Alpha  occ. eigenvalues --   -0.33298  -0.32666  -0.31590  -0.30589  -0.29990
 Alpha  occ. eigenvalues --   -0.29700  -0.29152  -0.27716  -0.27404  -0.26622
 Alpha  occ. eigenvalues --   -0.25694  -0.23669  -0.23393  -0.22098  -0.19426
 Alpha  occ. eigenvalues --   -0.17588  -0.12753  -0.10868   0.04173
 Alpha virt. eigenvalues --    0.05596   0.06764   0.07290   0.07369   0.08091
 Alpha virt. eigenvalues --    0.08586   0.09261   0.09629   0.10149   0.10310
 Alpha virt. eigenvalues --    0.10629   0.10909   0.11391   0.11738   0.12189

  Beta  occ. eigenvalues --  -19.08094 -19.01999 -14.25019 -10.20834 -10.13734
  Beta  occ. eigenvalues --  -10.11477 -10.10695 -10.10170 -10.07643 -10.07555
  Beta  occ. eigenvalues --  -10.07445 -10.07425 -10.07263 -10.07259 -10.07232
  Beta  occ. eigenvalues --  -10.07043  -1.01948  -0.93032  -0.88082  -0.74639
  Beta  occ. eigenvalues --   -0.72797  -0.67353  -0.66075  -0.63864  -0.63020
  Beta  occ. eigenvalues --   -0.59248  -0.55978  -0.51496  -0.49452  -0.48466
  Beta  occ. eigenvalues --   -0.46324  -0.43785  -0.41012  -0.39834  -0.38768
  Beta  occ. eigenvalues --   -0.38497  -0.36581  -0.36152  -0.34665  -0.33497
  Beta  occ. eigenvalues --   -0.33271  -0.32649  -0.31562  -0.30552  -0.29957
  Beta  occ. eigenvalues --   -0.29675  -0.29120  -0.27696  -0.27384  -0.26600
  Beta  occ. eigenvalues --   -0.25675  -0.23649  -0.23375  -0.22089  -0.19417
  Beta  occ. eigenvalues --   -0.17580  -0.12738  -0.10855
  Beta virt. eigenvalues --    0.06029   0.07001   0.07136   0.07392   0.07789
  Beta virt. eigenvalues --    0.08598   0.09142   0.09386   0.10039   0.10379
  Beta virt. eigenvalues --    0.10723   0.10819   0.11165   0.11600   0.12040

 Mulliken charges and spin densities:
               1          2
     1  C    3.369908  -3.810026
     2  C   -1.198161   1.135199
     3  C    2.529803  -1.748026
     4  C    1.484383  -0.566661
     5  C   -0.883432   0.467907
     6  C   -0.882268   0.294563
     7  C    1.124757  -1.193290
     8  C   -2.173826   1.416206
     9  C   -0.203306  -0.075132
    10  N   -0.332569   0.295134
    11  C   -1.513214   1.576300
    12  C    0.100406  -0.880585
    13  C   -0.369904  -0.056775
    14  O   -0.251306   0.017151
    15  O   -0.035471   0.023176
    16  C    0.392170  -0.641928
    17  H   -0.208797   0.378781
    18  H   -0.525310   0.702862
    19  H   -0.127586   0.260818
    20  H    0.203809  -0.076945
    21  H   -0.115450   0.262175
    22  H    0.161079  -0.018703
    23  H   -0.708699   0.864678
    24  H   -0.534975   0.875434
    25  H   -0.063309   0.284764
    26  H    0.055822   0.111883
    27  H   -0.107194   0.254710
    28  H    0.048104   0.104820
    29  H    0.059862   0.132707
    30  H   -0.059646   0.223568
    31  H   -0.235679   0.385234
 Sum of Mulliken charges =  -1.00000   1.00000

 Dipole moment (field-independent basis, Debye):
    X=              3.5541    Y=             -5.5502    Z=              1.7004  Tot=              6.8064
 Quadrupole moment (field-independent basis, Debye-Ang):
   XX=           -160.7652   YY=           -156.0690   ZZ=           -127.3747
   XY=             15.8843   XZ=             -2.5385   YZ=              4.1637

 Summary of Natural Population Analysis:

                                       Natural Population
                Natural  -----------------------------------------------
    Atom  No    Charge         Core      Valence    Rydberg      Total
 -----------------------------------------------------------------------
      C    1   -0.30075      0.99963     2.29525    0.00588     3.30075
      C    2    0.10564      0.99947     1.88297    0.01192     2.89436
      C    3   -0.05905      0.99940     2.04736    0.01230     3.05905
      C    4   -0.04135      0.99946     2.03188    0.01001     3.04135
      C    5   -0.09903      0.99953     2.09158    0.00792     3.09903
      C    6   -0.11805      0.99957     2.10867    0.00981     3.11805
      C    7   -0.11061      0.99958     2.10143    0.00961     3.11061
      C    8   -0.11485      0.99952     2.10560    0.00973     3.11485
      C    9    0.08210      0.99948     1.90608    0.01234     2.91790
      N   10   -0.27067      0.99963     2.76027    0.01077     3.77067
      C   11   -0.15436      0.99952     2.14298    0.01186     3.15436
      C   12   -0.27857      0.99965     2.27404    0.00489     3.27857
      C   13    0.42064      0.99966     1.55469    0.02501     2.57936
      O   14   -0.30610      0.99987     3.30023    0.00601     4.30610
      O   15   -0.28211      0.99986     3.27328    0.00897     4.28211
      C   16   -0.10405      0.99959     2.09599    0.00847     3.10405
      H   17    0.10980      0.00000     0.38884    0.00136     0.39020
      H   18    0.11047      0.00000     0.38729    0.00224     0.38953
      H   19    0.10755      0.00000     0.39117    0.00128     0.39245
      H   20    0.10543      0.00000     0.39282    0.00174     0.39457
      H   21    0.09711      0.00000     0.40209    0.00080     0.40289
      H   22    0.09727      0.00000     0.40199    0.00074     0.40273
      H   23    0.10530      0.00000     0.39337    0.00133     0.39470
      H   24    0.20751      0.00000     0.27580    0.01669     0.29249
      H   25    0.11320      0.00000     0.38480    0.00200     0.38680
      H   26    0.10353      0.00000     0.39498    0.00149     0.39647
      H   27    0.09749      0.00000     0.40138    0.00113     0.40251
      H   28    0.10214      0.00000     0.39678    0.00108     0.39786
      H   29    0.09256      0.00000     0.40607    0.00137     0.40744
      H   30    0.09061      0.00000     0.40781    0.00158     0.40939
      H   31    0.09123      0.00000     0.40732    0.00144     0.40877
 =======================================================================
   * Total *   -0.00000     15.99342    41.80481    0.20177    58.00000

 Normal termination of Gaussian 16 at Fri Dec 11 00:12:55 2020.
