 Gaussian 16, Revision A.03,

 -----------------------------------------------------------
 # opt freq B3LYP/6-31G(d) empiricaldispersion=gd3bj scf=xqc
 -----------------------------------------------------------

 -------------------------------
 CID_104600547_JID_7928_neutraal
 -------------------------------
 Symbolic Z-matrix:
 Charge =  0 Multiplicity = 1

 SCF Done:  E(RB3LYP) =  -1258.65177591     A.U. after   15 cycles
 SCF Done:  E(RB3LYP) =  -1258.64608774     A.U. after   14 cycles
 SCF Done:  E(RB3LYP) =  -1258.65867486     A.U. after   13 cycles
 SCF Done:  E(RB3LYP) =  -1258.64965965     A.U. after   14 cycles
 SCF Done:  E(RB3LYP) =  -1258.65687240     A.U. after   12 cycles
 SCF Done:  E(RB3LYP) =  -1258.65905899     A.U. after   10 cycles
 SCF Done:  E(RB3LYP) =  -1258.66139841     A.U. after   12 cycles
 SCF Done:  E(RB3LYP) =  -1258.66238544     A.U. after   12 cycles
 SCF Done:  E(RB3LYP) =  -1258.66162614     A.U. after   12 cycles
 SCF Done:  E(RB3LYP) =  -1258.66347622     A.U. after   12 cycles
 SCF Done:  E(RB3LYP) =  -1258.66715416     A.U. after    8 cycles
 SCF Done:  E(RB3LYP) =  -1258.66715458     A.U. after    8 cycles
 SCF Done:  E(RB3LYP) =  -1258.66715465     A.U. after    7 cycles
 SCF Done:  E(RB3LYP) =  -1258.66715463     A.U. after    6 cycles
 SCF Done:  E(RB3LYP) =  -1258.66715462     A.U. after    6 cycles
 Optimization completed.
    -- Stationary point found.
 Normal termination of Gaussian 16 at Fri Dec 11 13:30:48 2020.

 --------------------------------------------------------------------
 #N Geom=AllCheck Guess=TCheck SCRF=Check GenChk RB3LYP/6-31G(d) Freq
 --------------------------------------------------------------------

 Structure from the checkpoint file:  "JID_7928.chk"
 -------------------------------
 CID_104600547_JID_7928_neutraal
 -------------------------------
 Charge =  0 Multiplicity = 1

 SCF Done:  E(RB3LYP) =  -1258.66715462     A.U. after    1 cycles

  Exact polarizability: 164.974   5.519 126.349  -5.549   0.974 115.654
 Approx polarizability: 198.705   8.443 186.399 -11.451   7.972 191.738

                      1                      2                      3
                      A                      A                      A
 Frequencies --     16.4244                22.3298                36.5700
 Red. masses --      4.7515                 4.2133                 5.6819
 Frc consts  --      0.0008                 0.0012                 0.0045
 IR Inten    --      0.3569                 0.9025                 1.2387

                      4                      5                      6
                      A                      A                      A
 Frequencies --     52.4143                70.4471                83.1768
 Red. masses --      4.0857                 3.2523                 4.3688
 Frc consts  --      0.0066                 0.0095                 0.0178
 IR Inten    --      2.4214                 1.8781                 7.9588

                      7                      8                      9
                      A                      A                      A
 Frequencies --    100.9382               123.3886               146.0995
 Red. masses --      3.7315                 3.8677                 4.5862
 Frc consts  --      0.0224                 0.0347                 0.0577
 IR Inten    --      2.1652                 3.2919                 2.9595

                     10                     11                     12
                      A                      A                      A
 Frequencies --    159.9965               177.1216               187.5309
 Red. masses --      4.9831                 5.1052                 3.6904
 Frc consts  --      0.0752                 0.0944                 0.0765
 IR Inten    --      9.2810                 2.0680                 0.6788

                     13                     14                     15
                      A                      A                      A
 Frequencies --    199.7071               221.4104               262.4782
 Red. masses --      2.3217                 1.8938                 3.9358
 Frc consts  --      0.0546                 0.0547                 0.1598
 IR Inten    --      3.1406                14.8906                 7.7165

                     16                     17                     18
                      A                      A                      A
 Frequencies --    270.1896               288.5478               303.6354
 Red. masses --      2.8934                 4.9157                 2.6685
 Frc consts  --      0.1245                 0.2411                 0.1450
 IR Inten    --     11.4045                 0.6400                13.1146

                     19                     20                     21
                      A                      A                      A
 Frequencies --    323.5630               364.9725               377.7875
 Red. masses --      2.4685                 2.7526                 3.3255
 Frc consts  --      0.1523                 0.2160                 0.2796
 IR Inten    --      3.7792                23.2695                 1.3613

                     22                     23                     24
                      A                      A                      A
 Frequencies --    395.7644               433.7914               459.2460
 Red. masses --      2.9867                 3.7600                 2.7907
 Frc consts  --      0.2756                 0.4169                 0.3468
 IR Inten    --      1.0255                12.0139                 8.4807

                     25                     26                     27
                      A                      A                      A
 Frequencies --    472.9006               496.4456               501.4889
 Red. masses --      3.0973                 2.5003                 3.8484
 Frc consts  --      0.4081                 0.3631                 0.5702
 IR Inten    --     52.2397                53.6275                63.0680

                     28                     29                     30
                      A                      A                      A
 Frequencies --    549.8523               587.9328               642.1333
 Red. masses --      1.4630                 2.6866                 4.5584
 Frc consts  --      0.2606                 0.5472                 1.1074
 IR Inten    --    103.4474                24.1315                15.8047

                     31                     32                     33
                      A                      A                      A
 Frequencies --    686.1380               732.4579               756.0714
 Red. masses --      3.3462                 3.2018                 1.8470
 Frc consts  --      0.9282                 1.0121                 0.6221
 IR Inten    --     24.3165                71.7848                 9.5531

                     34                     35                     36
                      A                      A                      A
 Frequencies --    794.1164               810.5882               826.6473
 Red. masses --      1.8967                 1.9757                 2.1192
 Frc consts  --      0.7047                 0.7648                 0.8532
 IR Inten    --     27.9212                17.6781                26.9983

                     37                     38                     39
                      A                      A                      A
 Frequencies --    847.7100               864.6260               916.9027
 Red. masses --      2.7897                 2.5638                 1.7873
 Frc consts  --      1.1812                 1.1292                 0.8853
 IR Inten    --      1.6933                 5.8882               156.9556

                     40                     41                     42
                      A                      A                      A
 Frequencies --    934.0832               946.1683               956.5261
 Red. masses --      2.1502                 2.6894                 2.1206
 Frc consts  --      1.1053                 1.4186                 1.1431
 IR Inten    --     20.0103                 2.1637                32.6473

                     43                     44                     45
                      A                      A                      A
 Frequencies --    978.7709              1019.4017              1051.5766
 Red. masses --      1.9821                 2.2210                 3.4291
 Frc consts  --      1.1187                 1.3598                 2.2342
 IR Inten    --     17.0376                23.1019                26.6059

                     46                     47                     48
                      A                      A                      A
 Frequencies --   1059.0317              1072.1428              1089.1158
 Red. masses --      2.0828                 2.3393                 4.2095
 Frc consts  --      1.3763                 1.5843                 2.9419
 IR Inten    --    109.0972                12.4560               140.9570

                     49                     50                     51
                      A                      A                      A
 Frequencies --   1097.4506              1120.9068              1129.6039
 Red. masses --      3.0786                 2.5808                 3.1269
 Frc consts  --      2.1846                 1.9105                 2.3508
 IR Inten    --     69.3072                23.6538               124.3722

                     52                     53                     54
                      A                      A                      A
 Frequencies --   1133.3900              1157.2877              1171.5644
 Red. masses --      1.9629                 1.6444                 3.5434
 Frc consts  --      1.4856                 1.2976                 2.8655
 IR Inten    --     19.3347                18.6820                97.9216

                     55                     56                     57
                      A                      A                      A
 Frequencies --   1209.8774              1216.8347              1251.4998
 Red. masses --      1.7035                 1.1738                 1.7428
 Frc consts  --      1.4692                 1.0240                 1.6082
 IR Inten    --      3.1070                78.0628               137.3589

                     58                     59                     60
                      A                      A                      A
 Frequencies --   1261.4486              1288.1562              1306.4068
 Red. masses --      1.2881                 1.7969                 1.9283
 Frc consts  --      1.2076                 1.7568                 1.9391
 IR Inten    --      1.4651                44.1011                34.2599

                     61                     62                     63
                      A                      A                      A
 Frequencies --   1323.9121              1335.5255              1342.2929
 Red. masses --      1.6853                 1.4052                 1.2744
 Frc consts  --      1.7404                 1.4767                 1.3529
 IR Inten    --    338.3381                12.5102                83.9677

                     64                     65                     66
                      A                      A                      A
 Frequencies --   1363.7255              1391.0511              1397.1243
 Red. masses --      1.1001                 1.1611                 1.2397
 Frc consts  --      1.2054                 1.3237                 1.4257
 IR Inten    --      7.4781                 9.2462                14.5020

                     67                     68                     69
                      A                      A                      A
 Frequencies --   1411.9451              1414.7639              1419.3664
 Red. masses --      1.2855                 1.3517                 1.3046
 Frc consts  --      1.5099                 1.5941                 1.5485
 IR Inten    --      4.8099                 3.8004                 9.1193

                     70                     71                     72
                      A                      A                      A
 Frequencies --   1431.7123              1446.1188              1448.9869
 Red. masses --      1.3223                 1.2947                 1.2837
 Frc consts  --      1.5969                 1.5952                 1.5880
 IR Inten    --     32.5578                11.9151                 3.7265

                     73                     74                     75
                      A                      A                      A
 Frequencies --   1470.5367              1501.4991              1512.9471
 Red. masses --      1.1453                 1.0840                 1.0842
 Frc consts  --      1.4592                 1.4399                 1.4621
 IR Inten    --     23.3544                 3.8016                 0.9438

                     76                     77                     78
                      A                      A                      A
 Frequencies --   1514.1738              1517.1209              1519.8840
 Red. masses --      1.0457                 1.0858                 1.0748
 Frc consts  --      1.4126                 1.4724                 1.4629
 IR Inten    --      6.9135                 3.5214                 2.4404

                     79                     80                     81
                      A                      A                      A
 Frequencies --   1524.6106              1532.3213              1532.8001
 Red. masses --      1.0844                 1.0771                 1.0875
 Frc consts  --      1.4851                 1.4900                 1.5054
 IR Inten    --     10.1192                12.8491                 4.2177

                     82                     83                     84
                      A                      A                      A
 Frequencies --   1570.5730              1823.7831              3007.5610
 Red. masses --      1.1534                10.9645                 1.0690
 Frc consts  --      1.6763                21.4875                 5.6974
 IR Inten    --     21.9733               182.7164                46.1835

                     85                     86                     87
                      A                      A                      A
 Frequencies --   3048.0779              3060.5836              3061.9082
 Red. masses --      1.0586                 1.0639                 1.0599
 Frc consts  --      5.7947                 5.8719                 5.8549
 IR Inten    --     46.3573                14.4896                26.0141

                     88                     89                     90
                      A                      A                      A
 Frequencies --   3066.7448              3087.2819              3092.3804
 Red. masses --      1.0369                 1.0659                 1.0968
 Frc consts  --      5.7456                 5.9858                 6.1794
 IR Inten    --     13.0641                14.6391                43.6136

                     91                     92                     93
                      A                      A                      A
 Frequencies --   3099.0623              3100.0395              3104.9526
 Red. masses --      1.1043                 1.0589                 1.1038
 Frc consts  --      6.2488                 5.9954                 6.2699
 IR Inten    --     59.3306                27.9758                36.3754

                     94                     95                     96
                      A                      A                      A
 Frequencies --   3114.0378              3124.0429              3137.9186
 Red. masses --      1.0980                 1.0570                 1.1008
 Frc consts  --      6.2731                 6.0779                 6.3863
 IR Inten    --     20.4701                 0.5870                40.2366

                     97                     98                     99
                      A                      A                      A
 Frequencies --   3138.1614              3144.3713              3165.6303
 Red. masses --      1.1038                 1.1055                 1.1079
 Frc consts  --      6.4047                 6.4399                 6.5413
 IR Inten    --      7.8216                 2.8365                26.6166

                    100                    101                    102
                      A                      A                      A
 Frequencies --   3195.5083              3330.4120              3694.0204
 Red. masses --      1.1106                 1.0788                 1.0680
 Frc consts  --      6.6819                 7.0501                 8.5864
 IR Inten    --      0.1059               493.8314               151.4844

 - Thermochemistry -
 -------------------
 Temperature   298.150 Kelvin.  Pressure   1.00000 Atm.
 Atom     1 has atomic number  6 and mass  12.00000

 Molecular mass:   269.09331 amu.
 Principal axes and moments of inertia in atomic units:
                           1         2         3
     Eigenvalues --  2071.354068029.918448764.28227
           X            0.99992   0.01152  -0.00463
           Y           -0.01159   0.99982  -0.01488
           Z            0.00446   0.01493   0.99988
 This molecule is an asymmetric top.
 Rotational symmetry number  1.
 Warning -- assumption of classical behavior for rotation
           may cause significant error
 Rotational temperatures (Kelvin)      0.04182     0.01079     0.00988
 Rotational constants (GHZ):           0.87129     0.22475     0.20592
 Zero-point vibrational energy     792730.9 (Joules/Mol)
                                  189.46723 (Kcal/Mol)
 Warning -- explicit consideration of  29 degrees of freedom as
           vibrations may cause significant error
 Vibrational temperatures:     23.63    32.13    52.62    75.41   101.36
          (Kelvin)            119.67   145.23   177.53   210.20   230.20
                              254.84   269.82   287.33   318.56   377.65
                              388.74   415.16   436.86   465.53   525.11
                              543.55   569.42   624.13   660.75   680.40
                              714.27   721.53   791.11   845.90   923.89
                              987.20  1053.84  1087.82  1142.56  1166.26
                             1189.36  1219.67  1244.00  1319.22  1343.94
                             1361.33  1376.23  1408.23  1466.69  1512.98
                             1523.71  1542.57  1566.99  1578.99  1612.73
                             1625.25  1630.70  1665.08  1685.62  1740.74
                             1750.75  1800.63  1814.94  1853.37  1879.63
                             1904.81  1921.52  1931.26  1962.10  2001.41
                             2010.15  2031.47  2035.53  2042.15  2059.91
                             2080.64  2084.77  2115.77  2160.32  2176.79
                             2178.56  2182.80  2186.77  2193.57  2204.67
                             2205.36  2259.70  2624.02  4327.21  4385.50
                             4403.50  4405.40  4412.36  4441.91  4449.25
                             4458.86  4460.27  4467.33  4480.41  4494.80
                             4514.77  4515.11  4524.05  4554.64  4597.62
                             4791.72  5314.87

 Zero-point correction=                           0.301935 (Hartree/Particle)
 Thermal correction to Energy=                    0.321063
 Thermal correction to Enthalpy=                  0.322008
 Thermal correction to Gibbs Free Energy=         0.252066
 Sum of electronic and zero-point Energies=          -1258.365219
 Sum of electronic and thermal Energies=             -1258.346091
 Sum of electronic and thermal Enthalpies=           -1258.345147
 Sum of electronic and thermal Free Energies=        -1258.415088

                     E (Thermal)             CV                S
                      KCal/Mol        Cal/Mol-Kelvin    Cal/Mol-Kelvin
 Total                  201.470             69.317            147.204
 Electronic               0.000              0.000              0.000
 Translational            0.889              2.981             42.669
 Rotational               0.889              2.981             33.344
 Vibrational            199.693             63.356             71.191
 Vibration     1          0.593              1.986              7.025
 Vibration     2          0.593              1.985              6.415
 Vibration     3          0.594              1.982              5.437
 Vibration     4          0.596              1.977              4.724
 Vibration     5          0.598              1.968              4.141
 Vibration     6          0.600              1.961              3.814
 Vibration     7          0.604              1.948              3.436
 Vibration     8          0.610              1.930              3.047
 Vibration     9          0.617              1.907              2.722
 Vibration    10          0.622              1.891              2.550
 Vibration    11          0.628              1.871              2.359
 Vibration    12          0.632              1.857              2.252
 Vibration    13          0.638              1.840              2.136
 Vibration    14          0.648              1.808              1.948
 Vibration    15          0.670              1.742              1.645
 Vibration    16          0.674              1.728              1.595
 Vibration    17          0.685              1.695              1.482
 Vibration    18          0.695              1.667              1.397
 Vibration    19          0.708              1.628              1.292
 Vibration    20          0.738              1.544              1.101
 Vibration    21          0.748              1.517              1.048
 Vibration    22          0.762              1.479              0.978
 Vibration    23          0.795              1.397              0.846
 Vibration    24          0.817              1.340              0.768
 Vibration    25          0.830              1.310              0.729
 Vibration    26          0.852              1.258              0.667
 Vibration    27          0.857              1.247              0.654
 Vibration    28          0.905              1.140              0.544
 Vibration    29          0.945              1.058              0.471

 Optimization completed.
    -- Stationary point found.
 Normal termination of Gaussian 16 at Fri Dec 11 13:43:15 2020.

 ----------------------------------------------------------------------
 # B3LYP/6-311++G(d,p) empiricaldispersion=gd3bj scf=xqc pop=npa geom=c
 heck
 ----------------------------------------------------------------------

 ---------------------------------------
 CID_104600547_JID_7928_Energie_neutraal
 ---------------------------------------
 Structure from the checkpoint file:  "JID_7928.chk"
 Charge =  0 Multiplicity = 1

 SCF Done:  E(RB3LYP) =  -1258.96272582     A.U. after   15 cycles
 Normal termination of Gaussian 16 at Fri Dec 11 13:49:50 2020.

 ----------------------------------------------------------------------
 # B3LYP/6-311++G(d,p) empiricaldispersion=gd3bj scf=xqc pop=npa geom=c
 heck
 ----------------------------------------------------------------------

 -------------------------------------
 CID_104600547_JID_7928_Energie_kation
 -------------------------------------
 Structure from the checkpoint file:  "JID_7928.chk"
 Charge =  1 Multiplicity = 2

 SCF Done:  E(UB3LYP) =  -1258.62931015     A.U. after   29 cycles
 Normal termination of Gaussian 16 at Fri Dec 11 14:07:48 2020.
 Gaussian 16:  ES64L-G16RevA.03 25-Dec-2016

 ----------------------------------------------------------------------
 # B3LYP/6-311++G(d,p) empiricaldispersion=gd3bj scf=xqc pop=npa geom=c
 heck
 ----------------------------------------------------------------------

 ------------------------------------
 CID_104600547_JID_7928_Energie_anion
 ------------------------------------
 Structure from the checkpoint file:  "JID_7928.chk"
 Charge = -1 Multiplicity = 2

                         Standard orientation:
 ---------------------------------------------------------------------
 Center     Atomic      Atomic             Coordinates (Angstroms)
 Number     Number       Type             X           Y           Z
 ---------------------------------------------------------------------
      1          6           0        4.272860    1.718570   -0.335825
      2          6           0        4.725562    0.377097    0.216227
      3          8           0        3.754359   -0.652498   -0.103282
      4          6           0        2.683627   -0.723976    0.701275
      5          8           0        2.524706   -0.087739    1.719568
      6          6           0        1.658600   -1.680642    0.125636
      7         16           0        0.319431   -0.709126   -0.640038
      8          8           0        0.954045    0.399415   -1.360675
      9          8           0       -0.535597   -1.683574   -1.347944
     10          7           0       -0.528285   -0.129063    0.655497
     11          6           0       -0.701293    1.318344    0.852582
     12          6           0       -1.438160    2.063445   -0.274812
     13          6           0       -2.667879    1.376595   -0.875465
     14          8           0       -3.836881    1.400910   -0.062275
     15          6           0       -4.024304    0.372308    0.892724
     16          6           0       -4.106275   -1.057832    0.344429
     17          8           0       -2.846064   -1.737787    0.334863
     18          1           0        4.087023    1.649128   -1.411403
     19          1           0        5.047035    2.473424   -0.158650
     20          1           0        3.351517    2.043584    0.154059
     21          1           0        5.646805    0.030636   -0.256227
     22          1           0        4.859209    0.409215    1.299982
     23          1           0        2.077490   -2.300390   -0.668315
     24          1           0        1.202497   -2.290732    0.906118
     25          1           0       -1.374654   -0.698474    0.788008
     26          1           0       -1.240943    1.406458    1.800094
     27          1           0        0.286402    1.757848    1.010662
     28          1           0       -1.735345    3.052068    0.096007
     29          1           0       -0.731880    2.220378   -1.096493
     30          1           0       -2.949852    1.922840   -1.781117
     31          1           0       -2.422808    0.354418   -1.188891
     32          1           0       -3.261775    0.395570    1.687533
     33          1           0       -4.983870    0.616987    1.361151
     34          1           0       -4.762317   -1.638600    1.003714
     35          1           0       -4.562318   -1.042361   -0.652862
     36          1           0       -2.478083   -1.805808   -0.563886
 ---------------------------------------------------------------------

 SCF Done:  E(UB3LYP) =  -1258.95157480     A.U. after   33 cycles
 SCF Done:  E(UB3LYP) =  -1258.95157480     a.u. after    1 cycles

 The electronic state is 2-A.
 Alpha  occ. eigenvalues --  -88.97219 -19.06901 -19.04406 -19.03753 -19.03119
 Alpha  occ. eigenvalues --  -19.02869 -19.00760 -14.24391 -10.19783 -10.13415
 Alpha  occ. eigenvalues --  -10.13247 -10.13161 -10.12950 -10.12267 -10.12203
 Alpha  occ. eigenvalues --  -10.08046 -10.06726  -8.03462  -5.99722  -5.99716
 Alpha  occ. eigenvalues --   -5.99530  -1.03170  -1.00920  -0.95277  -0.93870
 Alpha  occ. eigenvalues --   -0.92277  -0.92117  -0.83703  -0.71197  -0.69409
 Alpha  occ. eigenvalues --   -0.66802  -0.65695  -0.60815  -0.56799  -0.54963
 Alpha  occ. eigenvalues --   -0.52991  -0.48673  -0.46939  -0.45570  -0.44036
 Alpha  occ. eigenvalues --   -0.42266  -0.41752  -0.41281  -0.40781  -0.39155
 Alpha  occ. eigenvalues --   -0.38770  -0.37286  -0.36752  -0.35898  -0.35680
 Alpha  occ. eigenvalues --   -0.34414  -0.33444  -0.32575  -0.31880  -0.30594
 Alpha  occ. eigenvalues --   -0.29765  -0.29163  -0.29045  -0.27931  -0.27170
 Alpha  occ. eigenvalues --   -0.26240  -0.26151  -0.24900  -0.24247  -0.23705
 Alpha  occ. eigenvalues --   -0.22303  -0.21998  -0.21138  -0.20101  -0.18477
 Alpha  occ. eigenvalues --   -0.17790  -0.16961   0.04205
 Alpha virt. eigenvalues --    0.05450   0.06596   0.07404   0.07554   0.07949
 Alpha virt. eigenvalues --    0.08545   0.09289   0.09694   0.09860   0.10115
 Alpha virt. eigenvalues --    0.10993   0.11327   0.11699   0.12843   0.13171

  Beta  occ. eigenvalues --  -88.97179 -19.06863 -19.04397 -19.03751 -19.03096
  Beta  occ. eigenvalues --  -19.02860 -19.00619 -14.24378 -10.19586 -10.13384
  Beta  occ. eigenvalues --  -10.13233 -10.13140 -10.12941 -10.12259 -10.12181
  Beta  occ. eigenvalues --  -10.08041 -10.06691  -8.03415  -5.99689  -5.99684
  Beta  occ. eigenvalues --   -5.99458  -1.03088  -1.00737  -0.95264  -0.93853
  Beta  occ. eigenvalues --   -0.92120  -0.92011  -0.83670  -0.71047  -0.69342
  Beta  occ. eigenvalues --   -0.66738  -0.65638  -0.60759  -0.56667  -0.54913
  Beta  occ. eigenvalues --   -0.52921  -0.48589  -0.46794  -0.45499  -0.43966
  Beta  occ. eigenvalues --   -0.42180  -0.41643  -0.41182  -0.40683  -0.39058
  Beta  occ. eigenvalues --   -0.38695  -0.37165  -0.36609  -0.35837  -0.35617
  Beta  occ. eigenvalues --   -0.34331  -0.33361  -0.32541  -0.31845  -0.30392
  Beta  occ. eigenvalues --   -0.29732  -0.29089  -0.28736  -0.27867  -0.27145
  Beta  occ. eigenvalues --   -0.26213  -0.26125  -0.24828  -0.24215  -0.23664
  Beta  occ. eigenvalues --   -0.22277  -0.21923  -0.20765  -0.20035  -0.18382
  Beta  occ. eigenvalues --   -0.17738  -0.16943
  Beta virt. eigenvalues --    0.06387   0.06782   0.07542   0.07684   0.08090
  Beta virt. eigenvalues --    0.08512   0.08939   0.09412   0.09981   0.10177
  Beta virt. eigenvalues --    0.10371   0.11080   0.11359   0.11856   0.12947

 Mulliken charges and spin densities:
               1          2
     1  C    0.363761  -0.809833
     2  C    0.109815  -0.196731
     3  O    0.008870   0.027688
     4  C   -0.112332   0.122928
     5  O   -0.250403   0.060324
     6  C   -0.298681  -0.205783
     7  S   -0.097814  -0.061537
     8  O   -0.131141   0.015657
     9  O   -0.147200   0.007611
    10  N   -0.333047   0.036425
    11  C    0.141358  -0.401923
    12  C   -0.497814   0.224276
    13  C    0.009572  -0.380995
    14  O   -0.063998   0.001344
    15  C   -0.458014   0.173422
    16  C    1.036038  -1.347336
    17  O   -0.344033   0.017788
    18  H    0.129515   0.022339
    19  H   -0.478340   0.621849
    20  H   -0.085692   0.252776
    21  H   -0.369691   0.531383
    22  H    0.114228   0.047614
    23  H    0.222159   0.035425
    24  H    0.217157   0.039366
    25  H    0.441240   0.007656
    26  H    0.044148   0.128772
    27  H    0.265366  -0.046079
    28  H    0.089650   0.094394
    29  H    0.160991   0.012129
    30  H   -0.090805   0.273728
    31  H    0.145869  -0.010592
    32  H    0.264447  -0.133257
    33  H   -0.691667   0.887002
    34  H   -0.439190   0.602717
    35  H   -0.083342   0.267156
    36  H    0.209020   0.082299
 Sum of Mulliken charges =  -1.00000   1.00000

 Dipole moment (field-independent basis, Debye):
    X=              0.6762    Y=             -1.2919    Z=             -0.3868  Tot=              1.5086
 Quadrupole moment (field-independent basis, Debye-Ang):
   XX=           -232.0573   YY=           -142.8873   ZZ=           -141.5706
   XY=            -16.1793   XZ=              6.6445   YZ=              0.7663

 Summary of Natural Population Analysis:

                                       Natural Population
                Natural  -----------------------------------------------
    Atom  No    Charge         Core      Valence    Rydberg      Total
 -----------------------------------------------------------------------
      C    1   -0.29996      0.99966     2.29474    0.00556     3.29996
      C    2   -0.01665      0.99958     2.00527    0.01180     3.01665
      O    3   -0.27908      0.99986     3.26963    0.00959     4.27908
      C    4    0.41983      0.99970     1.55472    0.02575     2.58017
      O    5   -0.29561      0.99987     3.29004    0.00570     4.29561
      C    6   -0.32370      0.99954     2.31315    0.01101     3.32370
      S    7    1.11201      4.99930     1.79011    0.09859     6.88799
      O    8   -0.46227      0.99990     3.45662    0.00574     4.46227
      O    9   -0.48068      0.99990     3.47531    0.00547     4.48068
      N   10   -0.45651      0.99974     2.94462    0.01215     3.95651
      C   11   -0.09072      0.99962     2.07987    0.01124     3.09072
      C   12   -0.21619      0.99961     2.20934    0.00723     3.21619
      C   13   -0.01574      0.99955     2.00203    0.01416     3.01574
      O   14   -0.30316      0.99988     3.29301    0.01027     4.30316
      C   15   -0.02319      0.99957     2.00962    0.01400     3.02319
      C   16   -0.03006      0.99960     2.01783    0.01263     3.03006
      O   17   -0.38608      0.99989     3.37867    0.00752     4.38608
      H   18    0.10302      0.00000     0.39601    0.00096     0.39698
      H   19    0.10206      0.00000     0.39607    0.00187     0.39794
      H   20    0.10686      0.00000     0.39197    0.00117     0.39314
      H   21    0.08953      0.00000     0.40900    0.00147     0.41047
      H   22    0.09444      0.00000     0.40429    0.00127     0.40556
      H   23    0.12130      0.00000     0.37754    0.00117     0.37870
      H   24    0.12249      0.00000     0.37660    0.00091     0.37751
      H   25    0.21515      0.00000     0.28177    0.00308     0.28485
      H   26    0.09829      0.00000     0.40054    0.00117     0.40171
      H   27    0.10946      0.00000     0.38938    0.00115     0.39054
      H   28    0.10079      0.00000     0.39799    0.00122     0.39921
      H   29    0.11173      0.00000     0.38695    0.00132     0.38827
      H   30    0.09154      0.00000     0.40732    0.00114     0.40846
      H   31    0.08056      0.00000     0.41713    0.00231     0.41944
      H   32    0.07689      0.00000     0.42154    0.00157     0.42311
      H   33    0.09641      0.00000     0.40147    0.00212     0.40359
      H   34    0.09128      0.00000     0.40673    0.00199     0.40872
      H   35    0.08752      0.00000     0.41102    0.00146     0.41248
      H   36    0.24844      0.00000     0.24844    0.00312     0.25156
 =======================================================================
   * Total *    0.00000     20.99478    50.70635    0.29888    72.00000

 Normal termination of Gaussian 16 at Fri Dec 11 14:28:41 2020.
