 Gaussian 16, Revision A.03,

 -----------------------------------------------------------
 # opt freq B3LYP/6-31G(d) empiricaldispersion=gd3bj scf=xqc
 -----------------------------------------------------------

 -------------------------------
 CID_123179167_JID_4689_neutraal
 -------------------------------
 Symbolic Z-matrix:
 Charge =  0 Multiplicity = 1

 SCF Done:  E(RB3LYP) =  -718.619931235     A.U. after   16 cycles
 SCF Done:  E(RB3LYP) =  -718.629647820     A.U. after   14 cycles
 SCF Done:  E(RB3LYP) =  -718.632076707     A.U. after   13 cycles
 SCF Done:  E(RB3LYP) =  -718.633390939     A.U. after   13 cycles
 SCF Done:  E(RB3LYP) =  -718.634717105     A.U. after   12 cycles
 SCF Done:  E(RB3LYP) =  -718.635177715     A.U. after   14 cycles
 SCF Done:  E(RB3LYP) =  -718.635251021     A.U. after   13 cycles
 SCF Done:  E(RB3LYP) =  -718.635464232     A.U. after   12 cycles
 SCF Done:  E(RB3LYP) =  -718.635535277     A.U. after   12 cycles
 SCF Done:  E(RB3LYP) =  -718.635575057     A.U. after   13 cycles
 SCF Done:  E(RB3LYP) =  -718.635626021     A.U. after   11 cycles
 SCF Done:  E(RB3LYP) =  -718.635631833     A.U. after   10 cycles
 SCF Done:  E(RB3LYP) =  -718.635637792     A.U. after   12 cycles
 SCF Done:  E(RB3LYP) =  -718.635638917     A.U. after    9 cycles
 SCF Done:  E(RB3LYP) =  -718.635639037     A.U. after    8 cycles
 SCF Done:  E(RB3LYP) =  -718.635639086     A.U. after    7 cycles
 Optimization completed.
    -- Stationary point found.
 Normal termination of Gaussian 16 at Thu Dec 10 10:25:29 2020.

 --------------------------------------------------------------------
 #N Geom=AllCheck Guess=TCheck SCRF=Check GenChk RB3LYP/6-31G(d) Freq
 --------------------------------------------------------------------

 Structure from the checkpoint file:  "JID_4689.chk"
 -------------------------------
 CID_123179167_JID_4689_neutraal
 -------------------------------
 Charge =  0 Multiplicity = 1

 SCF Done:  E(RB3LYP) =  -718.635639086     A.U. after    1 cycles

  Exact polarizability: 123.532   3.183 105.569  -3.424  -0.087  82.769
 Approx polarizability: 156.756  15.753 184.283  -7.487  -1.939 123.379

                      1                      2                      3
                      A                      A                      A
 Frequencies --     17.3130                41.3930                60.1261
 Red. masses --      4.7863                 8.1067                 3.8067
 Frc consts  --      0.0008                 0.0082                 0.0081
 IR Inten    --      0.2171                 0.4098                 1.4271

                      4                      5                      6
                      A                      A                      A
 Frequencies --     95.5458               130.1193               143.6635
 Red. masses --      3.9516                 5.1499                10.2489
 Frc consts  --      0.0213                 0.0514                 0.1246
 IR Inten    --      2.6243                 5.3527                 4.9739

                      7                      8                      9
                      A                      A                      A
 Frequencies --    167.6701               181.2019               198.1953
 Red. masses --      2.1508                 2.6595                 2.3307
 Frc consts  --      0.0356                 0.0514                 0.0539
 IR Inten    --      1.7224                 1.9468                 0.0764

                     10                     11                     12
                      A                      A                      A
 Frequencies --    247.6425               310.6801               317.9932
 Red. masses --      1.9800                 4.1352                 7.5395
 Frc consts  --      0.0715                 0.2352                 0.4492
 IR Inten    --      1.5329                 3.9815                 1.9935

                     13                     14                     15
                      A                      A                      A
 Frequencies --    350.8950               365.3219               397.4865
 Red. masses --      1.8514                 1.4788                 3.8438
 Frc consts  --      0.1343                 0.1163                 0.3578
 IR Inten    --      5.1295                33.3084                 7.9749

                     16                     17                     18
                      A                      A                      A
 Frequencies --    410.1497               460.4130               474.1221
 Red. masses --      5.1678                 2.5439                 3.5754
 Frc consts  --      0.5122                 0.3177                 0.4735
 IR Inten    --     16.9570                 1.1762                 1.3671

                     19                     20                     21
                      A                      A                      A
 Frequencies --    557.9178               579.1725               610.0614
 Red. masses --      5.0358                 3.2841                11.1845
 Frc consts  --      0.9235                 0.6490                 2.4525
 IR Inten    --     10.9143                 1.8139                 1.5476

                     22                     23                     24
                      A                      A                      A
 Frequencies --    643.8282               670.2590               710.0037
 Red. masses --      2.0368                 3.6312                 1.8177
 Frc consts  --      0.4974                 0.9611                 0.5399
 IR Inten    --     40.8404                12.6550               132.0361

                     25                     26                     27
                      A                      A                      A
 Frequencies --    728.2563               735.6576               819.2258
 Red. masses --      2.0200                 2.7358                 3.7596
 Frc consts  --      0.6312                 0.8723                 1.4866
 IR Inten    --    118.0300                43.0381                23.3728

                     28                     29                     30
                      A                      A                      A
 Frequencies --    839.8496               894.8724               927.2031
 Red. masses --      2.3774                 4.5481                 3.1040
 Frc consts  --      0.9880                 2.1459                 1.5723
 IR Inten    --      3.9147                29.6055                12.1035

                     31                     32                     33
                      A                      A                      A
 Frequencies --    964.1972               999.6421              1012.2656
 Red. masses --      2.4710                 2.0031                 2.4046
 Frc consts  --      1.3535                 1.1794                 1.4517
 IR Inten    --     10.3452               123.7354                24.9935

                     34                     35                     36
                      A                      A                      A
 Frequencies --   1051.8978              1060.5196              1127.7233
 Red. masses --      1.6614                 3.4092                 2.6036
 Frc consts  --      1.0831                 2.2591                 1.9509
 IR Inten    --      5.8965                13.3190                48.1021

                     37                     38                     39
                      A                      A                      A
 Frequencies --   1155.5927              1168.2677              1200.0295
 Red. masses --      1.8156                 1.6302                 2.9724
 Frc consts  --      1.4285                 1.3109                 2.5220
 IR Inten    --     16.8946                31.5343               135.8369

                     40                     41                     42
                      A                      A                      A
 Frequencies --   1209.4591              1223.6664              1233.3488
 Red. masses --      2.0152                 1.9038                 1.6489
 Frc consts  --      1.7368                 1.6795                 1.4778
 IR Inten    --     28.5478                10.1092                28.8656

                     43                     44                     45
                      A                      A                      A
 Frequencies --   1317.8280              1318.5269              1336.9162
 Red. masses --      1.2840                 6.8405                 1.2806
 Frc consts  --      1.3139                 7.0067                 1.3485
 IR Inten    --      7.8021               111.8295                 4.1665

                     46                     47                     48
                      A                      A                      A
 Frequencies --   1352.4624              1373.8484              1379.3279
 Red. masses --      1.3726                 2.0510                 2.0819
 Frc consts  --      1.4793                 2.2808                 2.3338
 IR Inten    --      8.9253                 4.1732                49.3251

                     49                     50                     51
                      A                      A                      A
 Frequencies --   1409.7154              1418.6472              1480.5748
 Red. masses --      1.3190                 1.2522                 1.1370
 Frc consts  --      1.5445                 1.4849                 1.4685
 IR Inten    --     24.8313                 9.6116                 1.6839

                     52                     53                     54
                      A                      A                      A
 Frequencies --   1498.6799              1503.8134              1513.0465
 Red. masses --      1.1091                 1.1602                 1.1577
 Frc consts  --      1.4677                 1.5458                 1.5615
 IR Inten    --      7.8225                 5.3474                11.2912

                     55                     56                     57
                      A                      A                      A
 Frequencies --   1524.4002              1550.5239              1705.7631
 Red. masses --      1.0754                 1.0466                 1.0841
 Frc consts  --      1.4724                 1.4825                 1.8585
 IR Inten    --      8.3755                 2.8021                22.8423

                     58                     59                     60
                      A                      A                      A
 Frequencies --   1841.3489              1872.9770              1896.5673
 Red. masses --     10.9075                11.9758                12.5190
 Frc consts  --     21.7895                24.7525                26.5311
 IR Inten    --    648.4554                94.3786                33.4338

                     61                     62                     63
                      A                      A                      A
 Frequencies --   2959.0963              3019.5111              3036.0848
 Red. masses --      1.0606                 1.0671                 1.0638
 Frc consts  --      5.4718                 5.7320                 5.7773
 IR Inten    --     80.0151                25.7290                41.5621

                     64                     65                     66
                      A                      A                      A
 Frequencies --   3064.2049              3073.1513              3086.0792
 Red. masses --      1.0829                 1.0720                 1.0965
 Frc consts  --      5.9908                 5.9648                 6.1529
 IR Inten    --      1.6110                50.1507                17.7131

                     67                     68                     69
                      A                      A                      A
 Frequencies --   3096.8530              3119.7111              3407.1107
 Red. masses --      1.1000                 1.1029                 1.0561
 Frc consts  --      6.2155                 6.3245                 7.2233
 IR Inten    --     45.5040                26.0267                 4.4248

                     70                     71                     72
                      A                      A                      A
 Frequencies --   3517.8141              3565.2841              3589.4327
 Red. masses --      1.0742                 1.0858                 1.0787
 Frc consts  --      7.8321                 8.1317                 8.1887
 IR Inten    --      0.4630                 1.5560                52.9922

 - Thermochemistry -
 -------------------
 Temperature   298.150 Kelvin.  Pressure   1.00000 Atm.
 Atom     1 has atomic number  6 and mass  12.00000

 Molecular mass:   200.09094 amu.
 Principal axes and moments of inertia in atomic units:
                           1         2         3
     Eigenvalues --  1328.951674596.981075226.91815
           X            0.99986  -0.01553   0.00621
           Y            0.01555   0.99988  -0.00207
           Z           -0.00617   0.00217   0.99998
 This molecule is an asymmetric top.
 Rotational symmetry number  1.
 Warning -- assumption of classical behavior for rotation
           may cause significant error
 Rotational temperatures (Kelvin)      0.06517     0.01884     0.01657
 Rotational constants (GHZ):           1.35802     0.39259     0.34528
 Zero-point vibrational energy     552209.1 (Joules/Mol)
                                  131.98114 (Kcal/Mol)
 Warning -- explicit consideration of  21 degrees of freedom as
           vibrations may cause significant error
 Vibrational temperatures:     24.91    59.56    86.51   137.47   187.21
          (Kelvin)            206.70   241.24   260.71   285.16   356.30
                              447.00   457.52   504.86   525.62   571.89
                              590.11   662.43   682.16   802.72   833.30
                              877.74   926.33   964.35  1021.54  1047.80
                             1058.45  1178.68  1208.36  1287.52  1334.04
                             1387.26  1438.26  1456.42  1513.45  1525.85
                             1622.54  1662.64  1680.88  1726.57  1740.14
                             1760.58  1774.51  1896.06  1897.07  1923.52
                             1945.89  1976.66  1984.55  2028.27  2041.12
                             2130.22  2156.27  2163.65  2176.94  2193.27
                             2230.86  2454.21  2649.29  2694.80  2728.74
                             4257.48  4344.40  4368.25  4408.71  4421.58
                             4440.18  4455.68  4488.57  4902.07  5061.35
                             5129.65  5164.39

 Zero-point correction=                           0.210325 (Hartree/Particle)
 Thermal correction to Energy=                    0.224413
 Thermal correction to Enthalpy=                  0.225357
 Thermal correction to Gibbs Free Energy=         0.167832
 Sum of electronic and zero-point Energies=           -718.425314
 Sum of electronic and thermal Energies=              -718.411227
 Sum of electronic and thermal Enthalpies=            -718.410282
 Sum of electronic and thermal Free Energies=         -718.467807

                     E (Thermal)             CV                S
                      KCal/Mol        Cal/Mol-Kelvin    Cal/Mol-Kelvin
 Total                  140.821             51.375            121.071
 Electronic               0.000              0.000              0.000
 Translational            0.889              2.981             41.785
 Rotational               0.889              2.981             31.835
 Vibrational            139.044             45.413             47.451
 Vibration     1          0.593              1.986              6.921
 Vibration     2          0.594              1.981              5.191
 Vibration     3          0.597              1.973              4.453
 Vibration     4          0.603              1.952              3.543
 Vibration     5          0.612              1.923              2.944
 Vibration     6          0.616              1.909              2.755
 Vibration     7          0.624              1.882              2.461
 Vibration     8          0.630              1.865              2.316
 Vibration     9          0.637              1.842              2.150
 Vibration    10          0.661              1.767              1.747
 Vibration    11          0.700              1.653              1.359
 Vibration    12          0.704              1.639              1.320
 Vibration    13          0.728              1.573              1.162
 Vibration    14          0.739              1.544              1.099
 Vibration    15          0.764              1.476              0.972
 Vibration    16          0.774              1.448              0.926
 Vibration    17          0.818              1.338              0.765
 Vibration    18          0.831              1.307              0.726
 Vibration    19          0.913              1.122              0.528
 Vibration    20          0.936              1.076              0.487
 Vibration    21          0.969              1.011              0.433

 Optimization completed.
    -- Stationary point found.
 Normal termination of Gaussian 16 at Thu Dec 10 10:32:23 2020.

 ----------------------------------------------------------------------
 # B3LYP/6-311++G(d,p) empiricaldispersion=gd3bj scf=xqc pop=npa geom=c
 heck
 ----------------------------------------------------------------------

 ---------------------------------------
 CID_123179167_JID_4689_Energie_neutraal
 ---------------------------------------
 Structure from the checkpoint file:  "JID_4689.chk"
 Charge =  0 Multiplicity = 1

 SCF Done:  E(RB3LYP) =  -718.859776833     A.U. after   15 cycles
 Normal termination of Gaussian 16 at Thu Dec 10 10:35:13 2020.

 ----------------------------------------------------------------------
 # B3LYP/6-311++G(d,p) empiricaldispersion=gd3bj scf=xqc pop=npa geom=c
 heck
 ----------------------------------------------------------------------

 -------------------------------------
 CID_123179167_JID_4689_Energie_kation
 -------------------------------------
 Structure from the checkpoint file:  "JID_4689.chk"
 Charge =  1 Multiplicity = 2

 SCF Done:  E(UB3LYP) =  -718.558586284     A.U. after   24 cycles
 Normal termination of Gaussian 16 at Thu Dec 10 10:41:12 2020.
 Gaussian 16:  ES64L-G16RevA.03 25-Dec-2016

 ----------------------------------------------------------------------
 # B3LYP/6-311++G(d,p) empiricaldispersion=gd3bj scf=xqc pop=npa geom=c
 heck
 ----------------------------------------------------------------------

 ------------------------------------
 CID_123179167_JID_4689_Energie_anion
 ------------------------------------
 Structure from the checkpoint file:  "JID_4689.chk"
 Charge = -1 Multiplicity = 2

                         Standard orientation:
 ---------------------------------------------------------------------
 Center     Atomic      Atomic             Coordinates (Angstroms)
 Number     Number       Type             X           Y           Z
 ---------------------------------------------------------------------
      1          6           0        4.043187   -0.472510    1.073384
      2          7           0        3.656661    0.547939    0.111049
      3          6           0        2.977657    0.065645   -1.082340
      4          6           0        1.621653   -0.638536   -0.896934
      5          7           0        0.663250    0.215892   -0.173541
      6          6           0       -0.681581    0.235955   -0.696503
      7          6           0       -1.543637   -0.978708   -0.318191
      8          8           0       -1.212318   -2.138117   -0.321730
      9          6           0       -2.904783   -0.450184    0.185290
     10          8           0       -3.888282   -1.081272    0.488669
     11          7           0       -2.750982    0.931917    0.217242
     12          6           0       -1.493075    1.424779   -0.152001
     13          8           0       -1.158208    2.579894   -0.072275
     14          7           0        0.571847   -0.016588    1.235163
     15          1           0        4.726850   -1.178951    0.588276
     16          1           0        3.213642   -1.062432    1.504117
     17          1           0        4.584984   -0.002306    1.900587
     18          1           0        3.107083    1.284252    0.546303
     19          1           0        2.822890    0.928526   -1.740251
     20          1           0        3.654929   -0.624539   -1.604983
     21          1           0        1.218361   -0.869768   -1.888952
     22          1           0        1.731169   -1.603358   -0.380083
     23          1           0       -0.651456    0.333446   -1.789469
     24          1           0       -3.472896    1.548921    0.575084
     25          1           0        0.712905   -1.010343    1.438518
     26          1           0        1.320045    0.499744    1.687919
 ---------------------------------------------------------------------

 SCF Done:  E(UB3LYP) =  -718.897529763     A.U. after   27 cycles

 The electronic state is 2-A.
 Alpha  occ. eigenvalues --  -18.97184 -18.92958 -18.91818 -14.21564 -14.20828
 Alpha  occ. eigenvalues --  -14.20819 -14.20532 -10.14635 -10.10487 -10.09492
 Alpha  occ. eigenvalues --  -10.09234 -10.08544 -10.07070 -10.04850  -0.92472
 Alpha  occ. eigenvalues --   -0.88598  -0.86718  -0.85134  -0.81185  -0.79086
 Alpha  occ. eigenvalues --   -0.69329  -0.64583  -0.59675  -0.55854  -0.50849
 Alpha  occ. eigenvalues --   -0.49347  -0.45422  -0.41630  -0.39998  -0.38630
 Alpha  occ. eigenvalues --   -0.37873  -0.36951  -0.34208  -0.33846  -0.32959
 Alpha  occ. eigenvalues --   -0.31610  -0.30560  -0.30002  -0.28069  -0.27776
 Alpha  occ. eigenvalues --   -0.27485  -0.26281  -0.25539  -0.24853  -0.24666
 Alpha  occ. eigenvalues --   -0.19940  -0.15743  -0.14977  -0.14473  -0.14175
 Alpha  occ. eigenvalues --   -0.12376  -0.11237  -0.05879   0.03601
 Alpha virt. eigenvalues --    0.06704   0.08468   0.09040   0.10179   0.11067
 Alpha virt. eigenvalues --    0.11175   0.12059   0.12342   0.13100   0.13445
 Alpha virt. eigenvalues --    0.14391   0.15137   0.16225   0.16403   0.16846

  Beta  occ. eigenvalues --  -18.97141 -18.92541 -18.91055 -14.21538 -14.20827
  Beta  occ. eigenvalues --  -14.20817 -14.20453 -10.14608 -10.10486 -10.09489
  Beta  occ. eigenvalues --  -10.08998 -10.08542 -10.07107 -10.04408  -0.92355
  Beta  occ. eigenvalues --   -0.87850  -0.86402  -0.84110  -0.81174  -0.78751
  Beta  occ. eigenvalues --   -0.69293  -0.64485  -0.59555  -0.55650  -0.50221
  Beta  occ. eigenvalues --   -0.49077  -0.45312  -0.41546  -0.39556  -0.38523
  Beta  occ. eigenvalues --   -0.37560  -0.36912  -0.34008  -0.33533  -0.32946
  Beta  occ. eigenvalues --   -0.31273  -0.30384  -0.29854  -0.28009  -0.27691
  Beta  occ. eigenvalues --   -0.26948  -0.25828  -0.24737  -0.24493  -0.23137
  Beta  occ. eigenvalues --   -0.16660  -0.15533  -0.14952  -0.14023  -0.13076
  Beta  occ. eigenvalues --   -0.12218  -0.10889  -0.05302
  Beta virt. eigenvalues --    0.06664   0.08394   0.08968   0.10163   0.11089
  Beta virt. eigenvalues --    0.11155   0.11969   0.12202   0.12433   0.13258
  Beta virt. eigenvalues --    0.13712   0.14431   0.15086   0.16204   0.16369

 Mulliken charges and spin densities:
               1          2
     1  C   -0.369139  -0.001235
     2  N   -0.225234   0.011777
     3  C   -0.540755  -0.123542
     4  C   -0.002447   0.018705
     5  N    0.436041  -0.069025
     6  C   -0.409257   0.153374
     7  C    0.025091   0.254211
     8  O   -0.451098   0.272731
     9  C    0.007109   0.196463
    10  O   -0.457668   0.148963
    11  N   -0.255624   0.009898
    12  C    0.214752  -0.019062
    13  O   -0.407218   0.013008
    14  N   -0.645329   0.012586
    15  H    0.139257   0.001356
    16  H    0.123840   0.002133
    17  H    0.126208   0.004852
    18  H    0.253403   0.003700
    19  H    0.143535   0.021077
    20  H    0.114751   0.009225
    21  H    0.144776   0.016460
    22  H    0.172790  -0.001023
    23  H    0.121650   0.072326
    24  H    0.291718  -0.004791
    25  H    0.206658  -0.005781
    26  H    0.242191   0.001612
 Sum of Mulliken charges =  -1.00000   1.00000

 Dipole moment (field-independent basis, Debye):
    X=              8.4378    Y=              2.2428    Z=              0.0227  Tot=              8.7308
 Quadrupole moment (field-independent basis, Debye-Ang):
   XX=           -128.2533   YY=           -114.5917   ZZ=            -85.3594
   XY=            -18.4169   XZ=              6.3343   YZ=              0.9514

 Summary of Natural Population Analysis:

                                       Natural Population
                Natural  -----------------------------------------------
    Atom  No    Charge         Core      Valence    Rydberg      Total
 -----------------------------------------------------------------------
      C    1   -0.18226      0.99967     2.17515    0.00745     3.18226
      N    2   -0.34048      0.99976     2.82950    0.01122     3.84048
      C    3   -0.08942      0.99962     2.07788    0.01192     3.08942
      C    4   -0.09708      0.99961     2.08593    0.01154     3.09708
      N    5   -0.19646      0.99969     2.67785    0.01893     3.69646
      C    6   -0.08470      0.99951     2.07016    0.01504     3.08470
      C    7    0.28906      0.99965     1.68778    0.02352     2.71094
      O    8   -0.20882      0.99987     3.20174    0.00721     4.20882
      C    9    0.33710      0.99967     1.63737    0.02586     2.66290
      O   10   -0.26550      0.99987     3.25871    0.00692     4.26550
      N   11   -0.31858      0.99965     2.80868    0.01026     3.81858
      C   12    0.36008      0.99969     1.61514    0.02510     2.63992
      O   13   -0.31153      0.99986     3.30443    0.00724     4.31153
      N   14   -0.31964      0.99977     2.80888    0.01099     3.81964
      H   15    0.08829      0.00000     0.41059    0.00112     0.41171
      H   16    0.07862      0.00000     0.41925    0.00213     0.42138
      H   17    0.09039      0.00000     0.40868    0.00093     0.40961
      H   18    0.17491      0.00000     0.32266    0.00242     0.32509
      H   19    0.09434      0.00000     0.40347    0.00219     0.40566
      H   20    0.08238      0.00000     0.41558    0.00204     0.41762
      H   21    0.09885      0.00000     0.39890    0.00226     0.40115
      H   22    0.08916      0.00000     0.40972    0.00111     0.41084
      H   23    0.11035      0.00000     0.38818    0.00146     0.38965
      H   24    0.18747      0.00000     0.30903    0.00351     0.31253
      H   25    0.16808      0.00000     0.32990    0.00202     0.33192
      H   26    0.16540      0.00000     0.33286    0.00174     0.33460
 =======================================================================
   * Total *    0.00000     13.99589    38.78800    0.21611    53.00000

 Normal termination of Gaussian 16 at Thu Dec 10 10:47:41 2020.
