 Gaussian 16, Revision A.03,

 -----------------------------------------------------------
 # opt freq B3LYP/6-31G(d) empiricaldispersion=gd3bj scf=xqc
 -----------------------------------------------------------

 -------------------------------
 CID_137232092_JID_2526_neutraal
 -------------------------------
 Symbolic Z-matrix:
 Charge =  0 Multiplicity = 1

 SCF Done:  E(RB3LYP) =  -534.898431297     A.U. after   14 cycles
 SCF Done:  E(RB3LYP) =  -534.899372659     A.U. after   13 cycles
 SCF Done:  E(RB3LYP) =  -534.899232024     A.U. after   13 cycles
 SCF Done:  E(RB3LYP) =  -534.901352756     A.U. after   12 cycles
 SCF Done:  E(RB3LYP) =  -534.902034645     A.U. after   12 cycles
 SCF Done:  E(RB3LYP) =  -534.902638284     A.U. after   11 cycles
 SCF Done:  E(RB3LYP) =  -534.903761581     A.U. after   14 cycles
 SCF Done:  E(RB3LYP) =  -534.904654773     A.U. after   12 cycles
 SCF Done:  E(RB3LYP) =  -534.905363150     A.U. after   12 cycles
 SCF Done:  E(RB3LYP) =  -534.905442904     A.U. after   11 cycles
 SCF Done:  E(RB3LYP) =  -534.905663671     A.U. after    9 cycles
 SCF Done:  E(RB3LYP) =  -534.905665804     A.U. after    9 cycles
 SCF Done:  E(RB3LYP) =  -534.905666280     A.U. after    9 cycles
 SCF Done:  E(RB3LYP) =  -534.905666334     A.U. after    7 cycles
 SCF Done:  E(RB3LYP) =  -534.905666340     A.U. after    7 cycles
 Optimization completed.
    -- Stationary point found.
 Normal termination of Gaussian 16 at Wed Dec  9 17:38:11 2020.

 --------------------------------------------------------------------
 #N Geom=AllCheck Guess=TCheck SCRF=Check GenChk RB3LYP/6-31G(d) Freq
 --------------------------------------------------------------------

 Structure from the checkpoint file:  "JID_2526.chk"
 -------------------------------
 CID_137232092_JID_2526_neutraal
 -------------------------------
 Charge =  0 Multiplicity = 1

 SCF Done:  E(RB3LYP) =  -534.905666340     A.U. after    1 cycles

  Exact polarizability: 140.347  -3.378 114.032  -1.392   0.434  74.126
 Approx polarizability: 207.885  -3.679 180.762  -7.191   0.698 114.330

                      1                      2                      3
                      A                      A                      A
 Frequencies --     45.4547                47.2903                92.6023
 Red. masses --      1.4083                 1.5321                 1.3990
 Frc consts  --      0.0017                 0.0020                 0.0071
 IR Inten    --      0.0391                 0.7407                 0.5727

                      4                      5                      6
                      A                      A                      A
 Frequencies --    102.9383               145.9346               180.2730
 Red. masses --      3.8975                 2.8114                 2.4406
 Frc consts  --      0.0243                 0.0353                 0.0467
 IR Inten    --      1.0666                 2.8084                 1.2323

                      7                      8                      9
                      A                      A                      A
 Frequencies --    197.3718               239.2603               275.6295
 Red. masses --      1.2365                 3.9968                 3.2554
 Frc consts  --      0.0284                 0.1348                 0.1457
 IR Inten    --      0.1771                 1.0973                 1.5113

                     10                     11                     12
                      A                      A                      A
 Frequencies --    309.6754               324.7012               336.9035
 Red. masses --      3.9694                 2.8163                 3.1595
 Frc consts  --      0.2243                 0.1749                 0.2113
 IR Inten    --      3.4702                 3.6111                 1.5072

                     13                     14                     15
                      A                      A                      A
 Frequencies --    384.3677               433.6550               465.8290
 Red. masses --      1.5370                 1.8686                 3.8186
 Frc consts  --      0.1338                 0.2070                 0.4882
 IR Inten    --     56.2238                45.2818                 0.6110

                     16                     17                     18
                      A                      A                      A
 Frequencies --    477.0363               528.7568               561.2163
 Red. masses --      4.2473                 5.0191                 4.0590
 Frc consts  --      0.5695                 0.8268                 0.7532
 IR Inten    --      0.8916                 3.1437                 9.6313

                     19                     20                     21
                      A                      A                      A
 Frequencies --    627.2205               659.6988               707.4457
 Red. masses --      4.2562                 4.0103                 6.3847
 Frc consts  --      0.9865                 1.0283                 1.8827
 IR Inten    --     11.2401                 4.8485                 2.1488

                     22                     23                     24
                      A                      A                      A
 Frequencies --    767.2791               790.3460               838.8229
 Red. masses --      4.6943                 5.4238                 1.2531
 Frc consts  --      1.6283                 1.9961                 0.5195
 IR Inten    --      3.8303                 0.5797                13.2727

                     25                     26                     27
                      A                      A                      A
 Frequencies --    921.2522               963.3056               976.7774
 Red. masses --      4.4714                 3.9458                 1.3339
 Frc consts  --      2.2359                 2.1573                 0.7498
 IR Inten    --     10.1194                79.5853                 3.6691

                     28                     29                     30
                      A                      A                      A
 Frequencies --   1020.3564              1040.6616              1045.8008
 Red. masses --      1.6416                 1.7877                 1.5826
 Frc consts  --      1.0070                 1.1407                 1.0198
 IR Inten    --      2.8908                34.7697                23.0840

                     31                     32                     33
                      A                      A                      A
 Frequencies --   1070.7198              1073.8242              1082.4320
 Red. masses --      1.4989                 1.5550                 1.5356
 Frc consts  --      1.0124                 1.0564                 1.0600
 IR Inten    --      0.6932                 4.3851                17.8362

                     34                     35                     36
                      A                      A                      A
 Frequencies --   1119.4077              1177.7460              1238.8366
 Red. masses --      2.9298                 1.3175                 4.8620
 Frc consts  --      2.1630                 1.0767                 4.3963
 IR Inten    --     32.7421                 0.5417                10.2989

                     37                     38                     39
                      A                      A                      A
 Frequencies --   1281.9367              1307.7789              1336.3613
 Red. masses --      1.9105                 5.5943                 4.0214
 Frc consts  --      1.8499                 5.6372                 4.2313
 IR Inten    --     11.4066                 6.9170                 9.6005

                     40                     41                     42
                      A                      A                      A
 Frequencies --   1398.1435              1421.8781              1430.8264
 Red. masses --      1.2759                 2.1107                 1.5962
 Frc consts  --      1.4695                 2.5142                 1.9254
 IR Inten    --     53.7619                 6.7307                 6.4423

                     43                     44                     45
                      A                      A                      A
 Frequencies --   1441.0707              1444.4108              1499.1325
 Red. masses --      1.3928                 1.3166                 1.5963
 Frc consts  --      1.7041                 1.6184                 2.1137
 IR Inten    --      0.4968                 1.0505                31.2162

                     46                     47                     48
                      A                      A                      A
 Frequencies --   1503.5284              1506.9769              1511.3686
 Red. masses --      1.1467                 1.0496                 1.3252
 Frc consts  --      1.5273                 1.4044                 1.7835
 IR Inten    --      5.2799                 7.8135                26.2278

                     49                     50                     51
                      A                      A                      A
 Frequencies --   1513.9441              1518.1681              1528.7314
 Red. masses --      1.0679                 1.1881                 1.0950
 Frc consts  --      1.4421                 1.6134                 1.5077
 IR Inten    --      6.1519                 6.3537                22.9530

                     52                     53                     54
                      A                      A                      A
 Frequencies --   1627.4206              1650.2463              1734.5605
 Red. masses --      4.8429                 6.9039                 6.7720
 Frc consts  --      7.5572                11.0774                12.0046
 IR Inten    --     27.2436                23.8845                 4.0801

                     55                     56                     57
                      A                      A                      A
 Frequencies --   3050.9077              3055.5321              3059.3581
 Red. masses --      1.0394                 1.0363                 1.0356
 Frc consts  --      5.7001                 5.7003                 5.7110
 IR Inten    --     17.2832                22.5756                23.1294

                     58                     59                     60
                      A                      A                      A
 Frequencies --   3113.3699              3115.1372              3122.7530
 Red. masses --      1.0961                 1.1004                 1.1007
 Frc consts  --      6.2598                 6.2913                 6.3240
 IR Inten    --      9.0853                14.2481                12.9798

                     61                     62                     63
                      A                      A                      A
 Frequencies --   3133.8802              3137.0482              3158.7432
 Red. masses --      1.1025                 1.1032                 1.1030
 Frc consts  --      6.3797                 6.3965                 6.4839
 IR Inten    --     10.9023                17.4659                12.4388

                     64                     65                     66
                      A                      A                      A
 Frequencies --   3180.9145              3204.2692              3760.8724
 Red. masses --      1.0884                 1.0945                 1.0676
 Frc consts  --      6.4884                 6.6208                 8.8972
 IR Inten    --     14.4045                21.3196                71.7639

 - Thermochemistry -
 -------------------
 Temperature   298.150 Kelvin.  Pressure   1.00000 Atm.
 Atom     1 has atomic number  6 and mass  12.00000

 Molecular mass:   164.09496 amu.
 Principal axes and moments of inertia in atomic units:
                           1         2         3
     Eigenvalues --  1288.483052441.050973114.94268
           X            0.99955  -0.02461   0.01688
           Y            0.02449   0.99967   0.00741
           Z           -0.01706  -0.00699   0.99983
 This molecule is an asymmetric top.
 Rotational symmetry number  1.
 Warning -- assumption of classical behavior for rotation
           may cause significant error
 Rotational temperatures (Kelvin)      0.06722     0.03548     0.02781
 Rotational constants (GHZ):           1.40067     0.73933     0.57938
 Zero-point vibrational energy     520495.8 (Joules/Mol)
                                  124.40148 (Kcal/Mol)
 Warning -- explicit consideration of  18 degrees of freedom as
           vibrations may cause significant error
 Vibrational temperatures:     65.40    68.04   133.23   148.11   209.97
          (Kelvin)            259.37   283.97   344.24   396.57   445.55
                              467.17   484.73   553.02   623.93   670.22
                              686.35   760.76   807.47   902.43   949.16
                             1017.86  1103.94  1137.13  1206.88  1325.48
                             1385.98  1405.36  1468.07  1497.28  1504.67
                             1540.53  1544.99  1557.38  1610.58  1694.51
                             1782.41  1844.42  1881.60  1922.73  2011.62
                             2045.77  2058.64  2073.38  2078.19  2156.92
                             2163.24  2168.20  2174.52  2178.23  2184.31
                             2199.50  2341.50  2374.34  2495.65  4389.58
                             4396.23  4401.73  4479.44  4481.99  4492.95
                             4508.95  4513.51  4544.73  4576.63  4610.23
                             5411.06

 Zero-point correction=                           0.198246 (Hartree/Particle)
 Thermal correction to Energy=                    0.210754
 Thermal correction to Enthalpy=                  0.211698
 Thermal correction to Gibbs Free Energy=         0.159166
 Sum of electronic and zero-point Energies=           -534.707420
 Sum of electronic and thermal Energies=              -534.694912
 Sum of electronic and thermal Enthalpies=            -534.693968
 Sum of electronic and thermal Free Energies=         -534.746501

                     E (Thermal)             CV                S
                      KCal/Mol        Cal/Mol-Kelvin    Cal/Mol-Kelvin
 Total                  132.250             45.736            110.564
 Electronic               0.000              0.000              0.000
 Translational            0.889              2.981             41.194
 Rotational               0.889              2.981             30.661
 Vibrational            130.473             39.774             38.709
 Vibration     1          0.595              1.979              5.006
 Vibration     2          0.595              1.979              4.928
 Vibration     3          0.602              1.954              3.604
 Vibration     4          0.605              1.947              3.398
 Vibration     5          0.617              1.907              2.725
 Vibration     6          0.629              1.866              2.326
 Vibration     7          0.637              1.844              2.157
 Vibration     8          0.657              1.780              1.808
 Vibration     9          0.677              1.718              1.561
 Vibration    10          0.699              1.655              1.364
 Vibration    11          0.709              1.626              1.286
 Vibration    12          0.718              1.602              1.227
 Vibration    13          0.753              1.504              1.022
 Vibration    14          0.794              1.397              0.847
 Vibration    15          0.823              1.326              0.749
 Vibration    16          0.834              1.301              0.718
 Vibration    17          0.884              1.186              0.590
 Vibration    18          0.917              1.115              0.521

 Optimization completed.
    -- Stationary point found.
 Normal termination of Gaussian 16 at Wed Dec  9 17:43:27 2020.

 ----------------------------------------------------------------------
 # B3LYP/6-311++G(d,p) empiricaldispersion=gd3bj scf=xqc pop=npa geom=c
 heck
 ----------------------------------------------------------------------

 ---------------------------------------
 CID_137232092_JID_2526_Energie_neutraal
 ---------------------------------------
 Structure from the checkpoint file:  "JID_2526.chk"
 Charge =  0 Multiplicity = 1

 SCF Done:  E(RB3LYP) =  -535.057616935     A.U. after   16 cycles
 Normal termination of Gaussian 16 at Wed Dec  9 17:46:06 2020.

 ----------------------------------------------------------------------
 # B3LYP/6-311++G(d,p) empiricaldispersion=gd3bj scf=xqc pop=npa geom=c
 heck
 ----------------------------------------------------------------------

 -------------------------------------
 CID_137232092_JID_2526_Energie_kation
 -------------------------------------
 Structure from the checkpoint file:  "JID_2526.chk"
 Charge =  1 Multiplicity = 2

 SCF Done:  E(UB3LYP) =  -534.743905826     A.U. after   27 cycles
 Normal termination of Gaussian 16 at Wed Dec  9 17:54:47 2020.
 Gaussian 16:  ES64L-G16RevA.03 25-Dec-2016

 ----------------------------------------------------------------------
 # B3LYP/6-311++G(d,p) empiricaldispersion=gd3bj scf=xqc pop=npa geom=c
 heck
 ----------------------------------------------------------------------

 ------------------------------------
 CID_137232092_JID_2526_Energie_anion
 ------------------------------------
 Structure from the checkpoint file:  "JID_2526.chk"
 Charge = -1 Multiplicity = 2

                         Standard orientation:
 ---------------------------------------------------------------------
 Center     Atomic      Atomic             Coordinates (Angstroms)
 Number     Number       Type             X           Y           Z
 ---------------------------------------------------------------------
      1          6           0       -1.288585    2.094205   -0.646051
      2          6           0       -0.080831    1.249863   -0.339526
      3          6           0       -0.157589   -0.139364   -0.122907
      4          7           0        0.911261   -0.917683    0.098696
      5          6           0        2.126196   -0.357015    0.173608
      6          6           0        2.305213    1.017737   -0.006010
      7          6           0        1.195737    1.812699   -0.274025
      8          6           0        3.279453   -1.285145    0.455244
      9          6           0       -1.447090   -0.893267   -0.205410
     10          7           0       -2.476783   -0.716130    0.538266
     11          8           0       -2.278728    0.291186    1.508188
     12          6           0       -1.529089   -2.000167   -1.219465
     13          1           0       -1.967058    1.586744   -1.340013
     14          1           0       -1.860738    2.290982    0.265696
     15          1           0       -0.992190    3.049195   -1.090735
     16          1           0        3.299214    1.451832    0.046956
     17          1           0        1.317342    2.880341   -0.441291
     18          1           0        3.179997   -1.727352    1.453302
     19          1           0        3.287638   -2.112267   -0.262498
     20          1           0        4.239563   -0.763347    0.402852
     21          1           0       -3.128620    0.281606    1.974477
     22          1           0       -2.488103   -2.517432   -1.144057
     23          1           0       -1.409140   -1.604519   -2.235841
     24          1           0       -0.709929   -2.705850   -1.045832
 ---------------------------------------------------------------------

 SCF Done:  E(UB3LYP) =  -535.044716805     A.U. after   33 cycles
 SCF Done:  E(UB3LYP) =  -535.044716805     a.u. after    1 cycles

 The electronic state is 2-A.
 Alpha  occ. eigenvalues --  -19.03293 -14.22584 -14.16261 -10.08107 -10.07988
 Alpha  occ. eigenvalues --  -10.07039 -10.05641 -10.05271 -10.05040 -10.04429
 Alpha  occ. eigenvalues --  -10.04329 -10.03762  -0.95172  -0.81131  -0.74433
 Alpha  occ. eigenvalues --   -0.68136  -0.65662  -0.60421  -0.60218  -0.54912
 Alpha  occ. eigenvalues --   -0.50739  -0.46754  -0.42814  -0.39868  -0.36941
 Alpha  occ. eigenvalues --   -0.34925  -0.34164  -0.31261  -0.31018  -0.29922
 Alpha  occ. eigenvalues --   -0.29411  -0.28497  -0.28150  -0.27432  -0.27011
 Alpha  occ. eigenvalues --   -0.26216  -0.25362  -0.23869  -0.22736  -0.15986
 Alpha  occ. eigenvalues --   -0.15512  -0.13334  -0.12285  -0.11532   0.05380
 Alpha virt. eigenvalues --    0.07526   0.07972   0.08394   0.09041   0.09987
 Alpha virt. eigenvalues --    0.10501   0.10977   0.11964   0.12466   0.12903
 Alpha virt. eigenvalues --    0.13509   0.13789   0.14419   0.15393   0.15738

  Beta  occ. eigenvalues --  -19.03235 -14.22428 -14.16013 -10.08071 -10.08036
  Beta  occ. eigenvalues --  -10.06873 -10.05692 -10.05260 -10.05029 -10.04315
  Beta  occ. eigenvalues --  -10.04286 -10.03623  -0.95006  -0.80773  -0.74217
  Beta  occ. eigenvalues --   -0.67952  -0.65419  -0.60341  -0.60105  -0.54724
  Beta  occ. eigenvalues --   -0.50368  -0.46630  -0.42674  -0.39700  -0.36834
  Beta  occ. eigenvalues --   -0.34772  -0.33987  -0.31094  -0.30874  -0.29815
  Beta  occ. eigenvalues --   -0.29364  -0.28430  -0.28090  -0.27353  -0.26903
  Beta  occ. eigenvalues --   -0.25980  -0.25204  -0.23422  -0.22528  -0.15655
  Beta  occ. eigenvalues --   -0.14626  -0.12776  -0.11990  -0.10990
  Beta virt. eigenvalues --    0.07802   0.08341   0.08983   0.09172   0.09879
  Beta virt. eigenvalues --    0.10264   0.10671   0.11250   0.11897   0.12539
  Beta virt. eigenvalues --    0.13045   0.13694   0.13796   0.14860   0.15349

 Mulliken charges and spin densities:
               1          2
     1  C    0.951295  -1.538445
     2  C    1.377314   0.622135
     3  C   -1.992701   0.993690
     4  N    0.088388   0.157242
     5  C    0.367120  -0.071355
     6  C   -0.301962   0.446196
     7  C   -0.698770  -0.677913
     8  C    1.005814  -1.387472
     9  C   -0.394463   0.109236
    10  N   -0.313400   0.096860
    11  O   -0.101946   0.005710
    12  C   -0.295702  -0.271993
    13  H    0.057875   0.090995
    14  H    0.250514  -0.063309
    15  H   -0.253326   0.377489
    16  H   -0.709807   0.843306
    17  H   -0.395390   0.508431
    18  H    0.135280   0.012288
    19  H    0.035134   0.100373
    20  H   -0.122067   0.259256
    21  H   -0.081173   0.346331
    22  H    0.123960   0.013052
    23  H    0.086993   0.036548
    24  H    0.181022  -0.008648
 Sum of Mulliken charges =  -1.00000   1.00000

 Dipole moment (field-independent basis, Debye):
    X=             -1.2198    Y=             -2.6860    Z=             -1.5545  Tot=              3.3345
 Quadrupole moment (field-independent basis, Debye-Ang):
   XX=           -121.3095   YY=           -101.7766   ZZ=            -92.8401
   XY=             -6.4354   XZ=              2.9149   YZ=              3.8846

 Summary of Natural Population Analysis:

                                       Natural Population
                Natural  -----------------------------------------------
    Atom  No    Charge         Core      Valence    Rydberg      Total
 -----------------------------------------------------------------------
      C    1   -0.29346      0.99963     2.28898    0.00484     3.29346
      C    2   -0.03218      0.99948     2.02321    0.00950     3.03218
      C    3    0.10762      0.99944     1.87873    0.01421     2.89238
      N    4   -0.21448      0.99964     2.70411    0.01073     3.71448
      C    5    0.09226      0.99955     1.89504    0.01314     2.90774
      C    6   -0.10108      0.99951     2.09205    0.00953     3.10108
      C    7   -0.06117      0.99952     2.05106    0.01059     3.06117
      C    8   -0.29562      0.99963     2.28944    0.00655     3.29562
      C    9    0.11134      0.99959     1.86962    0.01946     2.88866
      N   10   -0.07775      0.99959     2.56337    0.01479     3.57775
      O   11   -0.28830      0.99990     3.28032    0.00807     4.28830
      C   12   -0.29419      0.99962     2.29025    0.00432     3.29419
      H   13    0.10095      0.00000     0.39780    0.00125     0.39905
      H   14    0.11242      0.00000     0.38603    0.00156     0.38758
      H   15    0.09701      0.00000     0.40188    0.00112     0.40299
      H   16    0.09726      0.00000     0.40132    0.00142     0.40274
      H   17    0.09497      0.00000     0.40377    0.00125     0.40503
      H   18    0.10229      0.00000     0.39665    0.00106     0.39771
      H   19    0.10187      0.00000     0.39703    0.00110     0.39813
      H   20    0.09726      0.00000     0.40193    0.00080     0.40274
      H   21    0.23139      0.00000     0.26203    0.00658     0.26861
      H   22    0.10177      0.00000     0.39722    0.00101     0.39823
      H   23    0.09862      0.00000     0.40035    0.00102     0.40138
      H   24    0.11120      0.00000     0.38769    0.00111     0.38880
 =======================================================================
   * Total *    0.00000     11.99509    31.85989    0.14502    44.00000

 Normal termination of Gaussian 16 at Wed Dec  9 18:02:40 2020.
