 Gaussian 16, Revision A.03,

 -----------------------------------------------------------
 # opt freq B3LYP/6-31G(d) empiricaldispersion=gd3bj scf=xqc
 -----------------------------------------------------------

 ------------------------------
 CID_123230204_JID_949_neutraal
 ------------------------------
 Symbolic Z-matrix:
 Charge =  0 Multiplicity = 1

 SCF Done:  E(RB3LYP) =  -458.735089678     A.U. after   14 cycles
 SCF Done:  E(RB3LYP) =  -458.737666669     A.U. after   12 cycles
 SCF Done:  E(RB3LYP) =  -458.737970307     A.U. after   10 cycles
 SCF Done:  E(RB3LYP) =  -458.738022134     A.U. after   10 cycles
 SCF Done:  E(RB3LYP) =  -458.738051690     A.U. after    9 cycles
 SCF Done:  E(RB3LYP) =  -458.738078346     A.U. after    9 cycles
 SCF Done:  E(RB3LYP) =  -458.738136801     A.U. after   10 cycles
 SCF Done:  E(RB3LYP) =  -458.738150671     A.U. after   10 cycles
 SCF Done:  E(RB3LYP) =  -458.738154428     A.U. after    8 cycles
 SCF Done:  E(RB3LYP) =  -458.738156448     A.U. after    8 cycles
 SCF Done:  E(RB3LYP) =  -458.738156906     A.U. after    8 cycles
 SCF Done:  E(RB3LYP) =  -458.738157057     A.U. after    7 cycles
 Optimization completed.
    -- Stationary point found.
 Normal termination of Gaussian 16 at Tue Dec  8 13:46:45 2020.

 --------------------------------------------------------------------
 #N Geom=AllCheck Guess=TCheck SCRF=Check GenChk RB3LYP/6-31G(d) Freq
 --------------------------------------------------------------------

 Structure from the checkpoint file:  "JID_949.chk"
 ------------------------------
 CID_123230204_JID_949_neutraal
 ------------------------------
 Charge =  0 Multiplicity = 1

 SCF Done:  E(RB3LYP) =  -458.738157057     A.U. after    1 cycles

  Exact polarizability: 114.845  -3.739  88.938   0.003   0.067  61.267
 Approx polarizability: 149.397  -3.597 145.190   0.033   0.204  84.241

                      1                      2                      3
                      A                      A                      A
 Frequencies --     15.2672               103.0804               118.3572
 Red. masses --      3.0356                 2.5191                 1.1528
 Frc consts  --      0.0004                 0.0158                 0.0095
 IR Inten    --      0.5117                 0.7100                 0.8591

                      4                      5                      6
                      A                      A                      A
 Frequencies --    162.9703               204.1308               233.0411
 Red. masses --      2.8381                 3.0416                 1.0572
 Frc consts  --      0.0444                 0.0747                 0.0338
 IR Inten    --      0.4709                 3.9149                 0.2012

                      7                      8                      9
                      A                      A                      A
 Frequencies --    235.5938               268.9232               299.5486
 Red. masses --      2.9312                 1.1329                 6.4667
 Frc consts  --      0.0959                 0.0483                 0.3419
 IR Inten    --      2.3650                 0.7053                 1.1396

                     10                     11                     12
                      A                      A                      A
 Frequencies --    312.0666               344.7926               400.6314
 Red. masses --      2.6945                 1.0944                 4.5742
 Frc consts  --      0.1546                 0.0767                 0.4326
 IR Inten    --      0.8603               103.1758                17.6980

                     13                     14                     15
                      A                      A                      A
 Frequencies --    427.6609               503.4210               518.7280
 Red. masses --      2.8026                 1.2368                 3.2265
 Frc consts  --      0.3020                 0.1847                 0.5115
 IR Inten    --      8.9246                65.9660                 7.3447

                     16                     17                     18
                      A                      A                      A
 Frequencies --    637.9668               658.0218               686.4568
 Red. masses --      2.9484                 5.8834                 6.7064
 Frc consts  --      0.7070                 1.5009                 1.8619
 IR Inten    --      0.7333                12.8925                11.4227

                     19                     20                     21
                      A                      A                      A
 Frequencies --    746.7611               803.5795               900.5659
 Red. masses --      6.3433                 3.9887                 2.6492
 Frc consts  --      2.0841                 1.5175                 1.2659
 IR Inten    --      0.1416                 0.1221                 0.4258

                     22                     23                     24
                      A                      A                      A
 Frequencies --    943.8612               974.8416              1002.7154
 Red. masses --      1.1492                 1.5671                 1.5167
 Frc consts  --      0.6032                 0.8774                 0.8985
 IR Inten    --      1.4557                 0.0512                 1.5108

                     25                     26                     27
                      A                      A                      A
 Frequencies --   1031.6409              1079.9096              1110.9825
 Red. masses --      4.0540                 1.3836                 1.7434
 Frc consts  --      2.5421                 0.9507                 1.2678
 IR Inten    --     10.9653                 0.2132                76.0177

                     28                     29                     30
                      A                      A                      A
 Frequencies --   1134.2846              1161.9308              1194.7338
 Red. masses --      2.2250                 2.5580                 1.7491
 Frc consts  --      1.6866                 2.0348                 1.4710
 IR Inten    --      0.6825                54.6787                 0.4106

                     31                     32                     33
                      A                      A                      A
 Frequencies --   1224.4297              1294.2191              1322.2382
 Red. masses --      1.6922                 2.7299                 2.1578
 Frc consts  --      1.4947                 2.6941                 2.2227
 IR Inten    --      6.1526                 5.7418                78.3287

                     34                     35                     36
                      A                      A                      A
 Frequencies --   1348.9689              1394.3715              1422.6447
 Red. masses --      1.3369                 1.8827                 1.2272
 Frc consts  --      1.4334                 2.1567                 1.4633
 IR Inten    --      2.4721               159.3995                 3.0464

                     37                     38                     39
                      A                      A                      A
 Frequencies --   1441.1776              1442.4806              1473.2112
 Red. masses --      1.3788                 1.2834                 3.4694
 Frc consts  --      1.6873                 1.5733                 4.4364
 IR Inten    --     24.3272                 6.7556                58.8584

                     40                     41                     42
                      A                      A                      A
 Frequencies --   1500.3670              1513.7066              1515.1492
 Red. masses --      3.9957                 1.0428                 1.0418
 Frc consts  --      5.2996                 1.4078                 1.4091
 IR Inten    --     20.7477                 6.5258                 0.8610

                     43                     44                     45
                      A                      A                      A
 Frequencies --   1521.5833              1527.6390              1530.0458
 Red. masses --      1.0493                 1.1247                 1.0463
 Frc consts  --      1.4313                 1.5464                 1.4431
 IR Inten    --      1.5079                14.6440                10.0733

                     46                     47                     48
                      A                      A                      A
 Frequencies --   1539.5197              1575.9516              1710.8722
 Red. masses --      1.1392                 3.6844                 5.9616
 Frc consts  --      1.5908                 5.3914                10.2813
 IR Inten    --     16.9711                 8.7221                77.6619

                     49                     50                     51
                      A                      A                      A
 Frequencies --   3020.2303              3022.0492              3050.1509
 Red. masses --      1.0794                 1.0446                 1.0348
 Frc consts  --      5.8011                 5.6211                 5.6723
 IR Inten    --     16.6446                88.7889                29.4843

                     52                     53                     54
                      A                      A                      A
 Frequencies --   3054.1602              3061.6942              3117.8181
 Red. masses --      1.0354                 1.1019                 1.1031
 Frc consts  --      5.6906                 6.0860                 6.3176
 IR Inten    --     30.1091                33.2824                17.7246

                     55                     56                     57
                      A                      A                      A
 Frequencies --   3120.9324              3132.9987              3137.5307
 Red. masses --      1.1028                 1.1029                 1.1020
 Frc consts  --      6.3290                 6.3782                 6.3914
 IR Inten    --     57.0772                 6.5179                36.3805

                     58                     59                     60
                      A                      A                      A
 Frequencies --   3138.8705              3644.2233              3738.9588
 Red. masses --      1.0951                 1.0802                 1.0648
 Frc consts  --      6.3567                 8.4521                 8.7708
 IR Inten    --      8.3397                33.8437                56.8592

 - Thermochemistry -
 -------------------
 Temperature   298.150 Kelvin.  Pressure   1.00000 Atm.
 Atom     1 has atomic number  6 and mass  12.00000

 Molecular mass:   140.09496 amu.
 Principal axes and moments of inertia in atomic units:
                           1         2         3
     Eigenvalues --   718.858062207.570252523.55663
           X            0.99971  -0.02390  -0.00008
           Y            0.02390   0.99971  -0.00039
           Z            0.00009   0.00039   1.00000
 This molecule is an asymmetric top.
 Rotational symmetry number  1.
 Warning -- assumption of classical behavior for rotation
           may cause significant error
 Rotational temperatures (Kelvin)      0.12049     0.03923     0.03432
 Rotational constants (GHZ):           2.51057     0.81752     0.71516
 Zero-point vibrational energy     494982.8 (Joules/Mol)
                                  118.30372 (Kcal/Mol)
 Warning -- explicit consideration of  15 degrees of freedom as
           vibrations may cause significant error
 Vibrational temperatures:     21.97   148.31   170.29   234.48   293.70
          (Kelvin)            335.29   338.97   386.92   430.98   448.99
                              496.08   576.42   615.31   724.31   746.33
                              917.89   946.75   987.66  1074.42  1156.17
                             1295.71  1358.01  1402.58  1442.68  1484.30
                             1553.75  1598.46  1631.98  1671.76  1718.96
                             1761.68  1862.09  1902.41  1940.87  2006.19
                             2046.87  2073.53  2075.41  2119.62  2158.69
                             2177.89  2179.96  2189.22  2197.93  2201.39
                             2215.03  2267.44  2461.56  4345.44  4348.05
                             4388.49  4394.26  4405.10  4485.84  4490.33
                             4507.69  4514.21  4516.13  5243.22  5379.53

 Zero-point correction=                           0.188529 (Hartree/Particle)
 Thermal correction to Energy=                    0.199567
 Thermal correction to Enthalpy=                  0.200511
 Thermal correction to Gibbs Free Energy=         0.151212
 Sum of electronic and zero-point Energies=           -458.549628
 Sum of electronic and thermal Energies=              -458.538590
 Sum of electronic and thermal Enthalpies=            -458.537646
 Sum of electronic and thermal Free Energies=         -458.586945

                     E (Thermal)             CV                S
                      KCal/Mol        Cal/Mol-Kelvin    Cal/Mol-Kelvin
 Total                  125.230             40.187            103.760
 Electronic               0.000              0.000              0.000
 Translational            0.889              2.981             40.723
 Rotational               0.889              2.981             29.772
 Vibrational            123.453             34.225             33.265
 Vibration     1          0.593              1.986              7.170
 Vibration     2          0.605              1.947              3.395
 Vibration     3          0.609              1.934              3.127
 Vibration     4          0.623              1.888              2.515
 Vibration     5          0.640              1.834              2.096
 Vibration     6          0.654              1.790              1.855
 Vibration     7          0.655              1.786              1.836
 Vibration     8          0.673              1.730              1.603
 Vibration     9          0.692              1.675              1.419
 Vibration    10          0.700              1.651              1.351
 Vibration    11          0.723              1.586              1.190
 Vibration    12          0.766              1.469              0.960
 Vibration    13          0.789              1.410              0.866
 Vibration    14          0.859              1.242              0.650
 Vibration    15          0.874              1.209              0.613

                           ! Non-Optimized Parameters !
 Normal termination of Gaussian 16 at Tue Dec  8 13:52:52 2020.

 ----------------------------------------------------------------------
 # B3LYP/6-311++G(d,p) empiricaldispersion=gd3bj scf=xqc pop=npa geom=c
 heck
 ----------------------------------------------------------------------

 --------------------------------------
 CID_123230204_JID_949_Energie_neutraal
 --------------------------------------
 Structure from the checkpoint file:  "JID_949.chk"
 Charge =  0 Multiplicity = 1

 SCF Done:  E(RB3LYP) =  -458.877091287     A.U. after   14 cycles
 Normal termination of Gaussian 16 at Tue Dec  8 13:55:14 2020.

 ----------------------------------------------------------------------
 # B3LYP/6-311++G(d,p) empiricaldispersion=gd3bj scf=xqc pop=npa geom=c
 heck
 ----------------------------------------------------------------------

 ------------------------------------
 CID_123230204_JID_949_Energie_kation
 ------------------------------------
 Structure from the checkpoint file:  "JID_949.chk"
 Charge =  1 Multiplicity = 2

 SCF Done:  E(UB3LYP) =  -458.603751231     A.U. after   18 cycles
 Normal termination of Gaussian 16 at Tue Dec  8 14:01:30 2020.
 Gaussian 16:  ES64L-G16RevA.03 25-Dec-2016

 ----------------------------------------------------------------------
 # B3LYP/6-311++G(d,p) empiricaldispersion=gd3bj scf=xqc pop=npa geom=c
 heck
 ----------------------------------------------------------------------

 -----------------------------------
 CID_123230204_JID_949_Energie_anion
 -----------------------------------
 Structure from the checkpoint file:  "JID_949.chk"
 Charge = -1 Multiplicity = 2

                         Standard orientation:
 ---------------------------------------------------------------------
 Center     Atomic      Atomic             Coordinates (Angstroms)
 Number     Number       Type             X           Y           Z
 ---------------------------------------------------------------------
      1          6           0        2.932950   -1.297272   -0.003803
      2          6           0        1.640447   -0.558700   -0.001761
      3          6           0        1.336375    0.781949    0.002483
      4          7           0       -0.012966    1.007397    0.001951
      5          6           0       -0.573894   -0.194635   -0.002910
      6          7           0        0.382415   -1.165882   -0.005094
      7          6           0       -2.049222   -0.472171   -0.003823
      8          6           0       -2.706450    0.085422    1.270516
      9          6           0       -2.709479    0.109405   -1.265667
     10          8           0        2.228470    1.808620    0.006824
     11          1           0        3.754138   -0.575487   -0.000896
     12          1           0        3.053917   -1.932743   -0.892201
     13          1           0        3.053226   -1.939083    0.880117
     14          1           0        0.212161   -2.161058   -0.009641
     15          1           0       -2.180869   -1.563991   -0.013885
     16          1           0       -2.552503    1.167585    1.325508
     17          1           0       -3.783874   -0.115158    1.270729
     18          1           0       -2.270511   -0.362868    2.169690
     19          1           0       -2.276570   -0.322663   -2.174184
     20          1           0       -3.787096   -0.090073   -1.266411
     21          1           0       -2.554495    1.192214   -1.301201
     22          1           0        1.694212    2.619778    0.009568
 ---------------------------------------------------------------------

 SCF Done:  E(UB3LYP) =  -458.864446238     A.U. after   32 cycles

 The electronic state is 2-A.
 Alpha  occ. eigenvalues --  -19.04531 -14.24579 -14.18153 -10.12499 -10.11627
 Alpha  occ. eigenvalues --  -10.08369 -10.07829 -10.06459 -10.05393 -10.05392
 Alpha  occ. eigenvalues --   -0.96137  -0.89662  -0.75708  -0.70217  -0.65225
 Alpha  occ. eigenvalues --   -0.57989  -0.57724  -0.52266  -0.49259  -0.45928
 Alpha  occ. eigenvalues --   -0.43712  -0.36789  -0.35663  -0.34788  -0.33829
 Alpha  occ. eigenvalues --   -0.31659  -0.30826  -0.29167  -0.28577  -0.28073
 Alpha  occ. eigenvalues --   -0.27799  -0.25845  -0.24503  -0.23619  -0.23224
 Alpha  occ. eigenvalues --   -0.17671  -0.16009  -0.08920   0.04736
 Alpha virt. eigenvalues --    0.07184   0.07743   0.08978   0.09121   0.10459
 Alpha virt. eigenvalues --    0.10483   0.11452   0.12575   0.13271   0.13314
 Alpha virt. eigenvalues --    0.13326   0.13679   0.14456   0.16773   0.17059

  Beta  occ. eigenvalues --  -19.04525 -14.24522 -14.18144 -10.12497 -10.11628
  Beta  occ. eigenvalues --  -10.08369 -10.07804 -10.06418 -10.05371 -10.05370
  Beta  occ. eigenvalues --   -0.96125  -0.89625  -0.75649  -0.70179  -0.65180
  Beta  occ. eigenvalues --   -0.57940  -0.57672  -0.52209  -0.49173  -0.45868
  Beta  occ. eigenvalues --   -0.43665  -0.36739  -0.35619  -0.34761  -0.33770
  Beta  occ. eigenvalues --   -0.31615  -0.30788  -0.29139  -0.28530  -0.28050
  Beta  occ. eigenvalues --   -0.27776  -0.25820  -0.24468  -0.23580  -0.23165
  Beta  occ. eigenvalues --   -0.17651  -0.15984  -0.08909
  Beta virt. eigenvalues --    0.07211   0.07934   0.08477   0.09413   0.10243
  Beta virt. eigenvalues --    0.10866   0.11082   0.11988   0.12913   0.13231
  Beta virt. eigenvalues --    0.13684   0.13713   0.13978   0.14759   0.16965

 Mulliken charges and spin densities:
               1          2
     1  C    4.660870  -5.210205
     2  C    0.946278  -1.016817
     3  C   -2.677026   2.873198
     4  N   -0.072853  -0.088960
     5  C    0.241878  -0.830278
     6  N   -0.171003   0.026941
     7  C   -2.510143   3.228917
     8  C    0.684343  -1.298605
     9  C    0.680659  -1.295956
    10  O   -0.330115   0.028885
    11  H    0.002251   0.163256
    12  H   -0.389269   0.540980
    13  H   -0.389489   0.541190
    14  H   -0.415364   0.748042
    15  H   -0.829348   1.016882
    16  H    0.060924   0.086546
    17  H   -0.291359   0.444184
    18  H   -0.051677   0.183263
    19  H   -0.048901   0.180535
    20  H   -0.291287   0.444294
    21  H    0.062319   0.085190
    22  H    0.128312   0.148516
 Sum of Mulliken charges =  -1.00000   1.00000

 Dipole moment (field-independent basis, Debye):
    X=              0.9988    Y=              6.7574    Z=              0.0264  Tot=              6.8308
 Quadrupole moment (field-independent basis, Debye-Ang):
   XX=           -117.5155   YY=           -104.8893   ZZ=            -88.5379
   XY=             -0.2062   XZ=              0.0000   YZ=             -0.0563

 Summary of Natural Population Analysis:

                                       Natural Population
                Natural  -----------------------------------------------
    Atom  No    Charge         Core      Valence    Rydberg      Total
 -----------------------------------------------------------------------
      C    1   -0.29891      0.99965     2.29333    0.00593     3.29891
      C    2    0.01627      0.99948     1.97039    0.01385     2.98373
      C    3    0.21081      0.99935     1.77307    0.01678     2.78919
      N    4   -0.29477      0.99966     2.78608    0.00903     3.79477
      C    5    0.20211      0.99961     1.77992    0.01835     2.79789
      N    6   -0.26452      0.99963     2.75481    0.01008     3.76452
      C    7   -0.13353      0.99958     2.12151    0.01243     3.13353
      C    8   -0.27848      0.99965     2.27235    0.00648     3.27848
      C    9   -0.27852      0.99965     2.27239    0.00648     3.27852
      O   10   -0.34823      0.99987     3.34203    0.00633     4.34823
      H   11    0.10943      0.00000     0.38947    0.00110     0.39057
      H   12    0.10414      0.00000     0.39422    0.00164     0.39586
      H   13    0.10414      0.00000     0.39423    0.00163     0.39586
      H   14    0.21284      0.00000     0.26649    0.02067     0.28716
      H   15    0.10490      0.00000     0.38960    0.00550     0.39510
      H   16    0.10025      0.00000     0.39857    0.00118     0.39975
      H   17    0.09668      0.00000     0.40235    0.00097     0.40332
      H   18    0.10147      0.00000     0.39755    0.00098     0.39853
      H   19    0.10143      0.00000     0.39760    0.00098     0.39857
      H   20    0.09666      0.00000     0.40237    0.00097     0.40334
      H   21    0.10033      0.00000     0.39848    0.00119     0.39967
      H   22    0.23551      0.00000     0.26140    0.00309     0.26449
 =======================================================================
   * Total *    0.00000      9.99613    27.85823    0.14564    38.00000

 Normal termination of Gaussian 16 at Tue Dec  8 14:08:53 2020.
