 Gaussian 16, Revision A.03,

 -----------------------------------------------------------
 # opt freq B3LYP/6-31G(d) empiricaldispersion=gd3bj scf=xqc
 -----------------------------------------------------------

 -------------------------------
 CID_106731504_JID_5867_neutraal
 -------------------------------
 Symbolic Z-matrix:
 Charge =  0 Multiplicity = 1

 SCF Done:  E(RB3LYP) =  -1053.65384740     A.U. after   14 cycles
 SCF Done:  E(RB3LYP) =  -1053.65934381     A.U. after   12 cycles
 SCF Done:  E(RB3LYP) =  -1053.65998884     A.U. after   12 cycles
 SCF Done:  E(RB3LYP) =  -1053.66050892     A.U. after   11 cycles
 SCF Done:  E(RB3LYP) =  -1053.66069652     A.U. after   11 cycles
 SCF Done:  E(RB3LYP) =  -1053.66086817     A.U. after   12 cycles
 SCF Done:  E(RB3LYP) =  -1053.66104144     A.U. after   12 cycles
 SCF Done:  E(RB3LYP) =  -1053.66094755     A.U. after   11 cycles
 SCF Done:  E(RB3LYP) =  -1053.66137831     A.U. after   12 cycles
 SCF Done:  E(RB3LYP) =  -1053.66139718     A.U. after   11 cycles
 SCF Done:  E(RB3LYP) =  -1053.66168527     A.U. after    9 cycles
 SCF Done:  E(RB3LYP) =  -1053.66168191     A.U. after   11 cycles
 SCF Done:  E(RB3LYP) =  -1053.66168763     A.U. after   10 cycles
 SCF Done:  E(RB3LYP) =  -1053.66168788     A.U. after    8 cycles
 SCF Done:  E(RB3LYP) =  -1053.66168792     A.U. after    7 cycles
 SCF Done:  E(RB3LYP) =  -1053.66168795     A.U. after    6 cycles
 Optimization completed.
    -- Stationary point found.
 Normal termination of Gaussian 16 at Thu Dec 10 17:40:22 2020.

 --------------------------------------------------------------------
 #N Geom=AllCheck Guess=TCheck SCRF=Check GenChk RB3LYP/6-31G(d) Freq
 --------------------------------------------------------------------

 Structure from the checkpoint file:  "JID_5867.chk"
 -------------------------------
 CID_106731504_JID_5867_neutraal
 -------------------------------
 Charge =  0 Multiplicity = 1

 SCF Done:  E(RB3LYP) =  -1053.66168795     A.U. after    1 cycles

  Exact polarizability: 174.520  -1.189 133.477   0.990  -1.012 125.622
 Approx polarizability: 208.815  -0.853 201.818  -0.704  -5.286 199.146

                      1                      2                      3
                      A                      A                      A
 Frequencies --     18.2048                26.4346                38.0149
 Red. masses --      3.3139                 3.9154                 3.5216
 Frc consts  --      0.0006                 0.0016                 0.0030
 IR Inten    --      0.4474                 0.1583                 0.2402

                      4                      5                      6
                      A                      A                      A
 Frequencies --     56.0572                83.9282                93.1748
 Red. masses --      3.6758                 3.8646                 3.0450
 Frc consts  --      0.0068                 0.0160                 0.0156
 IR Inten    --      2.5725                 1.3730                 0.3241

                      7                      8                      9
                      A                      A                      A
 Frequencies --    126.5985               168.5926               175.2012
 Red. masses --      2.5450                 3.8713                 3.2545
 Frc consts  --      0.0240                 0.0648                 0.0589
 IR Inten    --      0.2834                 1.8931                 2.0650

                     10                     11                     12
                      A                      A                      A
 Frequencies --    219.8603               223.7020               236.9507
 Red. masses --      1.0356                 3.3800                 1.5572
 Frc consts  --      0.0295                 0.0997                 0.0515
 IR Inten    --      0.0100                 0.6829                 7.0440

                     13                     14                     15
                      A                      A                      A
 Frequencies --    251.3148               260.1815               268.0317
 Red. masses --      1.7738                 1.1371                 1.2784
 Frc consts  --      0.0660                 0.0454                 0.0541
 IR Inten    --      2.6531                 0.5653                 0.1175

                     16                     17                     18
                      A                      A                      A
 Frequencies --    268.9560               296.7530               304.8784
 Red. masses --      1.0729                 2.5851                 2.3979
 Frc consts  --      0.0457                 0.1341                 0.1313
 IR Inten    --      0.6030                 4.1682                 0.2965

                     19                     20                     21
                      A                      A                      A
 Frequencies --    310.3941               317.0185               344.4603
 Red. masses --      3.1174                 2.7564                 1.3231
 Frc consts  --      0.1770                 0.1632                 0.0925
 IR Inten    --      2.4710                 2.6398                27.5877

                     22                     23                     24
                      A                      A                      A
 Frequencies --    346.2176               396.0578               400.5633
 Red. masses --      1.9003                 2.7690                 2.7193
 Frc consts  --      0.1342                 0.2559                 0.2571
 IR Inten    --     13.0493                11.9215                 3.0064

                     25                     26                     27
                      A                      A                      A
 Frequencies --    428.6208               432.5750               452.6298
 Red. masses --      2.2667                 2.4120                 3.1817
 Frc consts  --      0.2453                 0.2659                 0.3841
 IR Inten    --      5.9653                13.3020                 0.2391

                     28                     29                     30
                      A                      A                      A
 Frequencies --    462.9784               488.0558               532.8917
 Red. masses --      2.1103                 3.4492                 4.3962
 Frc consts  --      0.2665                 0.4841                 0.7355
 IR Inten    --      4.7539                10.6650                38.9926

                     31                     32                     33
                      A                      A                      A
 Frequencies --    617.7451               664.3541               762.7360
 Red. masses --      3.3479                 4.4640                 4.1775
 Frc consts  --      0.7527                 1.1608                 1.4319
 IR Inten    --     34.0578                51.0871                48.2083

                     34                     35                     36
                      A                      A                      A
 Frequencies --    785.0212               799.4585               809.2402
 Red. masses --      1.5645                 2.2987                 3.0108
 Frc consts  --      0.5681                 0.8656                 1.1617
 IR Inten    --      2.9712                11.7806                17.3952

                     37                     38                     39
                      A                      A                      A
 Frequencies --    869.3577               910.4844               938.4902
 Red. masses --      2.7715                 1.3599                 2.1894
 Frc consts  --      1.2341                 0.6642                 1.1362
 IR Inten    --      5.9765               144.5358                87.4745

                     40                     41                     42
                      A                      A                      A
 Frequencies --    958.6266               961.6686               968.2936
 Red. masses --      1.6787                 1.5618                 1.6826
 Frc consts  --      0.9089                 0.8510                 0.9295
 IR Inten    --      2.1074                 0.6022                 1.2929

                     43                     44                     45
                      A                      A                      A
 Frequencies --    990.4778               990.5621              1025.0906
 Red. masses --      3.8872                 1.2718                 1.6506
 Frc consts  --      2.2469                 0.7352                 1.0219
 IR Inten    --     69.0210                 5.3165                17.7394

                     46                     47                     48
                      A                      A                      A
 Frequencies --   1038.2376              1054.4081              1054.8868
 Red. masses --      1.4370                 1.4619                 1.4748
 Frc consts  --      0.9126                 0.9576                 0.9669
 IR Inten    --      2.2725                 4.8236                 1.1628

                     49                     50                     51
                      A                      A                      A
 Frequencies --   1059.7469              1098.5559              1102.1452
 Red. masses --      1.7526                 5.4669                 2.1218
 Frc consts  --      1.1597                 3.8872                 1.5186
 IR Inten    --     74.5082                70.4948                83.2678

                     52                     53                     54
                      A                      A                      A
 Frequencies --   1137.0209              1150.7315              1168.3871
 Red. masses --      1.8144                 1.4521                 1.3108
 Frc consts  --      1.3821                 1.1329                 1.0543
 IR Inten    --     19.6442                 1.8218                 8.9606

                     55                     56                     57
                      A                      A                      A
 Frequencies --   1231.6686              1244.2842              1261.3596
 Red. masses --      2.0609                 1.6006                 2.5543
 Frc consts  --      1.8420                 1.4601                 2.3944
 IR Inten    --     23.6797                 5.3770                 6.2733

                     58                     59                     60
                      A                      A                      A
 Frequencies --   1270.4445              1273.2519              1277.7499
 Red. masses --      1.9595                 1.9116                 2.2056
 Frc consts  --      1.8634                 1.8259                 2.1216
 IR Inten    --     55.9797                 6.6068                49.8624

                     61                     62                     63
                      A                      A                      A
 Frequencies --   1283.7381              1301.3086              1356.1309
 Red. masses --      1.9511                 2.6207                 1.6024
 Frc consts  --      1.8944                 2.6147                 1.7363
 IR Inten    --     27.9550                34.7407                13.8331

                     64                     65                     66
                      A                      A                      A
 Frequencies --   1357.5313              1394.6914              1407.8114
 Red. masses --      1.4218                 1.3153                 1.3156
 Frc consts  --      1.5438                 1.5074                 1.5363
 IR Inten    --      6.3674                17.6564                26.1766

                     67                     68                     69
                      A                      A                      A
 Frequencies --   1415.9889              1424.6135              1426.3309
 Red. masses --      1.2416                 1.2418                 1.2223
 Frc consts  --      1.4667                 1.4849                 1.4651
 IR Inten    --      2.1838                14.8459                10.8945

                     70                     71                     72
                      A                      A                      A
 Frequencies --   1428.9185              1448.7625              1456.7539
 Red. masses --      1.2323                 1.4467                 1.2116
 Frc consts  --      1.4825                 1.7891                 1.5149
 IR Inten    --      5.0821                17.6194                 7.8674

                     73                     74                     75
                      A                      A                      A
 Frequencies --   1481.5274              1484.3633              1505.6819
 Red. masses --      1.1502                 1.0871                 1.0450
 Frc consts  --      1.4874                 1.4113                 1.3958
 IR Inten    --      1.2945                 7.7270                 0.1340

                     76                     77                     78
                      A                      A                      A
 Frequencies --   1510.7572              1518.1271              1520.8029
 Red. masses --      1.0874                 1.0503                 1.0482
 Frc consts  --      1.4623                 1.4262                 1.4284
 IR Inten    --      5.3215                 7.4434                 0.1429

                     79                     80                     81
                      A                      A                      A
 Frequencies --   1522.7832              1523.7452              1531.1533
 Red. masses --      1.0556                 1.0497                 1.0548
 Frc consts  --      1.4422                 1.4359                 1.4570
 IR Inten    --      9.6407                 0.9890                 5.7727

                     82                     83                     84
                      A                      A                      A
 Frequencies --   1532.7816              1535.2335              1538.0627
 Red. masses --      1.0481                 1.0895                 1.0519
 Frc consts  --      1.4509                 1.5129                 1.4661
 IR Inten    --     11.0344                 0.6389                 7.1093

                     85                     86                     87
                      A                      A                      A
 Frequencies --   1543.7725              1553.1828              1696.9239
 Red. masses --      1.0518                 1.0536                 1.0911
 Frc consts  --      1.4769                 1.4975                 1.8511
 IR Inten    --      7.5221                19.4711                19.5545

                     88                     89                     90
                      A                      A                      A
 Frequencies --   2948.0399              3004.6723              3034.1638
 Red. masses --      1.0611                 1.0594                 1.0834
 Frc consts  --      5.4335                 5.6353                 5.8767
 IR Inten    --     79.8763                32.2383                58.6534

                     91                     92                     93
                      A                      A                      A
 Frequencies --   3048.0618              3053.0132              3056.0710
 Red. masses --      1.1019                 1.0398                 1.0363
 Frc consts  --      6.0319                 5.7102                 5.7024
 IR Inten    --     27.2582                25.6550                 8.2979

                     94                     95                     96
                      A                      A                      A
 Frequencies --   3059.1188              3065.9217              3078.9046
 Red. masses --      1.0364                 1.0369                 1.0704
 Frc consts  --      5.7143                 5.7425                 5.9783
 IR Inten    --     21.6183                22.4246                30.8158

                     97                     98                     99
                      A                      A                      A
 Frequencies --   3083.5023              3099.1413              3116.8987
 Red. masses --      1.0615                 1.0578                 1.1021
 Frc consts  --      5.9463                 5.9862                 6.3086
 IR Inten    --      8.8204                14.2513                 0.1096

                    100                    101                    102
                      A                      A                      A
 Frequencies --   3117.1347              3122.2389              3125.0397
 Red. masses --      1.1019                 1.0996                 1.1037
 Frc consts  --      6.3080                 6.3156                 6.3505
 IR Inten    --     31.8490                51.8860                27.0173

                    103                    104                    105
                      A                      A                      A
 Frequencies --   3135.6787              3136.3417              3140.4079
 Red. masses --      1.1043                 1.1002                 1.1018
 Frc consts  --      6.3974                 6.3765                 6.4019
 IR Inten    --      7.7231                12.3628                26.7523

                    106                    107                    108
                      A                      A                      A
 Frequencies --   3150.6790              3151.8362              3157.1786
 Red. masses --      1.1021                 1.1020                 1.1036
 Frc consts  --      6.4461                 6.4498                 6.4812
 IR Inten    --      3.3272                13.9979                 9.2545

                    109                    110                    111
                      A                      A                      A
 Frequencies --   3163.7631              3441.2400              3530.1736
 Red. masses --      1.1078                 1.0487                 1.0919
 Frc consts  --      6.5332                 7.3172                 8.0175
 IR Inten    --      8.1316                 3.3821                 1.3883

 - Thermochemistry -
 -------------------
 Temperature   298.150 Kelvin.  Pressure   1.00000 Atm.
 Atom     1 has atomic number  6 and mass  12.00000

 Molecular mass:   236.15585 amu.
 Principal axes and moments of inertia in atomic units:
                           1         2         3
     Eigenvalues --  1626.102947869.053898178.36716
           X            0.99995   0.00492   0.00861
           Y           -0.00486   0.99996  -0.00713
           Z           -0.00865   0.00708   0.99994
 This molecule is an asymmetric top.
 Rotational symmetry number  1.
 Warning -- assumption of classical behavior for rotation
           may cause significant error
 Rotational temperatures (Kelvin)      0.05326     0.01101     0.01059
 Rotational constants (GHZ):           1.10986     0.22935     0.22067
 Zero-point vibrational energy     916485.9 (Joules/Mol)
                                  219.04540 (Kcal/Mol)
 Warning -- explicit consideration of  31 degrees of freedom as
           vibrations may cause significant error
 Vibrational temperatures:     26.19    38.03    54.69    80.65   120.75
          (Kelvin)            134.06   182.15   242.57   252.08   316.33
                              321.86   340.92   361.59   374.34   385.64
                              386.97   426.96   438.65   446.59   456.12
                              495.60   498.13   569.84   576.32   616.69
                              622.38   651.23   666.12   702.20   766.71
                              888.80   955.86  1097.41  1129.47  1150.24
                             1164.32  1250.81  1309.98  1350.28  1379.25
                             1383.63  1393.16  1425.08  1425.20  1474.88
                             1493.79  1517.06  1517.75  1524.74  1580.58
                             1585.74  1635.92  1655.65  1681.05  1772.10
                             1790.25  1814.82  1827.89  1831.93  1838.40
                             1847.01  1872.29  1951.17  1953.18  2006.65
                             2025.53  2037.29  2049.70  2052.17  2055.90
                             2084.45  2095.94  2131.59  2135.67  2166.34
                             2173.64  2184.25  2188.10  2190.95  2192.33
                             2202.99  2205.33  2208.86  2212.93  2221.14
                             2234.68  2441.49  4241.57  4323.05  4365.48
                             4385.48  4392.61  4397.00  4401.39  4411.18
                             4429.86  4436.47  4458.97  4484.52  4484.86
                             4492.21  4496.24  4511.54  4512.50  4518.35
                             4533.12  4534.79  4542.48  4551.95  4951.18
                             5079.13

 Zero-point correction=                           0.349071 (Hartree/Particle)
 Thermal correction to Energy=                    0.368207
 Thermal correction to Enthalpy=                  0.369151
 Thermal correction to Gibbs Free Energy=         0.300809
 Sum of electronic and zero-point Energies=          -1053.312617
 Sum of electronic and thermal Energies=             -1053.293481
 Sum of electronic and thermal Enthalpies=           -1053.292537
 Sum of electronic and thermal Free Energies=        -1053.360879

                     E (Thermal)             CV                S
                      KCal/Mol        Cal/Mol-Kelvin    Cal/Mol-Kelvin
 Total                  231.053             70.917            143.837
 Electronic               0.000              0.000              0.000
 Translational            0.889              2.981             42.279
 Rotational               0.889              2.981             33.014
 Vibrational            229.276             64.955             68.543
 Vibration     1          0.593              1.986              6.821
 Vibration     2          0.593              1.985              6.080
 Vibration     3          0.594              1.982              5.360
 Vibration     4          0.596              1.975              4.591
 Vibration     5          0.601              1.960              3.797
 Vibration     6          0.602              1.954              3.592
 Vibration     7          0.611              1.927              2.997
 Vibration     8          0.625              1.881              2.451
 Vibration     9          0.627              1.873              2.379
 Vibration    10          0.647              1.811              1.960
 Vibration    11          0.649              1.805              1.929
 Vibration    12          0.656              1.784              1.826
 Vibration    13          0.663              1.761              1.721
 Vibration    14          0.668              1.746              1.661
 Vibration    15          0.673              1.732              1.609
 Vibration    16          0.673              1.730              1.603
 Vibration    17          0.690              1.680              1.435
 Vibration    18          0.696              1.664              1.390
 Vibration    19          0.699              1.654              1.360
 Vibration    20          0.704              1.641              1.325
 Vibration    21          0.723              1.587              1.191
 Vibration    22          0.724              1.583              1.183
 Vibration    23          0.763              1.479              0.977
 Vibration    24          0.766              1.469              0.961
 Vibration    25          0.790              1.408              0.863
 Vibration    26          0.793              1.399              0.850
 Vibration    27          0.811              1.355              0.788
 Vibration    28          0.821              1.332              0.757
 Vibration    29          0.844              1.277              0.689
 Vibration    30          0.888              1.177              0.581
 Vibration    31          0.978              0.994              0.420

 Optimization completed.
    -- Stationary point found.
 Normal termination of Gaussian 16 at Thu Dec 10 17:54:49 2020.

 ----------------------------------------------------------------------
 # B3LYP/6-311++G(d,p) empiricaldispersion=gd3bj scf=xqc pop=npa geom=c
 heck
 ----------------------------------------------------------------------

 ---------------------------------------
 CID_106731504_JID_5867_Energie_neutraal
 ---------------------------------------
 Structure from the checkpoint file:  "JID_5867.chk"
 Charge =  0 Multiplicity = 1

 SCF Done:  E(RB3LYP) =  -1053.88651117     A.U. after   14 cycles
 Normal termination of Gaussian 16 at Thu Dec 10 18:01:49 2020.

 ----------------------------------------------------------------------
 # B3LYP/6-311++G(d,p) empiricaldispersion=gd3bj scf=xqc pop=npa geom=c
 heck
 ----------------------------------------------------------------------

 -------------------------------------
 CID_106731504_JID_5867_Energie_kation
 -------------------------------------
 Structure from the checkpoint file:  "JID_5867.chk"
 Charge =  1 Multiplicity = 2

 SCF Done:  E(UB3LYP) =  -1053.59452473     A.U. after   20 cycles
 Normal termination of Gaussian 16 at Thu Dec 10 18:15:00 2020.
 Gaussian 16:  ES64L-G16RevA.03 25-Dec-2016

 ----------------------------------------------------------------------
 # B3LYP/6-311++G(d,p) empiricaldispersion=gd3bj scf=xqc pop=npa geom=c
 heck
 ----------------------------------------------------------------------

 ------------------------------------
 CID_106731504_JID_5867_Energie_anion
 ------------------------------------
 Structure from the checkpoint file:  "JID_5867.chk"
 Charge = -1 Multiplicity = 2

                         Standard orientation:
 ---------------------------------------------------------------------
 Center     Atomic      Atomic             Coordinates (Angstroms)
 Number     Number       Type             X           Y           Z
 ---------------------------------------------------------------------
      1          6           0       -3.802478   -1.869327   -0.188156
      2          6           0       -4.047137   -0.640574    0.688264
      3          6           0       -2.739502    0.139944    0.947226
      4          7           0       -2.205258    0.734737   -0.284255
      5          6           0       -2.241883    2.187707   -0.317775
      6          6           0       -0.958795    0.158569   -0.758948
      7          6           0        0.277198    0.517144    0.099137
      8         16           0        1.723163   -0.370334   -0.546839
      9          8           0        1.471648   -1.811692   -0.342667
     10          8           0        1.979457    0.148748   -1.905861
     11          6           0        3.169018    0.105606    0.521103
     12          6           0        3.395331    1.615144    0.406304
     13          6           0        2.887256   -0.329862    1.961242
     14          6           0        4.351730   -0.675214   -0.069420
     15          7           0       -5.100871    0.172864    0.070137
     16          1           0       -3.425267   -1.564224   -1.171071
     17          1           0       -4.736977   -2.416739   -0.338255
     18          1           0       -3.065840   -2.542411    0.265182
     19          1           0       -4.424915   -0.975137    1.664855
     20          1           0       -2.933866    0.930604    1.686409
     21          1           0       -1.999015   -0.531922    1.404965
     22          1           0       -1.612401    2.676946    0.449390
     23          1           0       -1.911746    2.538751   -1.301671
     24          1           0       -3.270120    2.529997   -0.166756
     25          1           0       -1.060934   -0.928944   -0.784734
     26          1           0       -0.777849    0.492992   -1.785292
     27          1           0        0.498554    1.585793    0.058910
     28          1           0        0.140017    0.210289    1.138883
     29          1           0        2.578121    2.188309    0.856594
     30          1           0        4.315192    1.878383    0.940504
     31          1           0        3.502892    1.916610   -0.638712
     32          1           0        2.639131   -1.393279    2.007437
     33          1           0        3.783480   -0.155486    2.567201
     34          1           0        2.069742    0.243358    2.410899
     35          1           0        4.170668   -1.752282   -0.023976
     36          1           0        4.524844   -0.393312   -1.111320
     37          1           0        5.251973   -0.445363    0.510897
     38          1           0       -5.311646    0.976252    0.662608
     39          1           0       -4.725002    0.551683   -0.800329
 ---------------------------------------------------------------------

 SCF Done:  E(UB3LYP) =  -1053.88079914     A.U. after   26 cycles

 The electronic state is 2-A.
 Alpha  occ. eigenvalues --  -88.94191 -19.01628 -19.01622 -14.22092 -14.20176
 Alpha  occ. eigenvalues --  -10.13513 -10.11709 -10.11299 -10.10959 -10.10252
 Alpha  occ. eigenvalues --  -10.09848 -10.08361 -10.08134 -10.08113 -10.07073
 Alpha  occ. eigenvalues --   -8.00787  -5.97049  -5.96929  -5.96859  -1.00637
 Alpha  occ. eigenvalues --   -0.90363  -0.84411  -0.79503  -0.75023  -0.69723
 Alpha  occ. eigenvalues --   -0.66085  -0.61680  -0.61326  -0.61042  -0.60570
 Alpha  occ. eigenvalues --   -0.55297  -0.51572  -0.47584  -0.46269  -0.42205
 Alpha  occ. eigenvalues --   -0.41241  -0.40214  -0.39284  -0.38816  -0.37260
 Alpha  occ. eigenvalues --   -0.36709  -0.36346  -0.35951  -0.34444  -0.33855
 Alpha  occ. eigenvalues --   -0.32590  -0.31780  -0.31243  -0.30988  -0.30290
 Alpha  occ. eigenvalues --   -0.29612  -0.29132  -0.28778  -0.28321  -0.27560
 Alpha  occ. eigenvalues --   -0.26381  -0.26367  -0.25394  -0.24893  -0.23058
 Alpha  occ. eigenvalues --   -0.22402  -0.20609  -0.19105  -0.16012  -0.12781
 Alpha  occ. eigenvalues --    0.03681
 Alpha virt. eigenvalues --    0.05673   0.06996   0.07358   0.07956   0.08373
 Alpha virt. eigenvalues --    0.08573   0.09700   0.09884   0.10241   0.10481
 Alpha virt. eigenvalues --    0.10973   0.11358   0.11867   0.12184   0.12901

  Beta  occ. eigenvalues --  -88.94189 -19.01623 -19.01617 -14.22083 -14.20157
  Beta  occ. eigenvalues --  -10.13511 -10.11707 -10.11270 -10.10951 -10.10230
  Beta  occ. eigenvalues --  -10.09809 -10.08340 -10.08096 -10.08074 -10.07069
  Beta  occ. eigenvalues --   -8.00784  -5.97048  -5.96928  -5.96851  -1.00622
  Beta  occ. eigenvalues --   -0.90351  -0.84388  -0.79467  -0.75004  -0.69691
  Beta  occ. eigenvalues --   -0.66053  -0.61639  -0.61257  -0.60999  -0.60531
  Beta  occ. eigenvalues --   -0.55254  -0.51540  -0.47533  -0.46213  -0.42163
  Beta  occ. eigenvalues --   -0.41200  -0.40190  -0.39265  -0.38795  -0.37221
  Beta  occ. eigenvalues --   -0.36671  -0.36306  -0.35922  -0.34421  -0.33826
  Beta  occ. eigenvalues --   -0.32558  -0.31747  -0.31203  -0.30948  -0.30259
  Beta  occ. eigenvalues --   -0.29592  -0.29098  -0.28751  -0.28301  -0.27538
  Beta  occ. eigenvalues --   -0.26342  -0.26335  -0.25366  -0.24873  -0.23046
  Beta  occ. eigenvalues --   -0.22388  -0.20602  -0.19083  -0.15983  -0.12732
  Beta virt. eigenvalues --    0.06026   0.06524   0.07383   0.07986   0.08373
  Beta virt. eigenvalues --    0.08724   0.08875   0.10060   0.10157   0.10523
  Beta virt. eigenvalues --    0.10669   0.11168   0.11563   0.12125   0.12421

 Mulliken charges and spin densities:
               1          2
     1  C   -0.286847  -0.166276
     2  C   -0.012290  -0.372748
     3  C   -0.301247  -0.058026
     4  N    0.120412   0.120680
     5  C    0.939807  -1.234386
     6  C    0.386197  -1.128947
     7  C   -1.646320   1.056488
     8  S    1.045388  -0.685388
     9  O   -0.164688   0.008425
    10  O   -0.153188   0.003603
    11  C   -1.263844   1.427011
    12  C    0.784443  -1.384100
    13  C    0.692178  -1.318344
    14  C   -0.296731  -0.140318
    15  N   -0.238933  -0.019419
    16  H    0.165527  -0.015339
    17  H    0.137730   0.033886
    18  H    0.095610   0.033330
    19  H    0.013767   0.155362
    20  H   -0.353357   0.557722
    21  H   -0.002745   0.104149
    22  H   -0.518787   0.659475
    23  H   -0.076606   0.226518
    24  H   -0.169287   0.328209
    25  H    0.185639   0.030277
    26  H    0.171919   0.013299
    27  H    0.557066  -0.328256
    28  H    0.298315  -0.065035
    29  H   -0.466227   0.647252
    30  H   -0.328722   0.503871
    31  H    0.087165   0.099931
    32  H    0.132188   0.048731
    33  H   -0.353782   0.528340
    34  H   -0.537841   0.720253
    35  H    0.089671   0.076809
    36  H    0.120590   0.045427
    37  H   -0.106235   0.270207
    38  H    0.051539   0.181797
    39  H    0.202528   0.035528
 Sum of Mulliken charges =  -1.00000   1.00000

 Dipole moment (field-independent basis, Debye):
    X=             -0.5000    Y=             -3.6268    Z=             -3.2557  Tot=              4.8993
 Quadrupole moment (field-independent basis, Debye-Ang):
   XX=           -192.5542   YY=           -150.0767   ZZ=           -147.8922
   XY=              1.0370   XZ=             -3.2546   YZ=            -10.6391

 Summary of Natural Population Analysis:

                                       Natural Population
                Natural  -----------------------------------------------
    Atom  No    Charge         Core      Valence    Rydberg      Total
 -----------------------------------------------------------------------
      C    1   -0.29062      0.99964     2.28579    0.00518     3.29062
      C    2   -0.01770      0.99962     2.00637    0.01171     3.01770
      C    3   -0.09045      0.99958     2.07818    0.01269     3.09045
      N    4   -0.28959      0.99972     2.77518    0.01469     3.78959
      C    5   -0.17631      0.99964     2.16775    0.00893     3.17631
      C    6   -0.08767      0.99960     2.07630    0.01177     3.08767
      C    7   -0.30167      0.99958     2.29137    0.01072     3.30167
      S    8    1.02223      4.99914     1.88743    0.09120     6.97777
      O    9   -0.47631      0.99991     3.47107    0.00532     4.47631
      O   10   -0.47611      0.99991     3.47087    0.00533     4.47611
      C   11   -0.11601      0.99957     2.09933    0.01711     3.11601
      C   12   -0.29765      0.99960     2.28957    0.00848     3.29765
      C   13   -0.29770      0.99960     2.28960    0.00850     3.29770
      C   14   -0.29853      0.99961     2.29036    0.00857     3.29853
      N   15   -0.42366      0.99977     2.91428    0.00961     3.92366
      H   16    0.09934      0.00000     0.39970    0.00096     0.40066
      H   17    0.10186      0.00000     0.39731    0.00083     0.39814
      H   18    0.09862      0.00000     0.40073    0.00064     0.40138
      H   19    0.08670      0.00000     0.41172    0.00158     0.41330
      H   20    0.09578      0.00000     0.40199    0.00223     0.40422
      H   21    0.09333      0.00000     0.40517    0.00149     0.40667
      H   22    0.08618      0.00000     0.41176    0.00206     0.41382
      H   23    0.09513      0.00000     0.40388    0.00100     0.40487
      H   24    0.09652      0.00000     0.40204    0.00144     0.40348
      H   25    0.10475      0.00000     0.39394    0.00131     0.39525
      H   26    0.10268      0.00000     0.39619    0.00113     0.39732
      H   27    0.11606      0.00000     0.38230    0.00164     0.38394
      H   28    0.11493      0.00000     0.38331    0.00176     0.38507
      H   29    0.10679      0.00000     0.39147    0.00174     0.39321
      H   30    0.10761      0.00000     0.39091    0.00147     0.39239
      H   31    0.11137      0.00000     0.38748    0.00115     0.38863
      H   32    0.11137      0.00000     0.38748    0.00116     0.38863
      H   33    0.10771      0.00000     0.39081    0.00148     0.39229
      H   34    0.10660      0.00000     0.39167    0.00173     0.39340
      H   35    0.11029      0.00000     0.38882    0.00090     0.38971
      H   36    0.11021      0.00000     0.38889    0.00090     0.38979
      H   37    0.10594      0.00000     0.39312    0.00094     0.39406
      H   38    0.17377      0.00000     0.32452    0.00171     0.32623
      H   39    0.17420      0.00000     0.32366    0.00214     0.32580
 =======================================================================
   * Total *    0.00000     18.99448    45.74232    0.26319    65.00000

 Normal termination of Gaussian 16 at Thu Dec 10 18:30:54 2020.
