 Gaussian 16, Revision A.03,

 -----------------------------------------------------------
 # opt freq B3LYP/6-31G(d) empiricaldispersion=gd3bj scf=xqc
 -----------------------------------------------------------

 ------------------------------
 CID_43436345_JID_4961_neutraal
 ------------------------------
 Symbolic Z-matrix:
 Charge =  0 Multiplicity = 1

 SCF Done:  E(RB3LYP) =  -578.879678184     A.U. after   13 cycles
 SCF Done:  E(RB3LYP) =  -578.883891748     A.U. after   11 cycles
 SCF Done:  E(RB3LYP) =  -578.884368335     A.U. after   11 cycles
 SCF Done:  E(RB3LYP) =  -578.884442600     A.U. after   11 cycles
 SCF Done:  E(RB3LYP) =  -578.884506621     A.U. after   10 cycles
 SCF Done:  E(RB3LYP) =  -578.884530968     A.U. after   10 cycles
 SCF Done:  E(RB3LYP) =  -578.884537791     A.U. after   10 cycles
 SCF Done:  E(RB3LYP) =  -578.884541355     A.U. after    9 cycles
 SCF Done:  E(RB3LYP) =  -578.884543559     A.U. after    9 cycles
 SCF Done:  E(RB3LYP) =  -578.884543983     A.U. after    8 cycles
 SCF Done:  E(RB3LYP) =  -578.884544095     A.U. after    7 cycles
 SCF Done:  E(RB3LYP) =  -578.884544131     A.U. after    7 cycles
 SCF Done:  E(RB3LYP) =  -578.884544149     A.U. after    7 cycles
 Optimization completed.
    -- Stationary point found.
 Normal termination of Gaussian 16 at Thu Dec 10 10:59:50 2020.

 --------------------------------------------------------------------
 #N Geom=AllCheck Guess=TCheck SCRF=Check GenChk RB3LYP/6-31G(d) Freq
 --------------------------------------------------------------------

 Structure from the checkpoint file:  "JID_4961.chk"
 ------------------------------
 CID_43436345_JID_4961_neutraal
 ------------------------------
 Charge =  0 Multiplicity = 1

 SCF Done:  E(RB3LYP) =  -578.884544149     A.U. after    1 cycles

  Exact polarizability: 180.522  -9.155 139.334 -12.566 -12.596 101.995
 Approx polarizability: 248.932 -18.195 210.322 -30.450 -28.705 158.699

                      1                      2                      3
                      A                      A                      A
 Frequencies --     25.1917                65.4714                73.9092
 Red. masses --      3.3059                 3.6343                 2.5481
 Frc consts  --      0.0012                 0.0092                 0.0082
 IR Inten    --      0.6455                 0.8619                 0.6881

                      4                      5                      6
                      A                      A                      A
 Frequencies --    108.1648               161.2237               182.1125
 Red. masses --      2.0370                 2.6432                 1.6786
 Frc consts  --      0.0140                 0.0405                 0.0328
 IR Inten    --      0.4005                 0.8695                 2.9809

                      7                      8                      9
                      A                      A                      A
 Frequencies --    186.9869               212.9113               217.8104
 Red. masses --      1.6062                 1.2802                 1.8884
 Frc consts  --      0.0331                 0.0342                 0.0528
 IR Inten    --      1.0447                 0.7626                 1.3352

                     10                     11                     12
                      A                      A                      A
 Frequencies --    232.8003               253.3905               262.5004
 Red. masses --      2.1527                 1.1394                 1.3821
 Frc consts  --      0.0687                 0.0431                 0.0561
 IR Inten    --      2.3318                 0.9189                 0.1313

                     13                     14                     15
                      A                      A                      A
 Frequencies --    296.6544               302.7166               318.2894
 Red. masses --      2.3423                 1.5699                 2.0276
 Frc consts  --      0.1214                 0.0848                 0.1210
 IR Inten    --      4.0535                13.0348                 4.7594

                     16                     17                     18
                      A                      A                      A
 Frequencies --    333.8735               368.6850               410.2104
 Red. masses --      2.1166                 3.4046                 2.8451
 Frc consts  --      0.1390                 0.2727                 0.2821
 IR Inten    --      6.6666                 4.2722                 2.0822

                     19                     20                     21
                      A                      A                      A
 Frequencies --    432.2447               456.0902               494.5356
 Red. masses --      3.4119                 3.1205                 3.3492
 Frc consts  --      0.3756                 0.3825                 0.4826
 IR Inten    --      2.5946                 2.6362                 6.5951

                     22                     23                     24
                      A                      A                      A
 Frequencies --    522.2677               555.9552               568.5220
 Red. masses --      3.0570                 3.6368                 4.1139
 Frc consts  --      0.4913                 0.6623                 0.7834
 IR Inten    --      4.1222                 5.7175                 0.4775

                     25                     26                     27
                      A                      A                      A
 Frequencies --    631.5601               670.7131               709.2708
 Red. masses --      2.3156                 1.8351                 3.3058
 Frc consts  --      0.5442                 0.4864                 0.9798
 IR Inten    --     99.7700               209.3807                15.2217

                     28                     29                     30
                      A                      A                      A
 Frequencies --    747.4175               785.9218               800.0762
 Red. masses --      3.9950                 2.8758                 1.5565
 Frc consts  --      1.3149                 1.0466                 0.5870
 IR Inten    --     36.9390                 1.3034                 1.3644

                     31                     32                     33
                      A                      A                      A
 Frequencies --    828.3214               843.8092               899.0945
 Red. masses --      1.5416                 1.6700                 2.3667
 Frc consts  --      0.6232                 0.7006                 1.1272
 IR Inten    --     32.6145                 0.7326                 1.6955

                     34                     35                     36
                      A                      A                      A
 Frequencies --    918.4135               927.0278               955.9081
 Red. masses --      1.4329                 1.3094                 2.1310
 Frc consts  --      0.7121                 0.6630                 1.1473
 IR Inten    --      7.8432                 0.2557                 3.8684

                     37                     38                     39
                      A                      A                      A
 Frequencies --    985.3403               995.5645              1027.9510
 Red. masses --      1.3354                 1.8051                 1.5711
 Frc consts  --      0.7639                 1.0541                 0.9782
 IR Inten    --      4.7899                11.9635                16.8031

                     40                     41                     42
                      A                      A                      A
 Frequencies --   1046.0079              1073.2285              1100.1644
 Red. masses --      2.6097                 1.4775                 1.5787
 Frc consts  --      1.6823                 1.0027                 1.1258
 IR Inten    --      9.2498                 2.0607                 4.9787

                     43                     44                     45
                      A                      A                      A
 Frequencies --   1111.7548              1141.1722              1152.3928
 Red. masses --      1.8760                 1.9391                 1.6850
 Frc consts  --      1.3662                 1.4878                 1.3184
 IR Inten    --     36.1809                 8.5581                 5.3042

                     46                     47                     48
                      A                      A                      A
 Frequencies --   1172.4037              1177.9773              1193.2908
 Red. masses --      1.5693                 2.1920                 1.2564
 Frc consts  --      1.2709                 1.7921                 1.0540
 IR Inten    --      5.3426                19.6114                15.9517

                     49                     50                     51
                      A                      A                      A
 Frequencies --   1223.1979              1232.7601              1283.6279
 Red. masses --      2.3650                 2.3019                 2.0806
 Frc consts  --      2.0849                 2.0611                 2.0199
 IR Inten    --     30.8568                 1.9260                51.4905

                     52                     53                     54
                      A                      A                      A
 Frequencies --   1309.8437              1325.7561              1327.9423
 Red. masses --      1.3313                 2.5042                 1.7747
 Frc consts  --      1.3458                 2.5933                 1.8439
 IR Inten    --      3.3129                 3.4082                30.3212

                     55                     56                     57
                      A                      A                      A
 Frequencies --   1360.1026              1370.8330              1390.1688
 Red. masses --      1.5701                 2.9690                 1.4301
 Frc consts  --      1.7113                 3.2873                 1.6283
 IR Inten    --      5.0121                 5.5135                 2.1091

                     58                     59                     60
                      A                      A                      A
 Frequencies --   1421.0206              1434.9663              1441.3573
 Red. masses --      1.4058                 1.3003                 1.2491
 Frc consts  --      1.6725                 1.5776                 1.5289
 IR Inten    --      8.0223                13.4748                 1.8171

                     61                     62                     63
                      A                      A                      A
 Frequencies --   1442.2097              1470.4758              1484.4007
 Red. masses --      1.2420                 2.5602                 1.2685
 Frc consts  --      1.5220                 3.2617                 1.6469
 IR Inten    --      2.9315                16.5356                 1.3172

                     64                     65                     66
                      A                      A                      A
 Frequencies --   1513.5047              1514.6064              1517.6909
 Red. masses --      1.0602                 1.0450                 1.0630
 Frc consts  --      1.4309                 1.4125                 1.4426
 IR Inten    --     19.1182                 6.6342                 1.9624

                     67                     68                     69
                      A                      A                      A
 Frequencies --   1527.5007              1529.9764              1531.5385
 Red. masses --      1.0482                 1.0498                 1.2205
 Frc consts  --      1.4410                 1.4478                 1.6867
 IR Inten    --      1.6979                 3.3788                 7.2695

                     70                     71                     72
                      A                      A                      A
 Frequencies --   1538.6859              1543.4392              1548.1170
 Red. masses --      1.0711                 1.0538                 1.0659
 Frc consts  --      1.4941                 1.4791                 1.5051
 IR Inten    --      3.6365                 4.8656                 2.0039

                     73                     74                     75
                      A                      A                      A
 Frequencies --   1558.8202              1634.9688              1673.8122
 Red. masses --      2.3986                 6.1395                 3.1431
 Frc consts  --      3.4341                 9.6695                 5.1883
 IR Inten    --    147.7179                 0.3814                 7.0229

                     76                     77                     78
                      A                      A                      A
 Frequencies --   1698.9713              2960.4177              3015.3729
 Red. masses --      1.3737                 1.0601                 1.0478
 Frc consts  --      2.3362                 5.4741                 5.6133
 IR Inten    --     72.6752                76.3998                48.3159

                     79                     80                     81
                      A                      A                      A
 Frequencies --   3025.3607              3045.1104              3049.5956
 Red. masses --      1.0836                 1.0386                 1.0584
 Frc consts  --      5.8433                 5.6745                 5.7997
 IR Inten    --     25.8038                26.6858                37.2281

                     82                     83                     84
                      A                      A                      A
 Frequencies --   3056.4778              3069.5116              3070.9336
 Red. masses --      1.0361                 1.0913                 1.0740
 Frc consts  --      5.7028                 6.0583                 5.9675
 IR Inten    --     11.4011                23.4138                53.5228

                     85                     86                     87
                      A                      A                      A
 Frequencies --   3086.8652              3110.2677              3118.0694
 Red. masses --      1.1021                 1.1013                 1.1023
 Frc consts  --      6.1871                 6.2770                 6.3144
 IR Inten    --      8.9987                39.2951                49.1968

                     88                     89                     90
                      A                      A                      A
 Frequencies --   3123.3519              3128.1674              3130.1664
 Red. masses --      1.1016                 1.1011                 1.1015
 Frc consts  --      6.3318                 6.3485                 6.3589
 IR Inten    --     37.9271                13.9184                56.1296

                     91                     92                     93
                      A                      A                      A
 Frequencies --   3130.5642              3166.5291              3204.1575
 Red. masses --      1.0980                 1.0886                 1.0900
 Frc consts  --      6.3399                 6.4309                 6.5934
 IR Inten    --     15.8058                27.4480                11.6193

                     94                     95                     96
                      A                      A                      A
 Frequencies --   3207.4395              3541.0677              3637.9072
 Red. masses --      1.0917                 1.0480                 1.0972
 Frc consts  --      6.6171                 7.7423                 8.5556
 IR Inten    --     14.0602                 6.3758                 6.3395

 - Thermochemistry -
 -------------------
 Temperature   298.150 Kelvin.  Pressure   1.00000 Atm.
 Atom     1 has atomic number  6 and mass  12.00000

 Molecular mass:   192.16265 amu.
 Principal axes and moments of inertia in atomic units:
                           1         2         3
     Eigenvalues --  1663.563194330.910495078.45880
           X            0.99996  -0.00309   0.00881
           Y            0.00317   0.99995  -0.00911
           Z           -0.00878   0.00914   0.99992
 This molecule is an asymmetric top.
 Rotational symmetry number  1.
 Warning -- assumption of classical behavior for rotation
           may cause significant error
 Rotational temperatures (Kelvin)      0.05207     0.02000     0.01706
 Rotational constants (GHZ):           1.08486     0.41671     0.35537
 Zero-point vibrational energy     799493.8 (Joules/Mol)
                                  191.08361 (Kcal/Mol)
 Warning -- explicit consideration of  24 degrees of freedom as
           vibrations may cause significant error
 Vibrational temperatures:     36.25    94.20   106.34   155.62   231.96
          (Kelvin)            262.02   269.03   306.33   313.38   334.95
                              364.57   377.68   426.82   435.54   457.95
                              480.37   530.46   590.20   621.90   656.21
                              711.53   751.43   799.90   817.98   908.67
                              965.01  1020.48  1075.37  1130.77  1151.13
                             1191.77  1214.05  1293.60  1321.39  1333.79
                             1375.34  1417.68  1432.40  1478.99  1504.97
                             1544.14  1582.89  1599.57  1641.89  1658.04
                             1686.83  1694.85  1716.88  1759.91  1773.67
                             1846.85  1884.57  1907.47  1910.61  1956.88
                             1972.32  2000.14  2044.53  2064.60  2073.79
                             2075.02  2115.69  2135.72  2177.60  2179.18
                             2183.62  2197.73  2201.29  2203.54  2213.83
                             2220.66  2227.40  2242.79  2352.36  2408.24
                             2444.44  4259.38  4338.45  4352.82  4381.23
                             4387.69  4397.59  4416.34  4418.39  4441.31
                             4474.98  4486.21  4493.81  4500.74  4503.61
                             4504.18  4555.93  4610.07  4614.79  5094.81
                             5234.14

 Zero-point correction=                           0.304511 (Hartree/Particle)
 Thermal correction to Energy=                    0.319932
 Thermal correction to Enthalpy=                  0.320876
 Thermal correction to Gibbs Free Energy=         0.262474
 Sum of electronic and zero-point Energies=           -578.580033
 Sum of electronic and thermal Energies=              -578.564612
 Sum of electronic and thermal Enthalpies=            -578.563668
 Sum of electronic and thermal Free Energies=         -578.622070

                     E (Thermal)             CV                S
                      KCal/Mol        Cal/Mol-Kelvin    Cal/Mol-Kelvin
 Total                  200.760             59.232            122.917
 Electronic               0.000              0.000              0.000
 Translational            0.889              2.981             41.665
 Rotational               0.889              2.981             31.970
 Vibrational            198.983             53.271             49.282
 Vibration     1          0.593              1.985              6.176
 Vibration     2          0.597              1.971              4.285
 Vibration     3          0.599              1.966              4.046
 Vibration     4          0.606              1.943              3.302
 Vibration     5          0.622              1.890              2.535
 Vibration     6          0.630              1.864              2.307
 Vibration     7          0.632              1.858              2.257
 Vibration     8          0.644              1.821              2.019
 Vibration     9          0.646              1.814              1.977
 Vibration    10          0.654              1.791              1.857
 Vibration    11          0.665              1.757              1.707
 Vibration    12          0.670              1.742              1.645
 Vibration    13          0.690              1.680              1.436
 Vibration    14          0.694              1.669              1.402
 Vibration    15          0.705              1.639              1.319
 Vibration    16          0.715              1.608              1.241
 Vibration    17          0.741              1.537              1.085
 Vibration    18          0.774              1.448              0.926
 Vibration    19          0.793              1.400              0.851
 Vibration    20          0.814              1.347              0.778
 Vibration    21          0.850              1.262              0.672
 Vibration    22          0.877              1.201              0.605
 Vibration    23          0.911              1.127              0.532
 Vibration    24          0.925              1.099              0.507

                           ! Non-Optimized Parameters !
 Normal termination of Gaussian 16 at Thu Dec 10 11:09:41 2020.

 ----------------------------------------------------------------------
 # B3LYP/6-311++G(d,p) empiricaldispersion=gd3bj scf=xqc pop=npa geom=c
 heck
 ----------------------------------------------------------------------

 --------------------------------------
 CID_43436345_JID_4961_Energie_neutraal
 --------------------------------------
 Structure from the checkpoint file:  "JID_4961.chk"
 Charge =  0 Multiplicity = 1

 SCF Done:  E(RB3LYP) =  -579.046536076     A.U. after   14 cycles
 Normal termination of Gaussian 16 at Thu Dec 10 11:14:21 2020.

 ----------------------------------------------------------------------
 # B3LYP/6-311++G(d,p) empiricaldispersion=gd3bj scf=xqc pop=npa geom=c
 heck
 ----------------------------------------------------------------------

 ------------------------------------
 CID_43436345_JID_4961_Energie_kation
 ------------------------------------
 Structure from the checkpoint file:  "JID_4961.chk"
 Charge =  1 Multiplicity = 2

 SCF Done:  E(UB3LYP) =  -578.793315115     A.U. after   20 cycles
 Normal termination of Gaussian 16 at Thu Dec 10 11:23:31 2020.
 Gaussian 16:  ES64L-G16RevA.03 25-Dec-2016

 ----------------------------------------------------------------------
 # B3LYP/6-311++G(d,p) empiricaldispersion=gd3bj scf=xqc pop=npa geom=c
 heck
 ----------------------------------------------------------------------

 -----------------------------------
 CID_43436345_JID_4961_Energie_anion
 -----------------------------------
 Structure from the checkpoint file:  "JID_4961.chk"
 Charge = -1 Multiplicity = 2

                         Standard orientation:
 ---------------------------------------------------------------------
 Center     Atomic      Atomic             Coordinates (Angstroms)
 Number     Number       Type             X           Y           Z
 ---------------------------------------------------------------------
      1          6           0        3.505411    2.082693    0.631687
      2          6           0        2.302512    1.395603   -0.022025
      3          6           0        2.385123   -0.137910   -0.009449
      4          6           0        2.380157   -0.705678    1.419088
      5          7           0        1.347412   -0.738297   -0.883551
      6          6           0        1.693394   -2.081470   -1.327173
      7          6           0       -0.006714   -0.589844   -0.437608
      8          6           0       -0.713288    0.572823   -0.772694
      9          6           0       -2.028018    0.795467   -0.366599
     10          6           0       -2.688499   -0.202917    0.381158
     11          6           0       -2.001430   -1.381033    0.698327
     12          6           0       -0.678452   -1.567579    0.306457
     13          7           0       -3.996271    0.011539    0.843986
     14          6           0       -2.747790    2.070373   -0.724386
     15          1           0        3.561970    1.877002    1.705808
     16          1           0        3.443979    3.169650    0.509408
     17          1           0        4.447818    1.750307    0.178464
     18          1           0        1.380884    1.715703    0.478785
     19          1           0        2.220656    1.714673   -1.067958
     20          1           0        3.338293   -0.411558   -0.482977
     21          1           0        1.474723   -0.398268    1.953309
     22          1           0        2.412318   -1.800452    1.412097
     23          1           0        3.248430   -0.356764    1.986943
     24          1           0        1.807451   -2.827171   -0.519845
     25          1           0        0.919040   -2.443611   -2.009451
     26          1           0        2.643033   -2.042527   -1.873185
     27          1           0       -0.214379    1.319667   -1.382147
     28          1           0       -2.509073   -2.155173    1.270334
     29          1           0       -0.170394   -2.486483    0.580813
     30          1           0       -4.478729   -0.839268    1.108231
     31          1           0       -4.573878    0.570355    0.227394
     32          1           0       -3.615071    1.887287   -1.376857
     33          1           0       -3.124525    2.580837    0.171537
     34          1           0       -2.084976    2.759925   -1.254450
 ---------------------------------------------------------------------

 SCF Done:  E(UB3LYP) =  -579.033059949     A.U. after   33 cycles
 SCF Done:  E(UB3LYP) =  -579.033059949     a.u. after    1 cycles

 The electronic state is 2-A.
 Alpha  occ. eigenvalues --  -14.21085 -14.20880 -10.10554 -10.10529 -10.09364
 Alpha  occ. eigenvalues --  -10.09147 -10.07459 -10.06867 -10.06802 -10.06790
 Alpha  occ. eigenvalues --  -10.06731 -10.06513 -10.06389 -10.06149  -0.83312
 Alpha  occ. eigenvalues --   -0.81431  -0.73243  -0.69458  -0.66832  -0.63257
 Alpha  occ. eigenvalues --   -0.62440  -0.58463  -0.57607  -0.53977  -0.50503
 Alpha  occ. eigenvalues --   -0.49435  -0.45304  -0.41375  -0.41090  -0.38806
 Alpha  occ. eigenvalues --   -0.38200  -0.35865  -0.35032  -0.33735  -0.32964
 Alpha  occ. eigenvalues --   -0.32325  -0.31569  -0.31210  -0.30562  -0.30079
 Alpha  occ. eigenvalues --   -0.29229  -0.28739  -0.27414  -0.26967  -0.26249
 Alpha  occ. eigenvalues --   -0.24872  -0.24389  -0.23398  -0.22992  -0.20786
 Alpha  occ. eigenvalues --   -0.14577  -0.13130  -0.09410   0.04206
 Alpha virt. eigenvalues --    0.05653   0.06654   0.07491   0.08021   0.08167
 Alpha virt. eigenvalues --    0.08854   0.09419   0.10008   0.10192   0.10401
 Alpha virt. eigenvalues --    0.10749   0.11142   0.11644   0.12167   0.12623

  Beta  occ. eigenvalues --  -14.21026 -14.20878 -10.10549 -10.10522 -10.09350
  Beta  occ. eigenvalues --  -10.09146 -10.07457 -10.06843 -10.06796 -10.06754
  Beta  occ. eigenvalues --  -10.06725 -10.06496 -10.06382 -10.06132  -0.83301
  Beta  occ. eigenvalues --   -0.81364  -0.73209  -0.69437  -0.66806  -0.63222
  Beta  occ. eigenvalues --   -0.62409  -0.58412  -0.57571  -0.53932  -0.50460
  Beta  occ. eigenvalues --   -0.49397  -0.45269  -0.41317  -0.41040  -0.38780
  Beta  occ. eigenvalues --   -0.38172  -0.35838  -0.35000  -0.33705  -0.32925
  Beta  occ. eigenvalues --   -0.32292  -0.31542  -0.31181  -0.30528  -0.30053
  Beta  occ. eigenvalues --   -0.29203  -0.28718  -0.27387  -0.26935  -0.26218
  Beta  occ. eigenvalues --   -0.24853  -0.24365  -0.23376  -0.22967  -0.20751
  Beta  occ. eigenvalues --   -0.14552  -0.13109  -0.09381
  Beta virt. eigenvalues --    0.06026   0.07039   0.07119   0.07895   0.08542
  Beta virt. eigenvalues --    0.08655   0.08954   0.09638   0.10206   0.10320
  Beta virt. eigenvalues --    0.10750   0.11085   0.11438   0.11966   0.12321

 Mulliken charges and spin densities:
               1          2
     1  C    0.460296  -1.250703
     2  C   -0.864789   0.747857
     3  C   -0.444910   0.390129
     4  C    0.203395  -0.813780
     5  N    0.270410   0.022009
     6  C    0.388769  -0.588325
     7  C   -0.276309  -0.339375
     8  C    0.218753  -0.130625
     9  C   -0.333746   1.711369
    10  C   -1.585128   0.175849
    11  C    0.269982  -0.537192
    12  C    0.297064  -0.384459
    13  N   -0.273758  -0.002067
    14  C    2.282789  -2.685886
    15  H    0.030956   0.110468
    16  H   -0.162590   0.300200
    17  H   -0.221113   0.357739
    18  H    0.224046  -0.081097
    19  H    0.004748   0.156396
    20  H    0.104726   0.035390
    21  H    0.082209   0.081768
    22  H   -0.008884   0.136350
    23  H   -0.050891   0.177784
    24  H   -0.092392   0.200433
    25  H    0.108562   0.044341
    26  H   -0.144043   0.273204
    27  H    0.020140   0.115968
    28  H   -0.497378   0.671622
    29  H    0.100282   0.018220
    30  H   -0.301356   0.545398
    31  H   -0.269339   0.520478
    32  H   -0.319175   0.489043
    33  H   -0.110866   0.287857
    34  H   -0.110457   0.243640
 Sum of Mulliken charges =  -1.00000   1.00000

 Dipole moment (field-independent basis, Debye):
    X=              5.3037    Y=             -0.9110    Z=             -0.5874  Tot=              5.4133
 Quadrupole moment (field-independent basis, Debye-Ang):
   XX=           -186.5654   YY=           -129.5246   ZZ=           -120.3460
   XY=             -2.7527   XZ=              2.5314   YZ=              2.3278

 Summary of Natural Population Analysis:

                                       Natural Population
                Natural  -----------------------------------------------
    Atom  No    Charge         Core      Valence    Rydberg      Total
 -----------------------------------------------------------------------
      C    1   -0.28369      0.99967     2.27999    0.00404     3.28369
      C    2   -0.19780      0.99961     2.18798    0.01021     3.19780
      C    3    0.00261      0.99957     1.98489    0.01292     2.99739
      C    4   -0.30187      0.99964     2.29563    0.00660     3.30187
      N    5   -0.28124      0.99969     2.76767    0.01388     3.78124
      C    6   -0.17356      0.99964     2.16703    0.00688     3.17356
      C    7    0.06168      0.99947     1.92524    0.01361     2.93832
      C    8   -0.08508      0.99947     2.07905    0.00656     3.08508
      C    9   -0.03883      0.99950     2.02857    0.01076     3.03883
      C   10    0.08233      0.99944     1.90603    0.01220     2.91767
      C   11   -0.11833      0.99953     2.10849    0.01032     3.11833
      C   12   -0.10994      0.99951     2.10164    0.00878     3.10994
      N   13   -0.39766      0.99972     2.88714    0.01080     3.89766
      C   14   -0.29651      0.99964     2.29012    0.00675     3.29651
      H   15    0.09575      0.00000     0.40311    0.00114     0.40425
      H   16    0.09926      0.00000     0.39984    0.00090     0.40074
      H   17    0.09486      0.00000     0.40387    0.00127     0.40514
      H   18    0.10014      0.00000     0.39852    0.00134     0.39986
      H   19    0.09961      0.00000     0.39879    0.00159     0.40039
      H   20    0.09031      0.00000     0.40822    0.00147     0.40969
      H   21    0.10302      0.00000     0.39599    0.00099     0.39698
      H   22    0.09951      0.00000     0.39960    0.00089     0.40049
      H   23    0.10004      0.00000     0.39907    0.00089     0.39996
      H   24    0.07849      0.00000     0.41972    0.00178     0.42151
      H   25    0.09886      0.00000     0.40010    0.00104     0.40114
      H   26    0.09299      0.00000     0.40587    0.00114     0.40701
      H   27    0.10020      0.00000     0.39774    0.00206     0.39980
      H   28    0.09830      0.00000     0.40022    0.00149     0.40170
      H   29    0.10003      0.00000     0.39807    0.00190     0.39997
      H   30    0.18663      0.00000     0.30843    0.00495     0.31337
      H   31    0.18874      0.00000     0.30682    0.00444     0.31126
      H   32    0.10272      0.00000     0.39565    0.00163     0.39728
      H   33    0.10553      0.00000     0.39330    0.00118     0.39447
      H   34    0.10293      0.00000     0.39603    0.00103     0.39707
 =======================================================================
   * Total *    0.00002     13.99409    38.83847    0.16743    52.99998

 Normal termination of Gaussian 16 at Thu Dec 10 11:38:48 2020.
