 Gaussian 16, Revision A.03,

 -----------------------------------------------------------
 # opt freq B3LYP/6-31G(d) empiricaldispersion=gd3bj scf=xqc
 -----------------------------------------------------------

 -------------------------------
 CID_116550281_JID_4057_neutraal
 -------------------------------
 Symbolic Z-matrix:
 Charge =  0 Multiplicity = 1

 SCF Done:  E(RB3LYP) =  -629.727913352     A.U. after   15 cycles
 SCF Done:  E(RB3LYP) =  -629.729693706     A.U. after   14 cycles
 SCF Done:  E(RB3LYP) =  -629.724382549     A.U. after   14 cycles
 SCF Done:  E(RB3LYP) =  -629.731775550     A.U. after   13 cycles
 SCF Done:  E(RB3LYP) =  -629.731186987     A.U. after   13 cycles
 SCF Done:  E(RB3LYP) =  -629.732033003     A.U. after   12 cycles
 SCF Done:  E(RB3LYP) =  -629.732038650     A.U. after   13 cycles
 SCF Done:  E(RB3LYP) =  -629.732238568     A.U. after   12 cycles
 SCF Done:  E(RB3LYP) =  -629.732252086     A.U. after   11 cycles
 SCF Done:  E(RB3LYP) =  -629.732252965     A.U. after   12 cycles
 SCF Done:  E(RB3LYP) =  -629.732258791     A.U. after   10 cycles
 SCF Done:  E(RB3LYP) =  -629.732259606     A.U. after   10 cycles
 SCF Done:  E(RB3LYP) =  -629.732260334     A.U. after   10 cycles
 SCF Done:  E(RB3LYP) =  -629.732260780     A.U. after    8 cycles
 SCF Done:  E(RB3LYP) =  -629.732260918     A.U. after    8 cycles
 Optimization completed.
    -- Stationary point found.
 Normal termination of Gaussian 16 at Thu Dec 10 09:15:49 2020.

 --------------------------------------------------------------------
 #N Geom=AllCheck Guess=TCheck SCRF=Check GenChk RB3LYP/6-31G(d) Freq
 --------------------------------------------------------------------

 Structure from the checkpoint file:  "JID_4057.chk"
 -------------------------------
 CID_116550281_JID_4057_neutraal
 -------------------------------
 Charge =  0 Multiplicity = 1

 SCF Done:  E(RB3LYP) =  -629.732260918     A.U. after    1 cycles

  Exact polarizability: 172.439 -18.274 102.661 -16.777  -8.634  76.397
 Approx polarizability: 252.166 -40.250 181.145 -36.818 -18.129 125.128

                      1                      2                      3
                      A                      A                      A
 Frequencies --     23.7920                57.6155                97.4981
 Red. masses --      6.2352                 6.0042                 5.2390
 Frc consts  --      0.0021                 0.0117                 0.0293
 IR Inten    --      1.6297                 1.7873                 2.2091

                      4                      5                      6
                      A                      A                      A
 Frequencies --    138.0394               174.6495               227.5411
 Red. masses --      4.3177                 4.1047                 4.3853
 Frc consts  --      0.0485                 0.0738                 0.1338
 IR Inten    --      1.4431                 5.7892                 1.9492

                      7                      8                      9
                      A                      A                      A
 Frequencies --    269.3439               300.8952               339.4357
 Red. masses --      4.5394                 2.6828                 5.1289
 Frc consts  --      0.1940                 0.1431                 0.3482
 IR Inten    --      9.8305                11.0327                 7.9945

                     10                     11                     12
                      A                      A                      A
 Frequencies --    383.2905               409.5124               456.1573
 Red. masses --      4.6323                 6.2230                 2.6558
 Frc consts  --      0.4010                 0.6149                 0.3256
 IR Inten    --      1.4983                 2.9139                24.8896

                     13                     14                     15
                      A                      A                      A
 Frequencies --    499.3788               531.0332               548.2043
 Red. masses --      4.1011                 4.6439                 4.8584
 Frc consts  --      0.6026                 0.7716                 0.8603
 IR Inten    --     15.3961                46.9094                 1.5853

                     16                     17                     18
                      A                      A                      A
 Frequencies --    574.6235               590.5288               621.1415
 Red. masses --      6.5018                 6.4692                 2.6245
 Frc consts  --      1.2649                 1.3292                 0.5966
 IR Inten    --      1.1237                15.1388                53.2003

                     19                     20                     21
                      A                      A                      A
 Frequencies --    634.5588               662.6580               687.5964
 Red. masses --      1.2439                 3.5470                 1.3272
 Frc consts  --      0.2951                 0.9177                 0.3697
 IR Inten    --     48.5272                 3.9884                33.2420

                     22                     23                     24
                      A                      A                      A
 Frequencies --    733.0480               743.8884               759.6423
 Red. masses --      4.4546                 5.5919                 2.2915
 Frc consts  --      1.4103                 1.8232                 0.7791
 IR Inten    --      6.6227                 0.4172                25.1733

                     25                     26                     27
                      A                      A                      A
 Frequencies --    765.8823               853.9882               862.4519
 Red. masses --      1.7451                 2.7050                 1.7511
 Frc consts  --      0.6031                 1.1623                 0.7674
 IR Inten    --     57.4157                 2.9740                 1.0133

                     28                     29                     30
                      A                      A                      A
 Frequencies --    909.0209               924.9547               931.5734
 Red. masses --      2.8562                 2.0222                 2.1386
 Frc consts  --      1.3905                 1.0193                 1.0935
 IR Inten    --      2.8097                 4.4246                 6.9297

                     31                     32                     33
                      A                      A                      A
 Frequencies --    960.5345              1030.7235              1061.8855
 Red. masses --      1.2182                 2.2687                 2.3620
 Frc consts  --      0.6622                 1.4201                 1.5692
 IR Inten    --      0.0727                20.9580                15.1143

                     34                     35                     36
                      A                      A                      A
 Frequencies --   1071.3707              1097.0509              1136.7583
 Red. masses --      4.2496                 3.1400                 2.0439
 Frc consts  --      2.8739                 2.2266                 1.5562
 IR Inten    --    146.0278               144.4115                 6.6304

                     37                     38                     39
                      A                      A                      A
 Frequencies --   1174.6075              1187.5887              1246.8616
 Red. masses --      1.9564                 1.1112                 3.4915
 Frc consts  --      1.5904                 0.9234                 3.1982
 IR Inten    --      4.9852                 1.5099                73.8267

                     40                     41                     42
                      A                      A                      A
 Frequencies --   1264.9878              1279.2264              1314.7782
 Red. masses --      1.4845                 1.5336                 2.4925
 Frc consts  --      1.3996                 1.4786                 2.5385
 IR Inten    --     13.6496                36.2879                95.9356

                     43                     44                     45
                      A                      A                      A
 Frequencies --   1320.3709              1370.4680              1398.1279
 Red. masses --      1.5429                 4.8429                 1.3722
 Frc consts  --      1.5848                 5.3591                 1.5804
 IR Inten    --      4.0212                36.6852                 4.4396

                     46                     47                     48
                      A                      A                      A
 Frequencies --   1405.0293              1473.5162              1511.2176
 Red. masses --      1.4444                 1.3992                 1.1960
 Frc consts  --      1.6800                 1.7900                 1.6093
 IR Inten    --      1.1088                36.3513                 3.4331

                     49                     50                     51
                      A                      A                      A
 Frequencies --   1519.6628              1548.4664              1646.5757
 Red. masses --      1.9821                 2.7866                 6.5009
 Frc consts  --      2.6969                 3.9366                10.3846
 IR Inten    --      5.8832               137.2478                22.7593

                     52                     53                     54
                      A                      A                      A
 Frequencies --   1671.1138              1787.1713              2210.8493
 Red. masses --      6.5251                12.6023                 5.9600
 Frc consts  --     10.7362                23.7155                17.1637
 IR Inten    --      2.8964               132.8511                64.3994

                     55                     56                     57
                      A                      A                      A
 Frequencies --   3062.8810              3077.4480              3138.0555
 Red. masses --      1.0687                 1.0837                 1.0995
 Frc consts  --      5.9071                 6.0472                 6.3791
 IR Inten    --     23.7237                40.9718                17.1362

                     58                     59                     60
                      A                      A                      A
 Frequencies --   3184.7515              3195.8612              3208.7146
 Red. masses --      1.0862                 1.0890                 1.0932
 Frc consts  --      6.4910                 6.5529                 6.6315
 IR Inten    --      3.1022                11.6372                25.7635

                     61                     62                     63
                      A                      A                      A
 Frequencies --   3219.1746              3486.4771              3544.3877
 Red. masses --      1.0963                 1.1599                 1.0756
 Frc consts  --      6.6937                 8.3067                 7.9610
 IR Inten    --     13.8473                55.1234                 5.1135

 - Thermochemistry -
 -------------------
 Temperature   298.150 Kelvin.  Pressure   1.00000 Atm.
 Atom     1 has atomic number  6 and mass  12.00000

 Molecular mass:   187.06333 amu.
 Principal axes and moments of inertia in atomic units:
                           1         2         3
     Eigenvalues --  1093.112423812.399234071.08474
           X            0.99986  -0.01201  -0.01165
           Y            0.01154   0.99915  -0.03957
           Z            0.01212   0.03943   0.99915
 This molecule is an asymmetric top.
 Rotational symmetry number  1.
 Warning -- assumption of classical behavior for rotation
           may cause significant error
 Rotational temperatures (Kelvin)      0.07924     0.02272     0.02128
 Rotational constants (GHZ):           1.65101     0.47339     0.44331
 Zero-point vibrational energy     463664.4 (Joules/Mol)
                                  110.81846 (Kcal/Mol)
 Warning -- explicit consideration of  17 degrees of freedom as
           vibrations may cause significant error
 Vibrational temperatures:     34.23    82.90   140.28   198.61   251.28
          (Kelvin)            327.38   387.53   432.92   488.37   551.47
                              589.20   656.31   718.49   764.04   788.74
                              826.76   849.64   893.68   912.99   953.42
                              989.30  1054.69  1070.29  1092.96  1101.93
                             1228.70  1240.88  1307.88  1330.80  1340.33
                             1381.99  1482.98  1527.82  1541.46  1578.41
                             1635.54  1690.00  1708.68  1793.96  1820.04
                             1840.52  1891.67  1899.72  1971.80  2011.59
                             2021.52  2120.06  2174.31  2186.46  2227.90
                             2369.06  2404.36  2571.34  3180.92  4406.80
                             4427.76  4514.96  4582.15  4598.13  4616.62
                             4631.67  5016.26  5099.58

 Zero-point correction=                           0.176600 (Hartree/Particle)
 Thermal correction to Energy=                    0.188274
 Thermal correction to Enthalpy=                  0.189218
 Thermal correction to Gibbs Free Energy=         0.137924
 Sum of electronic and zero-point Energies=           -629.555660
 Sum of electronic and thermal Energies=              -629.543987
 Sum of electronic and thermal Enthalpies=            -629.543043
 Sum of electronic and thermal Free Energies=         -629.594337

                     E (Thermal)             CV                S
                      KCal/Mol        Cal/Mol-Kelvin    Cal/Mol-Kelvin
 Total                  118.144             45.520            107.958
 Electronic               0.000              0.000              0.000
 Translational            0.889              2.981             41.585
 Rotational               0.889              2.981             31.207
 Vibrational            116.366             39.559             35.166
 Vibration     1          0.593              1.985              6.290
 Vibration     2          0.596              1.974              4.537
 Vibration     3          0.603              1.951              3.504
 Vibration     4          0.614              1.915              2.831
 Vibration     5          0.627              1.874              2.385
 Vibration     6          0.651              1.799              1.898
 Vibration     7          0.674              1.730              1.600
 Vibration     8          0.693              1.672              1.412
 Vibration     9          0.719              1.597              1.215
 Vibration    10          0.752              1.506              1.026
 Vibration    11          0.774              1.450              0.928
 Vibration    12          0.814              1.347              0.777
 Vibration    13          0.855              1.251              0.660
 Vibration    14          0.886              1.181              0.585
 Vibration    15          0.903              1.144              0.548
 Vibration    16          0.931              1.086              0.495
 Vibration    17          0.948              1.052              0.466

 Optimization completed.
    -- Stationary point found.
 Normal termination of Gaussian 16 at Thu Dec 10 09:21:56 2020.

 ----------------------------------------------------------------------
 # B3LYP/6-311++G(d,p) empiricaldispersion=gd3bj scf=xqc pop=npa geom=c
 heck
 ----------------------------------------------------------------------

 ---------------------------------------
 CID_116550281_JID_4057_Energie_neutraal
 ---------------------------------------
 Structure from the checkpoint file:  "JID_4057.chk"
 Charge =  0 Multiplicity = 1

 SCF Done:  E(RB3LYP) =  -629.909415920     A.U. after   16 cycles
 Normal termination of Gaussian 16 at Thu Dec 10 09:24:03 2020.

 ----------------------------------------------------------------------
 # B3LYP/6-311++G(d,p) empiricaldispersion=gd3bj scf=xqc pop=npa geom=c
 heck
 ----------------------------------------------------------------------

 -------------------------------------
 CID_116550281_JID_4057_Energie_kation
 -------------------------------------
 Structure from the checkpoint file:  "JID_4057.chk"
 Charge =  1 Multiplicity = 2

 SCF Done:  E(UB3LYP) =  -629.627336611     A.U. after   26 cycles
 Normal termination of Gaussian 16 at Thu Dec 10 09:29:04 2020.
 Gaussian 16:  ES64L-G16RevA.03 25-Dec-2016

 ----------------------------------------------------------------------
 # B3LYP/6-311++G(d,p) empiricaldispersion=gd3bj scf=xqc pop=npa geom=c
 heck
 ----------------------------------------------------------------------

 ------------------------------------
 CID_116550281_JID_4057_Energie_anion
 ------------------------------------
 Structure from the checkpoint file:  "JID_4057.chk"
 Charge = -1 Multiplicity = 2

                         Standard orientation:
 ---------------------------------------------------------------------
 Center     Atomic      Atomic             Coordinates (Angstroms)
 Number     Number       Type             X           Y           Z
 ---------------------------------------------------------------------
      1          6           0       -4.382900    0.223618   -0.644947
      2          6           0       -3.245141   -0.178104   -0.561135
      3          6           0       -1.873288   -0.645830   -0.413585
      4          8           0       -1.272442   -1.188792   -1.318387
      5          6           0       -1.254507   -0.356914    0.957127
      6          6           0       -1.045713    1.161707    1.148560
      7          7           0       -0.051001    1.680699    0.229785
      8          6           0        1.070504    0.838149    0.029848
      9          6           0        2.215288    1.314704   -0.619091
     10          6           0        3.333660    0.502977   -0.781750
     11          6           0        3.329711   -0.798641   -0.271295
     12          6           0        2.196571   -1.289736    0.370363
     13          6           0        1.066859   -0.484226    0.502605
     14          8           0       -0.032447   -1.043300    1.124214
     15          1           0       -5.388673    0.566892   -0.746229
     16          1           0       -1.932422   -0.742233    1.727632
     17          1           0       -1.986029    1.702550    1.020192
     18          1           0       -0.702919    1.314067    2.178741
     19          1           0       -0.441843    2.032701   -0.637679
     20          1           0        2.214085    2.339847   -0.980150
     21          1           0        4.211575    0.889772   -1.290379
     22          1           0        4.203860   -1.433498   -0.379971
     23          1           0        2.152209   -2.304478    0.752535
 ---------------------------------------------------------------------

 SCF Done:  E(UB3LYP) =  -629.926919100     A.U. after   31 cycles

 The electronic state is 2-A.
 Alpha  occ. eigenvalues --  -19.02393 -18.90672 -14.20204 -10.11309 -10.09308
 Alpha  occ. eigenvalues --  -10.08963 -10.07780 -10.06270 -10.06221 -10.06145
 Alpha  occ. eigenvalues --  -10.05802 -10.05585 -10.00808 -10.00029  -0.94488
 Alpha  occ. eigenvalues --   -0.85254  -0.81183  -0.73685  -0.65193  -0.63560
 Alpha  occ. eigenvalues --   -0.60341  -0.57982  -0.53934  -0.50519  -0.48652
 Alpha  occ. eigenvalues --   -0.44033  -0.41541  -0.39508  -0.38456  -0.36329
 Alpha  occ. eigenvalues --   -0.34508  -0.34016  -0.32826  -0.31176  -0.30454
 Alpha  occ. eigenvalues --   -0.28647  -0.27489  -0.25805  -0.25388  -0.24502
 Alpha  occ. eigenvalues --   -0.22582  -0.21151  -0.20345  -0.16656  -0.13321
 Alpha  occ. eigenvalues --   -0.13132  -0.11768  -0.09406  -0.07576   0.04993
 Alpha virt. eigenvalues --    0.07806   0.09037   0.09328   0.09646   0.10094
 Alpha virt. eigenvalues --    0.10898   0.11542   0.11880   0.12546   0.13360
 Alpha virt. eigenvalues --    0.14324   0.15423   0.16159   0.16749   0.17435

  Beta  occ. eigenvalues --  -19.02394 -18.89857 -14.20204 -10.11306 -10.09308
  Beta  occ. eigenvalues --  -10.09013 -10.07716 -10.06269 -10.06221 -10.06144
  Beta  occ. eigenvalues --  -10.05803 -10.05109 -10.00837  -9.99681  -0.94467
  Beta  occ. eigenvalues --   -0.83810  -0.81170  -0.73670  -0.65048  -0.63553
  Beta  occ. eigenvalues --   -0.59856  -0.57790  -0.53815  -0.50494  -0.47832
  Beta  occ. eigenvalues --   -0.43722  -0.41493  -0.39252  -0.38325  -0.35990
  Beta  occ. eigenvalues --   -0.34403  -0.33832  -0.32775  -0.30980  -0.30354
  Beta  occ. eigenvalues --   -0.28466  -0.27323  -0.25581  -0.25179  -0.24037
  Beta  occ. eigenvalues --   -0.21959  -0.20265  -0.18426  -0.16453  -0.13021
  Beta  occ. eigenvalues --   -0.11664  -0.10909  -0.09281  -0.06976
  Beta virt. eigenvalues --    0.07787   0.08994   0.09271   0.09638   0.10077
  Beta virt. eigenvalues --    0.10817   0.11561   0.11746   0.12493   0.12887
  Beta virt. eigenvalues --    0.13785   0.14192   0.15404   0.16188   0.16808

 Mulliken charges and spin densities:
               1          2
     1  C   -1.008508   0.419968
     2  C    1.053381  -0.104332
     3  C   -0.836067   0.277922
     4  O   -0.358021   0.277101
     5  C    0.465917   0.216333
     6  C   -0.309680  -0.418682
     7  N   -0.097311  -0.018699
     8  C    0.609469   0.070267
     9  C   -0.564152   0.002637
    10  C   -0.321875   0.001546
    11  C   -0.364938   0.008113
    12  C   -0.376679   0.019144
    13  C    0.109000  -0.084171
    14  O   -0.134135  -0.003267
    15  H    0.115285  -0.014667
    16  H    0.062898   0.167957
    17  H    0.235506  -0.049907
    18  H   -0.068814   0.227104
    19  H    0.255463   0.002854
    20  H    0.134333  -0.000362
    21  H    0.121024  -0.000089
    22  H    0.123856  -0.000140
    23  H    0.154050   0.003371
 Sum of Mulliken charges =  -1.00000   1.00000

 Dipole moment (field-independent basis, Debye):
    X=              6.1972    Y=              2.9573    Z=              2.0723  Tot=              7.1725
 Quadrupole moment (field-independent basis, Debye-Ang):
   XX=           -120.0685   YY=            -92.8844   ZZ=            -98.7483
   XY=             -6.8621   XZ=             -8.0247   YZ=             -6.9734

 Summary of Natural Population Analysis:

                                       Natural Population
                Natural  -----------------------------------------------
    Atom  No    Charge         Core      Valence    Rydberg      Total
 -----------------------------------------------------------------------
      C    1   -0.06767      0.99931     2.06352    0.00485     3.06767
      C    2   -0.05495      0.99933     2.04568    0.00995     3.05495
      C    3    0.26836      0.99957     1.70884    0.02324     2.73164
      O    4   -0.19593      0.99988     3.19005    0.00601     4.19593
      C    5    0.02722      0.99952     1.95871    0.01454     2.97278
      C    6   -0.09507      0.99962     2.08244    0.01301     3.09507
      N    7   -0.32633      0.99970     2.81575    0.01088     3.82633
      C    8    0.05371      0.99944     1.93502    0.01184     2.94629
      C    9   -0.10856      0.99954     2.10075    0.00827     3.10856
      C   10   -0.12014      0.99958     2.11150    0.00906     3.12014
      C   11   -0.11422      0.99958     2.10587    0.00877     3.11422
      C   12   -0.11509      0.99953     2.10714    0.00842     3.11509
      C   13    0.15174      0.99933     1.83343    0.01550     2.84826
      O   14   -0.27216      0.99986     3.26272    0.00959     4.27216
      H   15    0.09631      0.00000     0.40269    0.00100     0.40369
      H   16    0.09975      0.00000     0.39872    0.00154     0.40025
      H   17    0.10763      0.00000     0.39160    0.00077     0.39237
      H   18    0.08917      0.00000     0.40922    0.00161     0.41083
      H   19    0.18836      0.00000     0.31011    0.00152     0.31164
      H   20    0.09682      0.00000     0.40177    0.00142     0.40318
      H   21    0.09385      0.00000     0.40520    0.00095     0.40615
      H   22    0.09416      0.00000     0.40491    0.00093     0.40584
      H   23    0.10305      0.00000     0.39559    0.00136     0.39695
 =======================================================================
   * Total *   -0.00000     13.99376    34.84122    0.16502    49.00000

 Normal termination of Gaussian 16 at Thu Dec 10 09:34:56 2020.
