 Gaussian 16, Revision A.03,

 -----------------------------------------------------------
 # opt freq B3LYP/6-31G(d) empiricaldispersion=gd3bj scf=xqc
 -----------------------------------------------------------

 ------------------------------
 CID_13456263_JID_4045_neutraal
 ------------------------------
 Symbolic Z-matrix:
 Charge =  0 Multiplicity = 1

 SCF Done:  E(RB3LYP) =  -613.600969080     A.U. after   15 cycles
 SCF Done:  E(RB3LYP) =  -613.602128517     A.U. after   13 cycles
 SCF Done:  E(RB3LYP) =  -613.601329724     A.U. after   13 cycles
 SCF Done:  E(RB3LYP) =  -613.603772856     A.U. after   12 cycles
 SCF Done:  E(RB3LYP) =  -613.604324357     A.U. after   12 cycles
 SCF Done:  E(RB3LYP) =  -613.604766265     A.U. after   11 cycles
 SCF Done:  E(RB3LYP) =  -613.604922847     A.U. after   14 cycles
 SCF Done:  E(RB3LYP) =  -613.605422623     A.U. after   12 cycles
 SCF Done:  E(RB3LYP) =  -613.605564918     A.U. after   12 cycles
 SCF Done:  E(RB3LYP) =  -613.605698277     A.U. after   12 cycles
 SCF Done:  E(RB3LYP) =  -613.605806176     A.U. after    9 cycles
 SCF Done:  E(RB3LYP) =  -613.605808498     A.U. after    9 cycles
 SCF Done:  E(RB3LYP) =  -613.605810116     A.U. after    9 cycles
 SCF Done:  E(RB3LYP) =  -613.605810705     A.U. after    8 cycles
 SCF Done:  E(RB3LYP) =  -613.605810782     A.U. after    7 cycles
 Optimization completed.
    -- Stationary point found.
 Normal termination of Gaussian 16 at Thu Dec 10 09:22:18 2020.

 --------------------------------------------------------------------
 #N Geom=AllCheck Guess=TCheck SCRF=Check GenChk RB3LYP/6-31G(d) Freq
 --------------------------------------------------------------------

 Structure from the checkpoint file:  "JID_4045.chk"
 ------------------------------
 CID_13456263_JID_4045_neutraal
 ------------------------------
 Charge =  0 Multiplicity = 1

 SCF Done:  E(RB3LYP) =  -613.605810782     A.U. after    1 cycles

  Exact polarizability: 152.673   9.291 127.859  10.202  -8.228  99.632
 Approx polarizability: 206.750  16.113 209.441  26.496 -16.869 160.626

                      1                      2                      3
                      A                      A                      A
 Frequencies --     25.0470                42.8316                56.0235
 Red. masses --      2.9224                 3.1557                 1.1985
 Frc consts  --      0.0011                 0.0034                 0.0022
 IR Inten    --      0.2650                 0.4524                 0.2643

                      4                      5                      6
                      A                      A                      A
 Frequencies --     72.0724               103.5339               150.6382
 Red. masses --      4.1407                 3.5129                 4.3509
 Frc consts  --      0.0127                 0.0222                 0.0582
 IR Inten    --      0.4875                 3.1000                 1.1676

                      7                      8                      9
                      A                      A                      A
 Frequencies --    208.4824               216.6021               247.0629
 Red. masses --      2.8442                 2.8013                 1.1777
 Frc consts  --      0.0728                 0.0774                 0.0424
 IR Inten    --      0.9615                 0.8362                 0.2969

                     10                     11                     12
                      A                      A                      A
 Frequencies --    269.4225               292.0283               300.0514
 Red. masses --      2.0044                 1.1542                 1.3623
 Frc consts  --      0.0857                 0.0580                 0.0723
 IR Inten    --      0.7197                 0.3232                 1.3829

                     13                     14                     15
                      A                      A                      A
 Frequencies --    334.2588               352.5336               365.6905
 Red. masses --      3.2992                 2.2771                 2.8696
 Frc consts  --      0.2172                 0.1667                 0.2261
 IR Inten    --      1.6639                 3.7204                 4.4841

                     16                     17                     18
                      A                      A                      A
 Frequencies --    385.2181               397.0839               463.4692
 Red. masses --      2.4547                 3.5835                 2.7943
 Frc consts  --      0.2146                 0.3329                 0.3536
 IR Inten    --      1.2164                 2.5814                 4.3266

                     19                     20                     21
                      A                      A                      A
 Frequencies --    469.4110               513.6142               544.8854
 Red. masses --      3.6180                 3.6043                 4.5776
 Frc consts  --      0.4697                 0.5602                 0.8008
 IR Inten    --      0.2767                 1.1427                 1.0159

                     22                     23                     24
                      A                      A                      A
 Frequencies --    581.0051               607.5787               685.0235
 Red. masses --      2.7529                 3.3062                 3.4172
 Frc consts  --      0.5475                 0.7191                 0.9448
 IR Inten    --     24.7405                14.1985                15.2416

                     25                     26                     27
                      A                      A                      A
 Frequencies --    712.8640               744.7430               792.2635
 Red. masses --      4.8269                 2.2707                 3.7272
 Frc consts  --      1.4452                 0.7420                 1.3784
 IR Inten    --     19.5436                21.0423                39.2869

                     28                     29                     30
                      A                      A                      A
 Frequencies --    806.4240               908.3189               916.4622
 Red. masses --      2.9663                 1.5651                 3.7009
 Frc consts  --      1.1366                 0.7608                 1.8314
 IR Inten    --      2.2474                 9.9645                 6.5174

                     31                     32                     33
                      A                      A                      A
 Frequencies --    936.2707               941.2581               963.2374
 Red. masses --      1.7149                 1.8116                 1.3493
 Frc consts  --      0.8857                 0.9457                 0.7376
 IR Inten    --      0.0254                 3.3400                 2.1511

                     34                     35                     36
                      A                      A                      A
 Frequencies --    976.5686               979.3026              1001.6856
 Red. masses --      1.4124                 1.2015                 2.1046
 Frc consts  --      0.7936                 0.6789                 1.2442
 IR Inten    --      3.5504                 0.2583                 8.6566

                     37                     38                     39
                      A                      A                      A
 Frequencies --   1027.1962              1057.1182              1067.3399
 Red. masses --      1.7443                 3.6381                 1.3963
 Frc consts  --      1.0843                 2.3953                 0.9372
 IR Inten    --      0.9262                14.3266                 2.0706

                     40                     41                     42
                      A                      A                      A
 Frequencies --   1074.6609              1079.4994              1160.8733
 Red. masses --      1.4467                 1.5245                 2.2181
 Frc consts  --      0.9844                 1.0467                 1.7612
 IR Inten    --      0.2288                 5.1359                19.6043

                     43                     44                     45
                      A                      A                      A
 Frequencies --   1198.2002              1244.9943              1265.0388
 Red. masses --      2.2547                 2.2268                 2.4326
 Frc consts  --      1.9072                 2.0336                 2.2937
 IR Inten    --     19.0490                31.3380                71.7135

                     46                     47                     48
                      A                      A                      A
 Frequencies --   1267.0705              1280.3176              1306.9818
 Red. masses --      2.7322                 2.6385                 7.8427
 Frc consts  --      2.5845                 2.5482                 7.8932
 IR Inten    --     16.8588                10.3280                 1.1590

                     49                     50                     51
                      A                      A                      A
 Frequencies --   1363.4223              1396.8091              1427.2389
 Red. masses --      1.3551                 3.6772                 1.2433
 Frc consts  --      1.4841                 4.2271                 1.4922
 IR Inten    --     25.4419               273.4097                 5.1215

                     52                     53                     54
                      A                      A                      A
 Frequencies --   1428.9566              1445.0015              1454.4686
 Red. masses --      1.2420                 1.2577                 1.2452
 Frc consts  --      1.4942                 1.5473                 1.5520
 IR Inten    --      8.2026                 0.8530                21.2069

                     55                     56                     57
                      A                      A                      A
 Frequencies --   1476.6419              1479.6129              1489.2824
 Red. masses --      2.2482                 2.9197                 1.3901
 Frc consts  --      2.8882                 3.7661                 1.8166
 IR Inten    --      8.9223                21.0931                 2.7714

                     58                     59                     60
                      A                      A                      A
 Frequencies --   1508.2115              1515.0143              1519.3448
 Red. masses --      1.0499                 1.0444                 1.0465
 Frc consts  --      1.4070                 1.4124                 1.4233
 IR Inten    --      0.1343                 5.5669                 1.5952

                     61                     62                     63
                      A                      A                      A
 Frequencies --   1522.1212              1529.4634              1535.8825
 Red. masses --      1.0475                 1.1764                 1.0789
 Frc consts  --      1.4298                 1.6214                 1.4994
 IR Inten    --      2.0424                 4.5870                 2.6735

                     64                     65                     66
                      A                      A                      A
 Frequencies --   1538.9611              1553.8946              1627.9432
 Red. masses --      1.0657                 1.0584                 4.8848
 Frc consts  --      1.4871                 1.5058                 7.6274
 IR Inten    --      1.0807                13.0274                28.5027

                     67                     68                     69
                      A                      A                      A
 Frequencies --   1655.0086              1762.2373              3047.6578
 Red. masses --      5.6119                 7.7893                 1.0371
 Frc consts  --      9.0566                14.2520                 5.6756
 IR Inten    --      8.8509               313.8901                25.4918

                     70                     71                     72
                      A                      A                      A
 Frequencies --   3048.7589              3055.8886              3063.1244
 Red. masses --      1.0360                 1.0363                 1.0381
 Frc consts  --      5.6738                 5.7020                 5.7387
 IR Inten    --     18.6163                20.2784                12.6784

                     73                     74                     75
                      A                      A                      A
 Frequencies --   3101.6460              3115.8319              3122.7656
 Red. masses --      1.1012                 1.1029                 1.1025
 Frc consts  --      6.2418                 6.3084                 6.3344
 IR Inten    --     15.8858                15.9493                16.9709

                     76                     77                     78
                      A                      A                      A
 Frequencies --   3124.9217              3129.5771              3137.7892
 Red. masses --      1.1024                 1.1012                 1.1013
 Frc consts  --      6.3423                 6.3546                 6.3887
 IR Inten    --     17.7404                12.8802                40.4296

                     79                     80                     81
                      A                      A                      A
 Frequencies --   3142.2773              3157.6300              3162.6433
 Red. masses --      1.1014                 1.0997                 1.0901
 Frc consts  --      6.4076                 6.4602                 6.4240
 IR Inten    --     20.3926                27.4234                33.8764

                     82                     83                     84
                      A                      A                      A
 Frequencies --   3191.0059              3200.0507              3548.4279
 Red. masses --      1.0912                 1.0908                 1.0746
 Frc consts  --      6.5465                 6.5815                 7.9722
 IR Inten    --      8.4676                 4.7904                14.3440

 - Thermochemistry -
 -------------------
 Temperature   298.150 Kelvin.  Pressure   1.00000 Atm.
 Atom     1 has atomic number  6 and mass  12.00000

 Molecular mass:   192.12626 amu.
 Principal axes and moments of inertia in atomic units:
                           1         2         3
     Eigenvalues --  1680.036943853.846484486.58386
           X            0.99984   0.00617  -0.01649
           Y           -0.00687   0.99905  -0.04300
           Z            0.01621   0.04311   0.99894
 This molecule is an asymmetric top.
 Rotational symmetry number  1.
 Warning -- assumption of classical behavior for rotation
           may cause significant error
 Rotational temperatures (Kelvin)      0.05155     0.02247     0.01931
 Rotational constants (GHZ):           1.07423     0.46830     0.40225
 Zero-point vibrational energy     675721.2 (Joules/Mol)
                                  161.50125 (Kcal/Mol)
 Warning -- explicit consideration of  23 degrees of freedom as
           vibrations may cause significant error
 Vibrational temperatures:     36.04    61.63    80.61   103.70   148.96
          (Kelvin)            216.73   299.96   311.64   355.47   387.64
                              420.16   431.71   480.92   507.22   526.15
                              554.24   571.32   666.83   675.38   738.98
                              783.97   835.94   874.17   985.60  1025.65
                             1071.52  1139.89  1160.26  1306.87  1318.58
                             1347.08  1354.26  1385.88  1405.06  1409.00
                             1441.20  1477.91  1520.96  1535.66  1546.20
                             1553.16  1670.24  1723.94  1791.27  1820.11
                             1823.03  1842.09  1880.46  1961.66  2009.70
                             2053.48  2055.95  2079.03  2092.66  2124.56
                             2128.83  2142.75  2169.98  2179.77  2186.00
                             2189.99  2200.56  2209.79  2214.22  2235.71
                             2342.25  2381.19  2535.47  4384.90  4386.48
                             4396.74  4407.15  4462.58  4482.99  4492.96
                             4496.07  4502.76  4514.58  4521.04  4543.13
                             4550.34  4591.15  4604.16  5105.40

 Zero-point correction=                           0.257369 (Hartree/Particle)
 Thermal correction to Energy=                    0.271936
 Thermal correction to Enthalpy=                  0.272880
 Thermal correction to Gibbs Free Energy=         0.214982
 Sum of electronic and zero-point Energies=           -613.348442
 Sum of electronic and thermal Energies=              -613.333875
 Sum of electronic and thermal Enthalpies=            -613.332930
 Sum of electronic and thermal Free Energies=         -613.390829

                     E (Thermal)             CV                S
                      KCal/Mol        Cal/Mol-Kelvin    Cal/Mol-Kelvin
 Total                  170.643             54.531            121.858
 Electronic               0.000              0.000              0.000
 Translational            0.889              2.981             41.664
 Rotational               0.889              2.981             31.741
 Vibrational            168.865             48.569             48.453
 Vibration     1          0.593              1.985              6.187
 Vibration     2          0.595              1.980              5.124
 Vibration     3          0.596              1.975              4.593
 Vibration     4          0.598              1.967              4.096
 Vibration     5          0.605              1.946              3.387
 Vibration     6          0.618              1.902              2.664
 Vibration     7          0.642              1.828              2.057
 Vibration     8          0.645              1.816              1.987
 Vibration     9          0.661              1.768              1.751
 Vibration    10          0.674              1.729              1.600
 Vibration    11          0.687              1.689              1.462
 Vibration    12          0.693              1.674              1.417
 Vibration    13          0.716              1.607              1.239
 Vibration    14          0.729              1.570              1.155
 Vibration    15          0.739              1.543              1.098
 Vibration    16          0.754              1.502              1.019
 Vibration    17          0.764              1.476              0.973
 Vibration    18          0.821              1.331              0.756
 Vibration    19          0.827              1.318              0.739
 Vibration    20          0.869              1.220              0.625
 Vibration    21          0.900              1.151              0.555
 Vibration    22          0.938              1.072              0.484
 Vibration    23          0.966              1.016              0.437

 Optimization completed.
    -- Stationary point found.
 Normal termination of Gaussian 16 at Thu Dec 10 09:30:30 2020.

 ----------------------------------------------------------------------
 # B3LYP/6-311++G(d,p) empiricaldispersion=gd3bj scf=xqc pop=npa geom=c
 heck
 ----------------------------------------------------------------------

 --------------------------------------
 CID_13456263_JID_4045_Energie_neutraal
 --------------------------------------
 Structure from the checkpoint file:  "JID_4045.chk"
 Charge =  0 Multiplicity = 1

 SCF Done:  E(RB3LYP) =  -613.776546463     A.U. after   16 cycles
 Normal termination of Gaussian 16 at Thu Dec 10 09:34:16 2020.

 ----------------------------------------------------------------------
 # B3LYP/6-311++G(d,p) empiricaldispersion=gd3bj scf=xqc pop=npa geom=c
 heck
 ----------------------------------------------------------------------

 ------------------------------------
 CID_13456263_JID_4045_Energie_kation
 ------------------------------------
 Structure from the checkpoint file:  "JID_4045.chk"
 Charge =  1 Multiplicity = 2

 SCF Done:  E(UB3LYP) =  -613.456351160     A.U. after   31 cycles
 Normal termination of Gaussian 16 at Thu Dec 10 09:44:16 2020.
 Gaussian 16:  ES64L-G16RevA.03 25-Dec-2016

 ----------------------------------------------------------------------
 # B3LYP/6-311++G(d,p) empiricaldispersion=gd3bj scf=xqc pop=npa geom=c
 heck
 ----------------------------------------------------------------------

 -----------------------------------
 CID_13456263_JID_4045_Energie_anion
 -----------------------------------
 Structure from the checkpoint file:  "JID_4045.chk"
 Charge = -1 Multiplicity = 2

                         Standard orientation:
 ---------------------------------------------------------------------
 Center     Atomic      Atomic             Coordinates (Angstroms)
 Number     Number       Type             X           Y           Z
 ---------------------------------------------------------------------
      1          6           0        3.221724    1.964148   -0.708598
      2          6           0        2.494829    0.736236   -0.224919
      3          6           0        1.228145    0.395331   -0.709553
      4          6           0        0.598159   -0.759021   -0.246864
      5          6           0        1.284394   -1.557998    0.677472
      6          7           0        2.480932   -1.242559    1.174922
      7          6           0        3.058175   -0.120104    0.726732
      8          6           0       -0.710625   -1.238128   -0.796165
      9          8           0       -0.791137   -2.356605   -1.293602
     10          7           0       -1.791396   -0.380941   -0.798060
     11          6           0       -2.218937    0.588023    0.253101
     12          6           0       -3.721796    0.801499    0.011397
     13          6           0       -2.002640    0.008199    1.660939
     14          6           0       -1.502004    1.940175    0.117079
     15          1           0        4.158382    2.110423   -0.162221
     16          1           0        3.465362    1.886990   -1.775135
     17          1           0        2.611683    2.866023   -0.579828
     18          1           0        0.741186    1.015861   -1.456315
     19          1           0        0.833380   -2.483639    1.027416
     20          1           0        4.037728    0.110362    1.144520
     21          1           0       -2.573829   -0.862513   -1.231034
     22          1           0       -4.274946   -0.138882    0.120951
     23          1           0       -4.124495    1.514924    0.736265
     24          1           0       -3.901894    1.197265   -0.994480
     25          1           0       -0.940353   -0.146035    1.868958
     26          1           0       -2.397240    0.695308    2.417620
     27          1           0       -2.517764   -0.952580    1.766711
     28          1           0       -0.449286    1.870104    0.396872
     29          1           0       -1.568185    2.308567   -0.911750
     30          1           0       -1.973924    2.674992    0.778510
 ---------------------------------------------------------------------

 SCF Done:  E(UB3LYP) =  -613.771744258     A.U. after   33 cycles
 SCF Done:  E(UB3LYP) =  -613.771744258     a.u. after    1 cycles

 The electronic state is 2-A.
 Alpha  occ. eigenvalues --  -18.96699 -14.21212 -14.17561 -10.14726 -10.12060
 Alpha  occ. eigenvalues --  -10.08017 -10.06993 -10.06826 -10.06730 -10.06399
 Alpha  occ. eigenvalues --  -10.05621 -10.05376 -10.05307 -10.05056  -0.91781
 Alpha  occ. eigenvalues --   -0.81495  -0.80701  -0.69510  -0.68663  -0.65965
 Alpha  occ. eigenvalues --   -0.59431  -0.58872  -0.58478  -0.52997  -0.50060
 Alpha  occ. eigenvalues --   -0.48098  -0.43955  -0.39752  -0.37839  -0.37539
 Alpha  occ. eigenvalues --   -0.36102  -0.34923  -0.32804  -0.32083  -0.31423
 Alpha  occ. eigenvalues --   -0.30246  -0.29816  -0.29149  -0.28625  -0.27643
 Alpha  occ. eigenvalues --   -0.27510  -0.27163  -0.26711  -0.25902  -0.24417
 Alpha  occ. eigenvalues --   -0.23943  -0.23421  -0.16344  -0.15442  -0.14109
 Alpha  occ. eigenvalues --   -0.13281  -0.12519   0.04609
 Alpha virt. eigenvalues --    0.06431   0.07310   0.08476   0.08852   0.09259
 Alpha virt. eigenvalues --    0.09764   0.10106   0.10750   0.11495   0.11594
 Alpha virt. eigenvalues --    0.12091   0.12425   0.12964   0.13812   0.14167

  Beta  occ. eigenvalues --  -18.96596 -14.21203 -14.17378 -10.14643 -10.12058
  Beta  occ. eigenvalues --  -10.08052 -10.06836 -10.06810 -10.06776 -10.06360
  Beta  occ. eigenvalues --  -10.05597 -10.05284 -10.05258 -10.04796  -0.91588
  Beta  occ. eigenvalues --   -0.81183  -0.80627  -0.69255  -0.68598  -0.65699
  Beta  occ. eigenvalues --   -0.59359  -0.58801  -0.58344  -0.52593  -0.49806
  Beta  occ. eigenvalues --   -0.48023  -0.43854  -0.39622  -0.37743  -0.37388
  Beta  occ. eigenvalues --   -0.35902  -0.34876  -0.32746  -0.31998  -0.31307
  Beta  occ. eigenvalues --   -0.30163  -0.29733  -0.29070  -0.28552  -0.27461
  Beta  occ. eigenvalues --   -0.27334  -0.26915  -0.26539  -0.25513  -0.24301
  Beta  occ. eigenvalues --   -0.23794  -0.23304  -0.15406  -0.15026  -0.13790
  Beta  occ. eigenvalues --   -0.12963  -0.12032
  Beta virt. eigenvalues --    0.06885   0.07458   0.08837   0.09049   0.09168
  Beta virt. eigenvalues --    0.09454   0.10027   0.10267   0.11006   0.11708
  Beta virt. eigenvalues --    0.11754   0.12171   0.12455   0.13093   0.14148

 Mulliken charges and spin densities:
               1          2
     1  C   -0.004395  -0.585959
     2  C    0.079848   0.010747
     3  C    0.625538   0.158219
     4  C   -0.034955   0.488975
     5  C   -0.427910   0.021484
     6  N   -0.031434   0.082826
     7  C   -0.518549  -0.055449
     8  C   -0.493176  -0.103264
     9  O   -0.330702   0.039697
    10  N   -0.008847  -0.069538
    11  C   -0.963703   1.234981
    12  C    0.659941  -1.189447
    13  C    0.036736  -0.613725
    14  C    0.215924  -0.848700
    15  H    0.071591   0.054303
    16  H    0.020041   0.137093
    17  H    0.089951   0.052931
    18  H    0.018198   0.168497
    19  H    0.185082   0.012543
    20  H    0.091688   0.021820
    21  H    0.232329   0.066948
    22  H   -0.108410   0.246602
    23  H   -0.221737   0.367824
    24  H   -0.298929   0.460397
    25  H    0.182710   0.014357
    26  H   -0.109431   0.257376
    27  H    0.102518   0.044526
    28  H    0.041140   0.124199
    29  H   -0.051271   0.226793
    30  H   -0.049785   0.172944
 Sum of Mulliken charges =  -1.00000   1.00000

 Dipole moment (field-independent basis, Debye):
    X=              1.3450    Y=              1.4503    Z=              0.6974  Tot=              2.0974
 Quadrupole moment (field-independent basis, Debye-Ang):
   XX=           -136.4768   YY=           -122.0949   ZZ=           -114.1953
   XY=             11.3722   XZ=             -4.1017   YZ=             -3.7214

 Summary of Natural Population Analysis:

                                       Natural Population
                Natural  -----------------------------------------------
    Atom  No    Charge         Core      Valence    Rydberg      Total
 -----------------------------------------------------------------------
      C    1   -0.28836      0.99964     2.28391    0.00480     3.28836
      C    2   -0.05507      0.99951     2.04599    0.00957     3.05507
      C    3   -0.03662      0.99948     2.02779    0.00935     3.03662
      C    4   -0.06643      0.99945     2.05618    0.01080     3.06643
      C    5    0.03049      0.99955     1.95643    0.01352     2.96951
      N    6   -0.21906      0.99971     2.70635    0.01299     3.71906
      C    7    0.05523      0.99953     1.93131    0.01392     2.94477
      C    8    0.35386      0.99962     1.62276    0.02376     2.64614
      O    9   -0.31133      0.99988     3.30620    0.00525     4.31133
      N   10   -0.33153      0.99965     2.82028    0.01161     3.83153
      C   11    0.05616      0.99959     1.93211    0.01214     2.94384
      C   12   -0.28636      0.99962     2.27971    0.00703     3.28636
      C   13   -0.29155      0.99962     2.28561    0.00633     3.29155
      C   14   -0.28817      0.99961     2.28147    0.00710     3.28817
      H   15    0.09863      0.00000     0.40048    0.00090     0.40137
      H   16    0.10096      0.00000     0.39771    0.00133     0.39904
      H   17    0.10029      0.00000     0.39843    0.00128     0.39971
      H   18    0.09870      0.00000     0.39973    0.00157     0.40130
      H   19    0.09016      0.00000     0.40831    0.00153     0.40984
      H   20    0.07953      0.00000     0.41896    0.00152     0.42047
      H   21    0.18848      0.00000     0.30900    0.00252     0.31152
      H   22    0.09790      0.00000     0.40100    0.00110     0.40210
      H   23    0.10403      0.00000     0.39472    0.00124     0.39597
      H   24    0.10351      0.00000     0.39515    0.00134     0.39649
      H   25    0.10916      0.00000     0.38984    0.00100     0.39084
      H   26    0.09984      0.00000     0.39936    0.00079     0.40016
      H   27    0.09956      0.00000     0.39964    0.00080     0.40044
      H   28    0.10742      0.00000     0.39125    0.00133     0.39258
      H   29    0.10245      0.00000     0.39627    0.00128     0.39755
      H   30    0.09813      0.00000     0.40095    0.00091     0.40187
 =======================================================================
   * Total *    0.00000     13.99445    37.83693    0.16862    52.00000

 Normal termination of Gaussian 16 at Thu Dec 10 09:55:22 2020.
