 Gaussian 16, Revision A.03,

 -----------------------------------------------------------
 # opt freq B3LYP/6-31G(d) empiricaldispersion=gd3bj scf=xqc
 -----------------------------------------------------------

 ------------------------------
 CID_20243441_JID_3209_neutraal
 ------------------------------
 Symbolic Z-matrix:
 Charge =  0 Multiplicity = 1

 SCF Done:  E(RB3LYP) =  -584.120483481     A.U. after   12 cycles
 SCF Done:  E(RB3LYP) =  -584.123172645     A.U. after   11 cycles
 SCF Done:  E(RB3LYP) =  -584.123849291     A.U. after   10 cycles
 SCF Done:  E(RB3LYP) =  -584.125245299     A.U. after   11 cycles
 SCF Done:  E(RB3LYP) =  -584.125531946     A.U. after   10 cycles
 SCF Done:  E(RB3LYP) =  -584.125680319     A.U. after   10 cycles
 SCF Done:  E(RB3LYP) =  -584.126022687     A.U. after   10 cycles
 SCF Done:  E(RB3LYP) =  -584.126600898     A.U. after   10 cycles
 SCF Done:  E(RB3LYP) =  -584.126079231     A.U. after   13 cycles
 SCF Done:  E(RB3LYP) =  -584.126918698     A.U. after   11 cycles
 SCF Done:  E(RB3LYP) =  -584.127675009     A.U. after    7 cycles
 SCF Done:  E(RB3LYP) =  -584.127675423     A.U. after    7 cycles
 SCF Done:  E(RB3LYP) =  -584.127675653     A.U. after    6 cycles
 SCF Done:  E(RB3LYP) =  -584.127675865     A.U. after    7 cycles
 SCF Done:  E(RB3LYP) =  -584.127675996     A.U. after    6 cycles
 Optimization completed.
    -- Stationary point found.
 Normal termination of Gaussian 16 at Wed Dec  9 22:52:59 2020.

 --------------------------------------------------------------------
 #N Geom=AllCheck Guess=TCheck SCRF=Check GenChk RB3LYP/6-31G(d) Freq
 --------------------------------------------------------------------

 Structure from the checkpoint file:  "JID_3209.chk"
 ------------------------------
 CID_20243441_JID_3209_neutraal
 ------------------------------
 Charge =  0 Multiplicity = 1

 SCF Done:  E(RB3LYP) =  -584.127675996     A.U. after    1 cycles

  Exact polarizability: 135.505  -1.400 120.703   0.669   0.080 115.640
 Approx polarizability: 172.599  -1.098 166.483   3.027   0.559 160.659

                      1                      2                      3
                      A                      A                      A
 Frequencies --     20.8774                28.0877                39.3306
 Red. masses --      3.5928                 3.7117                 3.4283
 Frc consts  --      0.0009                 0.0017                 0.0031
 IR Inten    --      0.4782                 1.1108                 0.7520

                      4                      5                      6
                      A                      A                      A
 Frequencies --     48.2226                58.0214                74.1704
 Red. masses --      3.2529                 2.9182                 4.6327
 Frc consts  --      0.0045                 0.0058                 0.0150
 IR Inten    --      0.5754                 0.3317                 1.3402

                      7                      8                      9
                      A                      A                      A
 Frequencies --    117.0748               185.2902               212.4150
 Red. masses --      2.9126                 2.8472                 1.2033
 Frc consts  --      0.0235                 0.0576                 0.0320
 IR Inten    --      0.4015                 3.4103                 1.4000

                     10                     11                     12
                      A                      A                      A
 Frequencies --    236.8847               239.6837               248.0391
 Red. masses --      1.6259                 1.5923                 1.1612
 Frc consts  --      0.0538                 0.0539                 0.0421
 IR Inten    --      0.2528                 0.5192                 0.3180

                     13                     14                     15
                      A                      A                      A
 Frequencies --    255.5824               273.1226               284.4836
 Red. masses --      1.5940                 2.3531                 1.9655
 Frc consts  --      0.0613                 0.1034                 0.0937
 IR Inten    --     43.4530                 7.6917                24.0212

                     16                     17                     18
                      A                      A                      A
 Frequencies --    343.9314               373.5299               384.7137
 Red. masses --      2.1870                 3.0181                 1.5526
 Frc consts  --      0.1524                 0.2481                 0.1354
 IR Inten    --      3.0908                 0.2884                 0.3410

                     19                     20                     21
                      A                      A                      A
 Frequencies --    410.3678               433.4242               434.6618
 Red. masses --      2.0687                 2.9870                 3.0129
 Frc consts  --      0.2053                 0.3306                 0.3354
 IR Inten    --      4.2295                 0.0423                 0.0931

                     22                     23                     24
                      A                      A                      A
 Frequencies --    457.1001               527.5863               560.3814
 Red. masses --      2.7784                 1.3203                 2.8084
 Frc consts  --      0.3420                 0.2165                 0.5196
 IR Inten    --      6.0471                 1.0410                18.9590

                     25                     26                     27
                      A                      A                      A
 Frequencies --    608.0285               761.4469               804.5691
 Red. masses --      1.1845                 3.1795                 1.4431
 Frc consts  --      0.2580                 1.0861                 0.5504
 IR Inten    --    140.9727                 8.2052                 0.0790

                     28                     29                     30
                      A                      A                      A
 Frequencies --    805.6282               812.4459               875.7174
 Red. masses --      1.4458                 3.5045                 2.4001
 Frc consts  --      0.5529                 1.3629                 1.0845
 IR Inten    --      0.0886                 0.0517                 1.1869

                     31                     32                     33
                      A                      A                      A
 Frequencies --    876.0529               911.1037               917.9176
 Red. masses --      2.3937                 2.0489                 1.8908
 Frc consts  --      1.0824                 1.0021                 0.9386
 IR Inten    --      1.0101                 2.2859                 5.8143

                     34                     35                     36
                      A                      A                      A
 Frequencies --    930.2336               931.5938               963.3236
 Red. masses --      1.2881                 1.2845                 1.3544
 Frc consts  --      0.6567                 0.6568                 0.7405
 IR Inten    --      2.1311                 4.5181                 0.6747

                     37                     38                     39
                      A                      A                      A
 Frequencies --    967.1264              1031.4320              1046.2081
 Red. masses --      1.3903                 1.9074                 1.7345
 Frc consts  --      0.7662                 1.1956                 1.1186
 IR Inten    --      2.3641                11.6600                 0.7412

                     40                     41                     42
                      A                      A                      A
 Frequencies --   1047.9031              1051.7216              1053.1871
 Red. masses --      1.7424                 1.6192                 2.5383
 Frc consts  --      1.1273                 1.0553                 1.6588
 IR Inten    --      1.1415                 3.0616                 1.8285

                     43                     44                     45
                      A                      A                      A
 Frequencies --   1072.9222              1087.1791              1104.5045
 Red. masses --      2.9600                 1.0129                 4.3155
 Frc consts  --      2.0076                 0.7054                 3.1018
 IR Inten    --     45.2525                 0.8936               153.7173

                     46                     47                     48
                      A                      A                      A
 Frequencies --   1111.9536              1140.1735              1180.8992
 Red. masses --      2.5811                 1.0730                 1.6323
 Frc consts  --      1.8803                 0.8218                 1.3412
 IR Inten    --      0.4660                 0.0254                28.4049

                     49                     50                     51
                      A                      A                      A
 Frequencies --   1198.3857              1218.2632              1237.2007
 Red. masses --      2.2301                 1.3613                 1.4939
 Frc consts  --      1.8870                 1.1904                 1.3472
 IR Inten    --      0.3305                29.2985                 2.4006

                     52                     53                     54
                      A                      A                      A
 Frequencies --   1268.5157              1300.4949              1304.2954
 Red. masses --      1.4997                 1.2930                 1.2563
 Frc consts  --      1.4218                 1.2885                 1.2592
 IR Inten    --     18.1865                 1.8357                 1.1856

                     55                     56                     57
                      A                      A                      A
 Frequencies --   1307.4995              1310.6582              1322.5287
 Red. masses --      1.2381                 1.2852                 1.8190
 Frc consts  --      1.2471                 1.3008                 1.8745
 IR Inten    --      0.0059                 2.5914                 9.0624

                     58                     59                     60
                      A                      A                      A
 Frequencies --   1340.3862              1364.9977              1394.9007
 Red. masses --      1.5647                 1.3054                 1.3324
 Frc consts  --      1.6563                 1.4330                 1.5274
 IR Inten    --      4.9967                 0.0598                 1.5581

                     61                     62                     63
                      A                      A                      A
 Frequencies --   1399.0463              1401.9219              1403.5858
 Red. masses --      1.3590                 1.4623                 1.4456
 Frc consts  --      1.5672                 1.6933                 1.6779
 IR Inten    --      1.8951                 1.6916                 0.8719

                     64                     65                     66
                      A                      A                      A
 Frequencies --   1405.2562              1407.5213              1428.7140
 Red. masses --      1.4301                 1.4407                 1.2544
 Frc consts  --      1.6639                 1.6816                 1.5086
 IR Inten    --      1.6773                 3.5413                 2.2449

                     67                     68                     69
                      A                      A                      A
 Frequencies --   1438.7129              1474.4847              1481.1970
 Red. masses --      1.2786                 1.3484                 1.2076
 Frc consts  --      1.5594                 1.7272                 1.5610
 IR Inten    --      1.8364                10.4010                95.8757

                     70                     71                     72
                      A                      A                      A
 Frequencies --   1512.0957              1513.9220              1515.7608
 Red. masses --      1.0852                 1.0876                 1.0595
 Frc consts  --      1.4619                 1.4687                 1.4342
 IR Inten    --      0.3458                 0.7241                 4.4200

                     73                     74                     75
                      A                      A                      A
 Frequencies --   1517.2894              1519.9956              1525.3659
 Red. masses --      1.0540                 1.0951                 1.0871
 Frc consts  --      1.4296                 1.4907                 1.4903
 IR Inten    --      2.1429                 1.8528                 3.8267

                     76                     77                     78
                      A                      A                      A
 Frequencies --   1526.3373              1530.1007              1534.1338
 Red. masses --      1.0861                 1.0779                 1.0583
 Frc consts  --      1.4908                 1.4869                 1.4675
 IR Inten    --      4.4514                 0.9719                 9.6981

                     79                     80                     81
                      A                      A                      A
 Frequencies --   1541.5591              1545.4985              1550.1686
 Red. masses --      1.0808                 1.0827                 1.0892
 Frc consts  --      1.5133                 1.5237                 1.5421
 IR Inten    --      8.3328                 5.5721                 1.6296

                     82                     83                     84
                      A                      A                      A
 Frequencies --   2961.2320              2999.1353              3014.2381
 Red. masses --      1.0722                 1.0551                 1.0680
 Frc consts  --      5.5397                 5.5917                 5.7170
 IR Inten    --     85.3941                72.7142                17.0906

                     85                     86                     87
                      A                      A                      A
 Frequencies --   3015.6980              3018.4106              3024.4648
 Red. masses --      1.0657                 1.0677                 1.0617
 Frc consts  --      5.7101                 5.7314                 5.7222
 IR Inten    --     21.3365                45.8770                23.7148

                     88                     89                     90
                      A                      A                      A
 Frequencies --   3035.2496              3036.3034              3042.5033
 Red. masses --      1.0635                 1.1081                 1.0364
 Frc consts  --      5.7728                 6.0187                 5.6524
 IR Inten    --     31.9383                50.1501                37.7938

                     91                     92                     93
                      A                      A                      A
 Frequencies --   3045.2383              3051.8420              3061.1449
 Red. masses --      1.0664                 1.0411                 1.0965
 Frc consts  --      5.8264                 5.7128                 6.0539
 IR Inten    --     32.8923                21.5775                92.9566

                     94                     95                     96
                      A                      A                      A
 Frequencies --   3064.3768              3068.4291              3077.0013
 Red. masses --      1.0909                 1.1041                 1.0964
 Frc consts  --      6.0354                 6.1246                 6.1161
 IR Inten    --     56.3748                46.0411                44.3958

                     97                     98                     99
                      A                      A                      A
 Frequencies --   3080.3821              3082.7426              3096.3841
 Red. masses --      1.0907                 1.0993                 1.0999
 Frc consts  --      6.0978                 6.1550                 6.2129
 IR Inten    --     38.9606                38.2924                88.0068

                    100                    101                    102
                      A                      A                      A
 Frequencies --   3105.9300              3109.4889              3118.8131
 Red. masses --      1.1018                 1.1017                 1.1014
 Frc consts  --      6.2625                 6.2764                 6.3120
 IR Inten    --     28.6911                24.6640                42.0621

                    103                    104                    105
                      A                      A                      A
 Frequencies --   3164.9926              3680.1118              3767.1035
 Red. masses --      1.0963                 1.0653                 1.0666
 Frc consts  --      6.4703                 8.5006                 8.9184
 IR Inten    --     12.6689               106.9028                23.4706

 - Thermochemistry -
 -------------------
 Temperature   298.150 Kelvin.  Pressure   1.00000 Atm.
 Atom     1 has atomic number  6 and mass  12.00000

 Molecular mass:   188.17763 amu.
 Principal axes and moments of inertia in atomic units:
                           1         2         3
     Eigenvalues --  1525.925134925.963875016.05138
           X            0.99998  -0.00367   0.00447
           Y            0.00405   0.99597  -0.08963
           Z           -0.00412   0.08964   0.99597
 This molecule is an asymmetric top.
 Rotational symmetry number  1.
 Warning -- assumption of classical behavior for rotation
           may cause significant error
 Rotational temperatures (Kelvin)      0.05676     0.01758     0.01727
 Rotational constants (GHZ):           1.18272     0.36637     0.35979
 Zero-point vibrational energy     901997.9 (Joules/Mol)
                                  215.58266 (Kcal/Mol)
 Warning -- explicit consideration of  25 degrees of freedom as
           vibrations may cause significant error
 Vibrational temperatures:     30.04    40.41    56.59    69.38    83.48
          (Kelvin)            106.71   168.44   266.59   305.62   340.82
                              344.85   356.87   367.73   392.96   409.31
                              494.84   537.43   553.52   590.43   623.60
                              625.38   657.67   759.08   806.26   874.82
                             1095.55  1157.60  1159.12  1168.93  1259.96
                             1260.44  1310.88  1320.68  1338.40  1340.36
                             1386.01  1391.48  1484.00  1505.26  1507.70
                             1513.19  1515.30  1543.70  1564.21  1589.14
                             1599.85  1640.46  1699.05  1724.21  1752.81
                             1780.06  1825.11  1871.12  1876.59  1881.20
                             1885.74  1902.82  1928.52  1963.93  2006.95
                             2012.92  2017.05  2019.45  2021.85  2025.11
                             2055.60  2069.99  2121.45  2131.11  2175.57
                             2178.20  2180.84  2183.04  2186.93  2194.66
                             2196.06  2201.47  2207.28  2217.96  2223.63
                             2230.35  4260.55  4315.09  4336.82  4338.92
                             4342.82  4351.53  4367.05  4368.56  4377.48
                             4381.42  4390.92  4404.30  4408.95  4414.79
                             4427.12  4431.98  4435.38  4455.01  4468.74
                             4473.86  4487.28  4553.72  5294.86  5420.02

 Zero-point correction=                           0.343553 (Hartree/Particle)
 Thermal correction to Energy=                    0.360113
 Thermal correction to Enthalpy=                  0.361057
 Thermal correction to Gibbs Free Energy=         0.297434
 Sum of electronic and zero-point Energies=           -583.784123
 Sum of electronic and thermal Energies=              -583.767563
 Sum of electronic and thermal Enthalpies=            -583.766619
 Sum of electronic and thermal Free Energies=         -583.830242

                     E (Thermal)             CV                S
                      KCal/Mol        Cal/Mol-Kelvin    Cal/Mol-Kelvin
 Total                  225.974             60.659            133.906
 Electronic               0.000              0.000              0.000
 Translational            0.889              2.981             41.603
 Rotational               0.889              2.981             32.000
 Vibrational            224.197             54.697             60.303
 Vibration     1          0.593              1.986              6.549
 Vibration     2          0.593              1.984              5.960
 Vibration     3          0.594              1.981              5.293
 Vibration     4          0.595              1.978              4.889
 Vibration     5          0.596              1.974              4.523
 Vibration     6          0.599              1.966              4.040
 Vibration     7          0.608              1.935              3.148
 Vibration     8          0.631              1.860              2.274
 Vibration     9          0.643              1.822              2.023
 Vibration    10          0.656              1.784              1.826
 Vibration    11          0.657              1.780              1.805
 Vibration    12          0.662              1.766              1.744
 Vibration    13          0.666              1.753              1.692
 Vibration    14          0.676              1.723              1.576
 Vibration    15          0.683              1.702              1.507
 Vibration    16          0.723              1.588              1.194
 Vibration    17          0.745              1.526              1.065
 Vibration    18          0.754              1.503              1.021
 Vibration    19          0.775              1.448              0.925
 Vibration    20          0.794              1.397              0.848
 Vibration    21          0.795              1.395              0.844
 Vibration    22          0.815              1.345              0.775
 Vibration    23          0.883              1.189              0.593
 Vibration    24          0.916              1.117              0.523
 Vibration    25          0.967              1.015              0.436

                           ! Non-Optimized Parameters !
 Normal termination of Gaussian 16 at Wed Dec  9 23:04:28 2020.

 ----------------------------------------------------------------------
 # B3LYP/6-311++G(d,p) empiricaldispersion=gd3bj scf=xqc pop=npa geom=c
 heck
 ----------------------------------------------------------------------

 --------------------------------------
 CID_20243441_JID_3209_Energie_neutraal
 --------------------------------------
 Structure from the checkpoint file:  "JID_3209.chk"
 Charge =  0 Multiplicity = 1

 SCF Done:  E(RB3LYP) =  -584.312802501     A.U. after   13 cycles
 Normal termination of Gaussian 16 at Wed Dec  9 23:10:01 2020.

 ----------------------------------------------------------------------
 # B3LYP/6-311++G(d,p) empiricaldispersion=gd3bj scf=xqc pop=npa geom=c
 heck
 ----------------------------------------------------------------------

 ------------------------------------
 CID_20243441_JID_3209_Energie_kation
 ------------------------------------
 Structure from the checkpoint file:  "JID_3209.chk"
 Charge =  1 Multiplicity = 2

 SCF Done:  E(UB3LYP) =  -583.977034679     A.U. after   33 cycles
 SCF Done:  E(UB3LYP) =  -583.977034681     a.u. after    2 cycles
 Normal termination of Gaussian 16 at Wed Dec  9 23:43:25 2020.
 Gaussian 16:  ES64L-G16RevA.03 25-Dec-2016

 ----------------------------------------------------------------------
 # B3LYP/6-311++G(d,p) empiricaldispersion=gd3bj scf=xqc pop=npa geom=c
 heck
 ----------------------------------------------------------------------

 -----------------------------------
 CID_20243441_JID_3209_Energie_anion
 -----------------------------------
 Structure from the checkpoint file:  "JID_3209.chk"
 Charge = -1 Multiplicity = 2

                         Standard orientation:
 ---------------------------------------------------------------------
 Center     Atomic      Atomic             Coordinates (Angstroms)
 Number     Number       Type             X           Y           Z
 ---------------------------------------------------------------------
      1          6           0       -1.480607    0.788106   -1.251616
      2          6           0       -2.552543    0.271741   -0.281165
      3          6           0       -3.928340    0.842212   -0.660728
      4          6           0       -2.648412   -1.258311   -0.356781
      5          8           0       -1.408036   -1.837735    0.072178
      6          6           0       -2.227955    0.709035    1.165512
      7          8           0       -0.922370    0.378275    1.602163
      8          6           0        2.171903   -1.265396    0.479423
      9          6           0        3.002769   -1.161632   -0.807243
     10          6           0        2.781785    0.188265   -1.504067
     11          6           0        3.081203    1.358634   -0.556621
     12          6           0        2.260928    1.258730    0.736799
     13          6           0        2.461715   -0.095325    1.431413
     14          1           0       -1.403238    1.879542   -1.190324
     15          1           0       -1.733812    0.523100   -2.285338
     16          1           0       -0.500494    0.369050   -1.018515
     17          1           0       -4.231284    0.511737   -1.661129
     18          1           0       -4.705034    0.529889    0.048259
     19          1           0       -3.900026    1.937190   -0.667198
     20          1           0       -3.469947   -1.605768    0.288462
     21          1           0       -2.873007   -1.565800   -1.389240
     22          1           0       -1.497409   -2.801879    0.078111
     23          1           0       -2.307104    1.799993    1.235230
     24          1           0       -2.992328    0.283844    1.840943
     25          1           0       -0.795478   -0.561640    1.381063
     26          1           0        2.370846   -2.221340    0.982196
     27          1           0        1.106220   -1.264192    0.214854
     28          1           0        4.069644   -1.266969   -0.559477
     29          1           0        2.756136   -1.986586   -1.488308
     30          1           0        1.735504    0.252992   -1.836819
     31          1           0        3.402937    0.258069   -2.406414
     32          1           0        2.884032    2.313995   -1.059982
     33          1           0        4.153407    1.350790   -0.308757
     34          1           0        1.193367    1.377554    0.515985
     35          1           0        2.531288    2.074474    1.419575
     36          1           0        1.814444   -0.155200    2.314258
     37          1           0        3.499899   -0.173528    1.788287
 ---------------------------------------------------------------------

 SCF Done:  E(UB3LYP) =  -584.302944964     A.U. after   25 cycles

 The electronic state is 2-A.
 Alpha  occ. eigenvalues --  -19.02025 -19.00202 -10.10680 -10.10621 -10.08091
 Alpha  occ. eigenvalues --  -10.06702 -10.06495 -10.06390 -10.06275 -10.05915
 Alpha  occ. eigenvalues --  -10.05765 -10.05505 -10.05181  -0.92328  -0.90338
 Alpha  occ. eigenvalues --   -0.72773  -0.71506  -0.63894  -0.63828  -0.58771
 Alpha  occ. eigenvalues --   -0.57400  -0.56731  -0.50583  -0.50514  -0.45265
 Alpha  occ. eigenvalues --   -0.44869  -0.41511  -0.39224  -0.37933  -0.36212
 Alpha  occ. eigenvalues --   -0.34769  -0.34287  -0.33589  -0.33440  -0.32559
 Alpha  occ. eigenvalues --   -0.31209  -0.29478  -0.28237  -0.27845  -0.27825
 Alpha  occ. eigenvalues --   -0.27397  -0.27281  -0.26641  -0.24355  -0.24152
 Alpha  occ. eigenvalues --   -0.23812  -0.23047  -0.21302  -0.20242  -0.19962
 Alpha  occ. eigenvalues --   -0.19951  -0.17378  -0.16096   0.04456
 Alpha virt. eigenvalues --    0.06650   0.06973   0.08061   0.08425   0.08957
 Alpha virt. eigenvalues --    0.09175   0.10122   0.10308   0.10725   0.11116
 Alpha virt. eigenvalues --    0.11552   0.11786   0.12070   0.13112   0.13450

  Beta  occ. eigenvalues --  -19.01964 -19.00196 -10.10630 -10.10604 -10.08093
  Beta  occ. eigenvalues --  -10.06698 -10.06489 -10.06367 -10.06266 -10.05913
  Beta  occ. eigenvalues --  -10.05763 -10.05496 -10.05159  -0.92233  -0.90294
  Beta  occ. eigenvalues --   -0.72761  -0.71469  -0.63881  -0.63814  -0.58726
  Beta  occ. eigenvalues --   -0.57296  -0.56667  -0.50565  -0.50496  -0.45210
  Beta  occ. eigenvalues --   -0.44847  -0.41344  -0.39180  -0.37908  -0.36183
  Beta  occ. eigenvalues --   -0.34729  -0.34274  -0.33578  -0.33430  -0.32521
  Beta  occ. eigenvalues --   -0.31182  -0.29445  -0.28210  -0.27830  -0.27808
  Beta  occ. eigenvalues --   -0.27338  -0.27265  -0.26618  -0.24334  -0.24138
  Beta  occ. eigenvalues --   -0.23787  -0.23010  -0.21289  -0.20200  -0.19947
  Beta  occ. eigenvalues --   -0.19936  -0.17319  -0.16081
  Beta virt. eigenvalues --    0.06455   0.07111   0.08006   0.08137   0.08722
  Beta virt. eigenvalues --    0.09427   0.09580   0.10448   0.10494   0.10830
  Beta virt. eigenvalues --    0.11352   0.11813   0.12014   0.12269   0.13275

 Mulliken charges and spin densities:
               1          2
     1  C    0.622046  -1.200833
     2  C   -1.798743   2.085924
     3  C   -0.303155  -0.162286
     4  C    2.343360  -2.689895
     5  O   -0.452905   0.157990
     6  C    0.649003  -1.113301
     7  O   -0.158447  -0.021898
     8  C   -0.218464   0.181405
     9  C   -0.440920  -0.083267
    10  C    0.014875  -0.085287
    11  C   -0.359899  -0.196899
    12  C   -0.181375   0.107559
    13  C   -0.417816  -0.124520
    14  H    0.055244   0.075239
    15  H    0.066983   0.074292
    16  H   -0.701743   0.886103
    17  H   -0.119795   0.263885
    18  H   -0.089501   0.231542
    19  H    0.013346   0.123651
    20  H   -0.507851   0.673993
    21  H   -0.417044   0.590508
    22  H   -0.561832   0.872079
    23  H   -0.027340   0.182245
    24  H    0.021703   0.127123
    25  H    0.029484   0.222949
    26  H   -0.167533   0.331729
    27  H    1.312945  -1.154240
    28  H    0.087697   0.018699
    29  H   -0.235525   0.399346
    30  H    0.250038  -0.111728
    31  H    0.009743   0.157150
    32  H    0.066979   0.069086
    33  H    0.065461   0.044972
    34  H    0.228688  -0.028891
    35  H    0.123898   0.016801
    36  H    0.119085   0.051875
    37  H    0.079309   0.026902
 Sum of Mulliken charges =  -1.00000   1.00000

 Dipole moment (field-independent basis, Debye):
    X=              5.3224    Y=              6.4905    Z=              0.5792  Tot=              8.4137
 Quadrupole moment (field-independent basis, Debye-Ang):
   XX=           -145.1556   YY=           -136.4783   ZZ=           -119.4022
   XY=            -12.7576   XZ=              0.4679   YZ=             -2.3254

 Summary of Natural Population Analysis:

                                       Natural Population
                Natural  -----------------------------------------------
    Atom  No    Charge         Core      Valence    Rydberg      Total
 -----------------------------------------------------------------------
      C    1   -0.28649      0.99962     2.27855    0.00833     3.28649
      C    2   -0.07221      0.99957     2.05934    0.01330     3.07221
      C    3   -0.28239      0.99962     2.27683    0.00593     3.28239
      C    4   -0.00478      0.99952     1.99093    0.01434     3.00478
      O    5   -0.38753      0.99988     3.37982    0.00783     4.38753
      C    6   -0.00349      0.99953     1.98942    0.01455     3.00349
      O    7   -0.38292      0.99990     3.37611    0.00691     4.38292
      C    8   -0.19840      0.99963     2.18948    0.00929     3.19840
      C    9   -0.18925      0.99963     2.18081    0.00880     3.18925
      C   10   -0.19269      0.99963     2.18478    0.00828     3.19269
      C   11   -0.18808      0.99963     2.18145    0.00700     3.18808
      C   12   -0.19588      0.99963     2.18851    0.00775     3.19588
      C   13   -0.18844      0.99963     2.18181    0.00700     3.18844
      H   14    0.09619      0.00000     0.40291    0.00091     0.40381
      H   15    0.09877      0.00000     0.40031    0.00092     0.40123
      H   16    0.10811      0.00000     0.38979    0.00210     0.39189
      H   17    0.10250      0.00000     0.39646    0.00104     0.39750
      H   18    0.10137      0.00000     0.39753    0.00110     0.39863
      H   19    0.09868      0.00000     0.40039    0.00093     0.40132
      H   20    0.08350      0.00000     0.41291    0.00360     0.41650
      H   21    0.08339      0.00000     0.41374    0.00287     0.41661
      H   22    0.24744      0.00000     0.22961    0.02295     0.25256
      H   23    0.08245      0.00000     0.41645    0.00110     0.41755
      H   24    0.07706      0.00000     0.42176    0.00119     0.42294
      H   25    0.24297      0.00000     0.25269    0.00434     0.25703
      H   26    0.09585      0.00000     0.40309    0.00106     0.40415
      H   27    0.10518      0.00000     0.39248    0.00235     0.39482
      H   28    0.08702      0.00000     0.41185    0.00113     0.41298
      H   29    0.10004      0.00000     0.39907    0.00089     0.39996
      H   30    0.09669      0.00000     0.40165    0.00166     0.40331
      H   31    0.09372      0.00000     0.40541    0.00088     0.40628
      H   32    0.09538      0.00000     0.40364    0.00098     0.40462
      H   33    0.08734      0.00000     0.41138    0.00128     0.41266
      H   34    0.10774      0.00000     0.39050    0.00175     0.39226
      H   35    0.09257      0.00000     0.40654    0.00089     0.40743
      H   36    0.10316      0.00000     0.39579    0.00105     0.39684
      H   37    0.08544      0.00000     0.41333    0.00123     0.41456
 =======================================================================
   * Total *   -0.00000     12.99541    39.82711    0.17748    53.00000

 Normal termination of Gaussian 16 at Wed Dec  9 23:58:23 2020.
