 Gaussian 16, Revision A.03,

 -----------------------------------------------------------
 # opt freq B3LYP/6-31G(d) empiricaldispersion=gd3bj scf=xqc
 -----------------------------------------------------------

 -------------------------------
 CID_153998169_JID_2872_neutraal
 -------------------------------
 Symbolic Z-matrix:
 Charge =  0 Multiplicity = 1

 SCF Done:  E(RB3LYP) =  -569.626233634     A.U. after   14 cycles
 SCF Done:  E(RB3LYP) =  -569.631156612     A.U. after   12 cycles
 SCF Done:  E(RB3LYP) =  -569.631657724     A.U. after   12 cycles
 SCF Done:  E(RB3LYP) =  -569.631761602     A.U. after   10 cycles
 SCF Done:  E(RB3LYP) =  -569.631853998     A.U. after   10 cycles
 SCF Done:  E(RB3LYP) =  -569.631950844     A.U. after   11 cycles
 SCF Done:  E(RB3LYP) =  -569.631986500     A.U. after   10 cycles
 SCF Done:  E(RB3LYP) =  -569.632004723     A.U. after   10 cycles
 SCF Done:  E(RB3LYP) =  -569.632005464     A.U. after    7 cycles
 SCF Done:  E(RB3LYP) =  -569.632005748     A.U. after    7 cycles
 Optimization completed.
    -- Stationary point found.
 Normal termination of Gaussian 16 at Wed Dec  9 18:06:28 2020.

 --------------------------------------------------------------------
 #N Geom=AllCheck Guess=TCheck SCRF=Check GenChk RB3LYP/6-31G(d) Freq
 --------------------------------------------------------------------

 Structure from the checkpoint file:  "JID_2872.chk"
 -------------------------------
 CID_153998169_JID_2872_neutraal
 -------------------------------
 Charge =  0 Multiplicity = 1

 SCF Done:  E(RB3LYP) =  -569.632005748     A.U. after    1 cycles

  Exact polarizability: 174.727   5.549  89.506   0.004   0.001  49.076
 Approx polarizability: 250.823  14.100 172.406   0.012  -0.003  73.620

                      1                      2                      3
                      A                      A                      A
 Frequencies --     69.4259               132.1941               138.9699
 Red. masses --      3.1587                 3.6425                 1.1811
 Frc consts  --      0.0090                 0.0375                 0.0134
 IR Inten    --      5.7408                 0.0276                 0.4316

                      4                      5                      6
                      A                      A                      A
 Frequencies --    181.9131               201.9444               268.4708
 Red. masses --      2.3528                 3.3337                 1.2181
 Frc consts  --      0.0459                 0.0801                 0.0517
 IR Inten    --      0.5680                 4.1971                 0.2051

                      7                      8                      9
                      A                      A                      A
 Frequencies --    289.4893               301.3047               386.5786
 Red. masses --      3.0564                 5.9360                 5.4282
 Frc consts  --      0.1509                 0.3175                 0.4780
 IR Inten    --      1.1301                 0.9801                 0.0042

                     10                     11                     12
                      A                      A                      A
 Frequencies --    402.9376               471.7040               486.8008
 Red. masses --      5.0294                11.1135                 4.8606
 Frc consts  --      0.4811                 1.4569                 0.6787
 IR Inten    --      1.5741                19.3762                 2.8393

                     13                     14                     15
                      A                      A                      A
 Frequencies --    568.5647               615.3785               622.6629
 Red. masses --      5.5240                 5.5670                 4.1233
 Frc consts  --      1.0521                 1.2421                 0.9419
 IR Inten    --      1.0887                12.8808                 0.2007

                     16                     17                     18
                      A                      A                      A
 Frequencies --    681.0639               690.3212               763.2769
 Red. masses --      6.9355                 5.0411                 9.6420
 Frc consts  --      1.8954                 1.4154                 3.3097
 IR Inten    --      2.0851                 0.0760                 0.0436

                     19                     20                     21
                      A                      A                      A
 Frequencies --    784.0278               821.4058               871.0820
 Red. masses --      3.4748                 1.6228                 4.5124
 Frc consts  --      1.2585                 0.6451                 2.0173
 IR Inten    --      8.4197                10.9806                 0.0076

                     22                     23                     24
                      A                      A                      A
 Frequencies --    877.8619               940.6165               997.6243
 Red. masses --      1.4121                 5.3482                 6.0173
 Frc consts  --      0.6412                 2.7880                 3.5285
 IR Inten    --     17.0513                22.0605                33.7594

                     25                     26                     27
                      A                      A                      A
 Frequencies --   1030.5467              1080.2463              1126.1962
 Red. masses --      1.6641                 1.4900                 5.6256
 Frc consts  --      1.0412                 1.0244                 4.2038
 IR Inten    --      0.5340                 3.6064                39.9341

                     28                     29                     30
                      A                      A                      A
 Frequencies --   1168.3795              1186.4138              1189.9088
 Red. masses --      2.1126                 1.2703                 3.6482
 Frc consts  --      1.6992                 1.0534                 3.0434
 IR Inten    --      4.0872                 0.8361               161.3595

                     31                     32                     33
                      A                      A                      A
 Frequencies --   1216.9104              1278.5270              1300.1871
 Red. masses --      1.4342                 4.3982                 3.8611
 Frc consts  --      1.2514                 4.2359                 3.8457
 IR Inten    --      2.5231               117.1036                 4.8534

                     34                     35                     36
                      A                      A                      A
 Frequencies --   1353.9228              1398.2843              1415.9806
 Red. masses --      4.2559                 2.9912                 5.3480
 Frc consts  --      4.5965                 3.4458                 6.3176
 IR Inten    --    436.6625               115.0627                 8.7975

                     37                     38                     39
                      A                      A                      A
 Frequencies --   1445.7276              1494.6594              1499.1590
 Red. masses --      1.3601                 1.4116                 1.0426
 Frc consts  --      1.6750                 1.8580                 1.3806
 IR Inten    --      6.5790                51.5133                 7.4836

                     40                     41                     42
                      A                      A                      A
 Frequencies --   1513.5911              1523.9221              1532.0209
 Red. masses --      1.0929                 1.0470                 1.1659
 Frc consts  --      1.4752                 1.4325                 1.6123
 IR Inten    --     10.4412                 6.6436                92.1001

                     43                     44                     45
                      A                      A                      A
 Frequencies --   1544.8450              1610.4327              1654.6121
 Red. masses --      2.1574                 7.0527                11.1926
 Frc consts  --      3.0336                10.7769                18.0540
 IR Inten    --     70.5204                30.7932                48.0739

                     46                     47                     48
                      A                      A                      A
 Frequencies --   1660.4938              3033.6760              3051.2938
 Red. masses --      6.6938                 1.0346                 1.0377
 Frc consts  --     10.8743                 5.6101                 5.6925
 IR Inten    --     49.3540                58.0720                23.8510

                     49                     50                     51
                      A                      A                      A
 Frequencies --   3095.9453              3103.9209              3150.7055
 Red. masses --      1.1071                 1.1012                 1.1003
 Frc consts  --      6.2520                 6.2509                 6.4357
 IR Inten    --     37.9814                10.8164                 9.4245

                     52                     53                     54
                      A                      A                      A
 Frequencies --   3168.4851              3220.0653              3279.1679
 Red. masses --      1.1003                 1.0901                 1.0975
 Frc consts  --      6.5081                 6.6593                 6.9531
 IR Inten    --     24.0655                22.2334                 3.5280

 - Thermochemistry -
 -------------------
 Temperature   298.150 Kelvin.  Pressure   1.00000 Atm.
 Atom     1 has atomic number  6 and mass  12.00000

 Molecular mass:   164.05858 amu.
 Principal axes and moments of inertia in atomic units:
                           1         2         3
     Eigenvalues --   559.924223336.382253873.52471
           X            0.99997   0.00825  -0.00001
           Y           -0.00825   0.99997   0.00001
           Z            0.00001  -0.00001   1.00000
 This molecule is an asymmetric top.
 Rotational symmetry number  1.
 Warning -- assumption of classical behavior for rotation
           may cause significant error
 Rotational temperatures (Kelvin)      0.15469     0.02596     0.02236
 Rotational constants (GHZ):           3.22319     0.54093     0.46592
 Zero-point vibrational energy     406095.4 (Joules/Mol)
                                   97.05913 (Kcal/Mol)
 Warning -- explicit consideration of  14 degrees of freedom as
           vibrations may cause significant error
 Vibrational temperatures:     99.89   190.20   199.95   261.73   290.55
          (Kelvin)            386.27   416.51   433.51   556.20   579.74
                              678.68   700.40   818.04   885.39   895.87
                              979.90   993.22  1098.19  1128.04  1181.82
                             1253.29  1263.05  1353.34  1435.36  1482.73
                             1554.23  1620.35  1681.04  1706.98  1712.01
                             1750.86  1839.52  1870.68  1947.99  2011.82
                             2037.28  2080.08  2150.48  2156.96  2177.72
                             2192.58  2204.24  2222.69  2317.05  2380.62
                             2389.08  4364.78  4390.13  4454.37  4465.85
                             4533.16  4558.74  4632.96  4717.99

 Zero-point correction=                           0.154674 (Hartree/Particle)
 Thermal correction to Energy=                    0.164611
 Thermal correction to Enthalpy=                  0.165555
 Thermal correction to Gibbs Free Energy=         0.119222
 Sum of electronic and zero-point Energies=           -569.477332
 Sum of electronic and thermal Energies=              -569.467395
 Sum of electronic and thermal Enthalpies=            -569.466451
 Sum of electronic and thermal Free Energies=         -569.512784

                     E (Thermal)             CV                S
                      KCal/Mol        Cal/Mol-Kelvin    Cal/Mol-Kelvin
 Total                  103.295             37.853             97.517
 Electronic               0.000              0.000              0.000
 Translational            0.889              2.981             41.194
 Rotational               0.889              2.981             30.360
 Vibrational            101.517             31.892             25.964
 Vibration     1          0.598              1.969              4.170
 Vibration     2          0.612              1.921              2.914
 Vibration     3          0.615              1.914              2.818
 Vibration     4          0.630              1.864              2.309
 Vibration     5          0.639              1.837              2.115
 Vibration     6          0.673              1.731              1.606
 Vibration     7          0.686              1.693              1.477
 Vibration     8          0.693              1.671              1.410
 Vibration     9          0.755              1.499              1.013
 Vibration    10          0.768              1.464              0.952
 Vibration    11          0.829              1.313              0.733
 Vibration    12          0.843              1.279              0.692
 Vibration    13          0.925              1.099              0.507
 Vibration    14          0.975              0.999              0.424

 Optimization completed.
    -- Stationary point found.
 Normal termination of Gaussian 16 at Wed Dec  9 18:10:35 2020.

 ----------------------------------------------------------------------
 # B3LYP/6-311++G(d,p) empiricaldispersion=gd3bj scf=xqc pop=npa geom=c
 heck
 ----------------------------------------------------------------------

 ---------------------------------------
 CID_153998169_JID_2872_Energie_neutraal
 ---------------------------------------
 Structure from the checkpoint file:  "JID_2872.chk"
 Charge =  0 Multiplicity = 1

 SCF Done:  E(RB3LYP) =  -569.784284409     A.U. after   14 cycles
 Normal termination of Gaussian 16 at Wed Dec  9 18:12:11 2020.

 ----------------------------------------------------------------------
 # B3LYP/6-311++G(d,p) empiricaldispersion=gd3bj scf=xqc pop=npa geom=c
 heck
 ----------------------------------------------------------------------

 -------------------------------------
 CID_153998169_JID_2872_Energie_kation
 -------------------------------------
 Structure from the checkpoint file:  "JID_2872.chk"
 Charge =  1 Multiplicity = 2

 SCF Done:  E(UB3LYP) =  -569.486494580     A.U. after   20 cycles
 Normal termination of Gaussian 16 at Wed Dec  9 18:16:20 2020.
 Gaussian 16:  ES64L-G16RevA.03 25-Dec-2016

 ----------------------------------------------------------------------
 # B3LYP/6-311++G(d,p) empiricaldispersion=gd3bj scf=xqc pop=npa geom=c
 heck
 ----------------------------------------------------------------------

 ------------------------------------
 CID_153998169_JID_2872_Energie_anion
 ------------------------------------
 Structure from the checkpoint file:  "JID_2872.chk"
 Charge = -1 Multiplicity = 2

                         Standard orientation:
 ---------------------------------------------------------------------
 Center     Atomic      Atomic             Coordinates (Angstroms)
 Number     Number       Type             X           Y           Z
 ---------------------------------------------------------------------
      1          6           0       -4.084288   -0.535394   -0.000356
      2          6           0       -2.673342   -0.075363   -0.000019
      3          6           0       -2.099155    1.157597   -0.000030
      4          6           0       -0.676840    0.933668    0.000026
      5          7           0        0.387676    1.741010    0.000100
      6          6           0        1.573472    1.118962    0.000247
      7          6           0        1.699247   -0.291842    0.000327
      8          7           0        0.637351   -1.108842    0.000276
      9          6           0       -0.507628   -0.468512    0.000127
     10          8           0       -1.719280   -1.088837    0.000128
     11          8           0        2.882479   -0.947688    0.000310
     12          6           0        4.077214   -0.177587   -0.000682
     13          1           0       -4.298012   -1.147820   -0.884524
     14          1           0       -4.758048    0.324930    0.000033
     15          1           0       -4.298216   -1.148791    0.883075
     16          1           0       -2.617527    2.105432   -0.000008
     17          1           0        2.448600    1.758851    0.000281
     18          1           0        4.147531    0.452858   -0.895961
     19          1           0        4.148989    0.452906    0.894451
     20          1           0        4.893819   -0.900502   -0.001314
 ---------------------------------------------------------------------

 SCF Done:  E(UB3LYP) =  -569.783112024     A.U. after   33 cycles
 SCF Done:  E(UB3LYP) =  -569.783112024     a.u. after    1 cycles

 The electronic state is 2-A.
 Alpha  occ. eigenvalues --  -19.02576 -19.01114 -14.12669 -14.11330 -10.10334
 Alpha  occ. eigenvalues --  -10.09008 -10.08266 -10.06807 -10.05368 -10.02542
 Alpha  occ. eigenvalues --  -10.02424 -10.01328  -0.95243  -0.93292  -0.79262
 Alpha  occ. eigenvalues --   -0.73256  -0.64810  -0.62173  -0.59690  -0.54327
 Alpha  occ. eigenvalues --   -0.49431  -0.45748  -0.43071  -0.38611  -0.37124
 Alpha  occ. eigenvalues --   -0.34798  -0.34493  -0.32450  -0.31054  -0.29299
 Alpha  occ. eigenvalues --   -0.28442  -0.28367  -0.27450  -0.24293  -0.23896
 Alpha  occ. eigenvalues --   -0.22793  -0.20965  -0.19606  -0.15213  -0.13714
 Alpha  occ. eigenvalues --   -0.10797  -0.07861  -0.06174   0.06473
 Alpha virt. eigenvalues --    0.08408   0.08483   0.11030   0.11459   0.12015
 Alpha virt. eigenvalues --    0.12350   0.13012   0.14393   0.14798   0.16054
 Alpha virt. eigenvalues --    0.16263   0.17360   0.17893   0.18321   0.18989

  Beta  occ. eigenvalues --  -19.02617 -19.01107 -14.12139 -14.10491 -10.10322
  Beta  occ. eigenvalues --  -10.08916 -10.08268 -10.06457 -10.05399 -10.02507
  Beta  occ. eigenvalues --  -10.02379 -10.01352  -0.95169  -0.93223  -0.78504
  Beta  occ. eigenvalues --   -0.72143  -0.64461  -0.61893  -0.59584  -0.54041
  Beta  occ. eigenvalues --   -0.48924  -0.45472  -0.42887  -0.38381  -0.36916
  Beta  occ. eigenvalues --   -0.34545  -0.34308  -0.31924  -0.30932  -0.29098
  Beta  occ. eigenvalues --   -0.28232  -0.27964  -0.27316  -0.24202  -0.23151
  Beta  occ. eigenvalues --   -0.22624  -0.20898  -0.17948  -0.13682  -0.12895
  Beta  occ. eigenvalues --   -0.09385  -0.07051  -0.04650
  Beta virt. eigenvalues --    0.08337   0.08425   0.10991   0.11415   0.11847
  Beta virt. eigenvalues --    0.12259   0.12935   0.14154   0.14334   0.14696
  Beta virt. eigenvalues --    0.16153   0.16847   0.17631   0.17836   0.18271

 Mulliken charges and spin densities:
               1          2
     1  C   -0.547434  -0.020509
     2  C    0.211736   0.160101
     3  C    0.015697   0.014487
     4  C   -0.244722   0.030924
     5  N   -0.161520   0.367060
     6  C    0.045721   0.056326
     7  C   -0.130384   0.052426
     8  N   -0.427868   0.244675
     9  C   -0.294835   0.022252
    10  O   -0.100909  -0.011622
    11  O   -0.125043   0.002305
    12  C   -0.193400  -0.042601
    13  H    0.110374   0.030729
    14  H    0.143406   0.000282
    15  H    0.109374   0.031768
    16  H    0.109292   0.000264
    17  H    0.157799  -0.006347
    18  H    0.095327   0.033813
    19  H    0.094957   0.034175
    20  H    0.132432  -0.000506
 Sum of Mulliken charges =  -1.00000   1.00000

 Dipole moment (field-independent basis, Debye):
    X=              0.0296    Y=              0.1515    Z=             -0.0062  Tot=              0.1545
 Quadrupole moment (field-independent basis, Debye-Ang):
   XX=            -82.1857   YY=            -92.2578   ZZ=            -77.5094
   XY=              0.3641   XZ=              0.0071   YZ=              0.0038

 Summary of Natural Population Analysis:

                                       Natural Population
                Natural  -----------------------------------------------
    Atom  No    Charge         Core      Valence    Rydberg      Total
 -----------------------------------------------------------------------
      C    1   -0.30638      0.99963     2.30258    0.00416     3.30638
      C    2    0.20694      0.99948     1.78010    0.01348     2.79306
      C    3   -0.16881      0.99946     2.16017    0.00917     3.16881
      C    4    0.03583      0.99948     1.95025    0.01443     2.96417
      N    5   -0.11038      0.99968     2.59346    0.01724     3.61038
      C    6   -0.05133      0.99957     2.03693    0.01483     3.05133
      C    7    0.24952      0.99946     1.73342    0.01760     2.75048
      N    8   -0.18728      0.99960     2.67317    0.01451     3.68728
      C    9    0.24230      0.99938     1.73952    0.01880     2.75770
      O   10   -0.26013      0.99985     3.25170    0.00859     4.26013
      O   11   -0.27629      0.99985     3.26546    0.01098     4.27629
      C   12   -0.09743      0.99961     2.08982    0.00800     3.09743
      H   13    0.10140      0.00000     0.39712    0.00148     0.39860
      H   14    0.09931      0.00000     0.39997    0.00072     0.40069
      H   15    0.10142      0.00000     0.39709    0.00148     0.39858
      H   16    0.09784      0.00000     0.40042    0.00174     0.40216
      H   17    0.08014      0.00000     0.41809    0.00178     0.41986
      H   18    0.08019      0.00000     0.41801    0.00180     0.41981
      H   19    0.08018      0.00000     0.41802    0.00180     0.41982
      H   20    0.08296      0.00000     0.41621    0.00084     0.41704
 =======================================================================
   * Total *   -0.00000     11.99506    30.84149    0.16344    43.00000

 Normal termination of Gaussian 16 at Wed Dec  9 18:22:02 2020.
