 Gaussian 16, Revision A.03,

 -----------------------------------------------------------
 # opt freq B3LYP/6-31G(d) empiricaldispersion=gd3bj scf=xqc
 -----------------------------------------------------------

 ---------------------------
 CID_354876_JID_798_neutraal
 ---------------------------
 Symbolic Z-matrix:
 Charge =  0 Multiplicity = 1

 SCF Done:  E(RB3LYP) =  -513.310831587     A.U. after   15 cycles
 SCF Done:  E(RB3LYP) =  -513.317835973     A.U. after   12 cycles
 SCF Done:  E(RB3LYP) =  -513.317824944     A.U. after   12 cycles
 SCF Done:  E(RB3LYP) =  -513.318397375     A.U. after   12 cycles
 SCF Done:  E(RB3LYP) =  -513.318475308     A.U. after   10 cycles
 SCF Done:  E(RB3LYP) =  -513.318515017     A.U. after   11 cycles
 SCF Done:  E(RB3LYP) =  -513.318539748     A.U. after   10 cycles
 SCF Done:  E(RB3LYP) =  -513.318562321     A.U. after   10 cycles
 SCF Done:  E(RB3LYP) =  -513.318590377     A.U. after   11 cycles
 SCF Done:  E(RB3LYP) =  -513.318613744     A.U. after   11 cycles
 SCF Done:  E(RB3LYP) =  -513.317921377     A.U. after   12 cycles
 SCF Done:  E(RB3LYP) =  -513.318749780     A.U. after    7 cycles
 SCF Done:  E(RB3LYP) =  -513.318854694     A.U. after   11 cycles
 SCF Done:  E(RB3LYP) =  -513.318866672     A.U. after   10 cycles
 SCF Done:  E(RB3LYP) =  -513.318867785     A.U. after    8 cycles
 SCF Done:  E(RB3LYP) =  -513.318868315     A.U. after    8 cycles
 Optimization completed.
    -- Stationary point found.
 Normal termination of Gaussian 16 at Tue Dec  8 13:21:50 2020.

 --------------------------------------------------------------------
 #N Geom=AllCheck Guess=TCheck SCRF=Check GenChk RB3LYP/6-31G(d) Freq
 --------------------------------------------------------------------

 Structure from the checkpoint file:  "JID_798.chk"
 ---------------------------
 CID_354876_JID_798_neutraal
 ---------------------------
 Charge =  0 Multiplicity = 1

 SCF Done:  E(RB3LYP) =  -513.318868315     A.U. after    1 cycles

  Exact polarizability:  77.955   3.710  75.914   3.609   0.264  52.671
 Approx polarizability: 113.492  14.731 111.115   6.778   2.688  83.827

                      1                      2                      3
                      A                      A                      A
 Frequencies --     51.3108               124.4283               156.0366
 Red. masses --      3.6474                 3.0666                 7.2636
 Frc consts  --      0.0057                 0.0280                 0.1042
 IR Inten    --      3.7466                 4.5754                 2.3552

                      4                      5                      6
                      A                      A                      A
 Frequencies --    233.3889               271.0951               432.8998
 Red. masses --      4.1028                 2.6728                 5.3537
 Frc consts  --      0.1317                 0.1157                 0.5911
 IR Inten    --      4.9099                13.3910                 4.3501

                      7                      8                      9
                      A                      A                      A
 Frequencies --    461.1519               557.8127               579.1440
 Red. masses --      6.1091                 2.7687                 5.9129
 Frc consts  --      0.7654                 0.5076                 1.1685
 IR Inten    --      6.6575                 3.4061                 7.3791

                     10                     11                     12
                      A                      A                      A
 Frequencies --    625.9838               661.5711               691.1021
 Red. masses --      5.0670                 5.6770                 5.0672
 Frc consts  --      1.1699                 1.4639                 1.4260
 IR Inten    --      1.4271                21.0259                 7.0307

                     13                     14                     15
                      A                      A                      A
 Frequencies --    750.9481               797.6781               862.1977
 Red. masses --      6.1046                 2.3302                 3.0775
 Frc consts  --      2.0283                 0.8736                 1.3479
 IR Inten    --      4.3075                 6.0424                 6.8437

                     16                     17                     18
                      A                      A                      A
 Frequencies --    893.7219               969.7019              1017.0526
 Red. masses --      2.8791                 2.5271                 2.4956
 Frc consts  --      1.3549                 1.4001                 1.5209
 IR Inten    --      0.3507                 9.3703                15.0226

                     19                     20                     21
                      A                      A                      A
 Frequencies --   1025.4834              1053.7867              1072.7573
 Red. masses --      5.4538                 4.0290                 2.1813
 Frc consts  --      3.3791                 2.6360                 1.4790
 IR Inten    --    109.4795                16.6706                12.4373

                     22                     23                     24
                      A                      A                      A
 Frequencies --   1127.6063              1164.2116              1178.1716
 Red. masses --      2.0388                 3.0172                 1.3786
 Frc consts  --      1.5274                 2.4094                 1.1275
 IR Inten    --      4.6295               116.6706                14.0529

                     25                     26                     27
                      A                      A                      A
 Frequencies --   1219.3927              1243.0826              1258.5321
 Red. masses --      1.3103                 1.4030                 3.0832
 Frc consts  --      1.1479                 1.2774                 2.8773
 IR Inten    --     43.0226                15.0627               148.8220

                     28                     29                     30
                      A                      A                      A
 Frequencies --   1289.8110              1313.0442              1330.4562
 Red. masses --      1.3639                 1.7099                 1.3918
 Frc consts  --      1.3368                 1.7369                 1.4516
 IR Inten    --     29.8340                42.6739                 3.9126

                     31                     32                     33
                      A                      A                      A
 Frequencies --   1356.2356              1391.0898              1424.0937
 Red. masses --      1.5447                 2.6038                 1.4123
 Frc consts  --      1.6740                 2.9687                 1.6875
 IR Inten    --     32.0629               136.9728                11.5707

                     34                     35                     36
                      A                      A                      A
 Frequencies --   1498.6244              1537.9842              1558.8986
 Red. masses --      1.0824                 1.0884                 1.0893
 Frc consts  --      1.4323                 1.5168                 1.5596
 IR Inten    --      3.1507                 3.9823                 2.9319

                     37                     38                     39
                      A                      A                      A
 Frequencies --   1838.3932              1897.5541              3054.5978
 Red. masses --     12.0073                12.8487                 1.0848
 Frc consts  --     23.9095                27.2582                 5.9636
 IR Inten    --    375.6158               289.1619                21.1806

                     40                     41                     42
                      A                      A                      A
 Frequencies --   3073.8087              3084.3037              3097.1048
 Red. masses --      1.0689                 1.0634                 1.0640
 Frc consts  --      5.9501                 5.9599                 6.0134
 IR Inten    --      8.7713                54.2204                11.4784

                     43                     44                     45
                      A                      A                      A
 Frequencies --   3144.2242              3153.2019              3162.5720
 Red. masses --      1.0979                 1.1025                 1.1069
 Frc consts  --      6.3952                 6.4587                 6.5229
 IR Inten    --      6.1935                12.7661                 4.9291

 - Thermochemistry -
 -------------------
 Temperature   298.150 Kelvin.  Pressure   1.00000 Atm.
 Atom     1 has atomic number  6 and mass  12.00000

 Molecular mass:   141.04259 amu.
 Principal axes and moments of inertia in atomic units:
                           1         2         3
     Eigenvalues --   755.033201390.613271933.23441
           X            0.99894  -0.04544   0.00734
           Y            0.04549   0.99894  -0.00718
           Z           -0.00700   0.00750   0.99995
 This molecule is an asymmetric top.
 Rotational symmetry number  1.
 Warning -- assumption of classical behavior for rotation
           may cause significant error
 Rotational temperatures (Kelvin)      0.11472     0.06228     0.04480
 Rotational constants (GHZ):           2.39028     1.29780     0.93353
 Zero-point vibrational energy     351021.7 (Joules/Mol)
                                   83.89620 (Kcal/Mol)
 Warning -- explicit consideration of   9 degrees of freedom as
           vibrations may cause significant error
 Vibrational temperatures:     73.82   179.02   224.50   335.79   390.05
          (Kelvin)            622.85   663.49   802.57   833.26   900.65
                              951.85   994.34  1080.45  1147.68  1240.51
                             1285.87  1395.18  1463.31  1475.44  1516.16
                             1543.46  1622.37  1675.04  1695.13  1754.43
                             1788.52  1810.75  1855.75  1889.18  1914.23
                             1951.32  2001.47  2048.95  2156.19  2212.82
                             2242.91  2645.04  2730.16  4394.88  4422.53
                             4437.63  4456.04  4523.84  4536.75  4550.24

 Zero-point correction=                           0.133697 (Hartree/Particle)
 Thermal correction to Energy=                    0.141563
 Thermal correction to Enthalpy=                  0.142508
 Thermal correction to Gibbs Free Energy=         0.100223
 Sum of electronic and zero-point Energies=           -513.185171
 Sum of electronic and thermal Energies=              -513.177305
 Sum of electronic and thermal Enthalpies=            -513.176361
 Sum of electronic and thermal Free Energies=         -513.218645

                     E (Thermal)             CV                S
                      KCal/Mol        Cal/Mol-Kelvin    Cal/Mol-Kelvin
 Total                   88.832             29.387             88.995
 Electronic               0.000              0.000              0.000
 Translational            0.889              2.981             40.743
 Rotational               0.889              2.981             29.097
 Vibrational             87.055             23.425             19.155
 Vibration     1          0.596              1.977              4.766
 Vibration     2          0.610              1.929              3.030
 Vibration     3          0.620              1.896              2.597
 Vibration     4          0.654              1.790              1.853
 Vibration     5          0.675              1.726              1.589
 Vibration     6          0.794              1.399              0.849
 Vibration     7          0.819              1.336              0.763
 Vibration     8          0.913              1.123              0.528
 Vibration     9          0.936              1.076              0.487

                           ! Non-Optimized Parameters !
 Normal termination of Gaussian 16 at Tue Dec  8 13:28:38 2020.

 ----------------------------------------------------------------------
 # B3LYP/6-311++G(d,p) empiricaldispersion=gd3bj scf=xqc pop=npa geom=c
 heck
 ----------------------------------------------------------------------

 -----------------------------------
 CID_354876_JID_798_Energie_neutraal
 -----------------------------------
 Structure from the checkpoint file:  "JID_798.chk"
 Charge =  0 Multiplicity = 1

 SCF Done:  E(RB3LYP) =  -513.468319847     A.U. after   14 cycles
 Normal termination of Gaussian 16 at Tue Dec  8 13:32:00 2020.

 ----------------------------------------------------------------------
 # B3LYP/6-311++G(d,p) empiricaldispersion=gd3bj scf=xqc pop=npa geom=c
 heck
 ----------------------------------------------------------------------

 ---------------------------------
 CID_354876_JID_798_Energie_kation
 ---------------------------------
 Structure from the checkpoint file:  "JID_798.chk"
 Charge =  1 Multiplicity = 2

 SCF Done:  E(UB3LYP) =  -513.113029624     A.U. after   23 cycles
 Normal termination of Gaussian 16 at Tue Dec  8 13:36:19 2020.
 Gaussian 16:  ES64L-G16RevA.03 25-Dec-2016

 ----------------------------------------------------------------------
 # B3LYP/6-311++G(d,p) empiricaldispersion=gd3bj scf=xqc pop=npa geom=c
 heck
 ----------------------------------------------------------------------

 --------------------------------
 CID_354876_JID_798_Energie_anion
 --------------------------------
 Structure from the checkpoint file:  "JID_798.chk"
 Charge = -1 Multiplicity = 2

                         Standard orientation:
 ---------------------------------------------------------------------
 Center     Atomic      Atomic             Coordinates (Angstroms)
 Number     Number       Type             X           Y           Z
 ---------------------------------------------------------------------
      1          6           0       -0.313058    1.803942    0.020124
      2          6           0       -1.760206    1.287462   -0.106525
      3          6           0       -1.627073   -0.233405   -0.071880
      4          8           0       -2.374798   -1.068373   -0.536158
      5          7           0       -0.446842   -0.518092    0.614116
      6          6           0        0.452682    0.627462    0.680640
      7          6           0        1.675194    0.129513   -0.095019
      8          8           0        2.610701    0.771384   -0.488555
      9          8           0        1.537804   -1.210936   -0.308564
     10          6           0        0.329985   -1.698556    0.315193
     11          1           0        0.118128    2.014950   -0.962565
     12          1           0       -0.232506    2.715142    0.614782
     13          1           0       -2.383165    1.607425    0.737217
     14          1           0       -2.265730    1.590564   -1.025353
     15          1           0        0.754366    0.855582    1.710695
     16          1           0       -0.212273   -2.342224   -0.379244
     17          1           0        0.614269   -2.249901    1.216667
 ---------------------------------------------------------------------

 SCF Done:  E(UB3LYP) =  -513.459762913     A.U. after   31 cycles

 The electronic state is 2-A.
 Alpha  occ. eigenvalues --  -19.07002 -19.00964 -18.99697 -14.24121 -10.19556
 Alpha  occ. eigenvalues --  -10.17134 -10.16697 -10.11856 -10.07653 -10.07486
 Alpha  occ. eigenvalues --   -1.01492  -0.94775  -0.93205  -0.84718  -0.69968
 Alpha  occ. eigenvalues --   -0.64054  -0.60722  -0.52209  -0.49218  -0.45184
 Alpha  occ. eigenvalues --   -0.43077  -0.39042  -0.38867  -0.36023  -0.34756
 Alpha  occ. eigenvalues --   -0.34154  -0.32580  -0.30537  -0.29451  -0.28488
 Alpha  occ. eigenvalues --   -0.27607  -0.26113  -0.23963  -0.20877  -0.19277
 Alpha  occ. eigenvalues --   -0.16241  -0.15234   0.04909
 Alpha virt. eigenvalues --    0.07862   0.08859   0.09598   0.10000   0.10722
 Alpha virt. eigenvalues --    0.11219   0.11558   0.13008   0.13373   0.15491
 Alpha virt. eigenvalues --    0.15784   0.16921   0.17745   0.18034   0.18843

  Beta  occ. eigenvalues --  -19.06965 -19.00919 -18.99667 -14.24107 -10.19482
  Beta  occ. eigenvalues --  -10.17097 -10.16670 -10.11823 -10.07612 -10.07454
  Beta  occ. eigenvalues --   -1.01405  -0.94709  -0.93129  -0.84660  -0.69894
  Beta  occ. eigenvalues --   -0.63931  -0.60637  -0.52098  -0.49136  -0.45051
  Beta  occ. eigenvalues --   -0.42953  -0.38946  -0.38743  -0.35931  -0.34667
  Beta  occ. eigenvalues --   -0.34045  -0.32416  -0.30475  -0.29353  -0.28373
  Beta  occ. eigenvalues --   -0.27496  -0.26011  -0.23867  -0.20677  -0.19197
  Beta  occ. eigenvalues --   -0.16192  -0.15115
  Beta virt. eigenvalues --    0.08015   0.08725   0.09458   0.10425   0.10697
  Beta virt. eigenvalues --    0.11028   0.12064   0.12125   0.13400   0.13544
  Beta virt. eigenvalues --    0.15665   0.15982   0.17105   0.17707   0.18242

 Mulliken charges and spin densities:
               1          2
     1  C    1.464197  -1.968119
     2  C   -0.321211   0.043734
     3  C    1.137949  -1.109127
     4  O   -0.423918   0.055271
     5  N    0.029109   0.056828
     6  C   -1.081527   1.398298
     7  C    0.963487  -1.030486
     8  O   -0.338907   0.024853
     9  O   -0.136022   0.039267
    10  C    0.422545  -0.661641
    11  H   -0.086590   0.264948
    12  H   -0.386249   0.564240
    13  H   -0.734561   0.951815
    14  H    0.036412   0.127638
    15  H   -1.254548   1.552557
    16  H    0.119010   0.075113
    17  H   -0.409176   0.614810
 Sum of Mulliken charges =  -1.00000   1.00000

 Dipole moment (field-independent basis, Debye):
    X=              0.7496    Y=             -3.4085    Z=             -4.9011  Tot=              6.0167
 Quadrupole moment (field-independent basis, Debye-Ang):
   XX=           -102.2211   YY=            -92.2052   ZZ=            -91.8752
   XY=             -1.0447   XZ=              3.0396   YZ=             -9.1736

 Summary of Natural Population Analysis:

                                       Natural Population
                Natural  -----------------------------------------------
    Atom  No    Charge         Core      Valence    Rydberg      Total
 -----------------------------------------------------------------------
      C    1   -0.18880      0.99963     2.17974    0.00943     3.18880
      C    2   -0.23310      0.99960     2.22516    0.00834     3.23310
      C    3    0.36416      0.99965     1.61243    0.02377     2.63584
      O    4   -0.31105      0.99987     3.30516    0.00602     4.31105
      N    5   -0.26938      0.99964     2.75538    0.01435     3.76938
      C    6   -0.05221      0.99957     2.03891    0.01374     3.05221
      C    7    0.41494      0.99966     1.55961    0.02579     2.58506
      O    8   -0.29094      0.99986     3.28469    0.00639     4.29094
      O    9   -0.27547      0.99986     3.26867    0.00693     4.27547
      C   10    0.08640      0.99960     1.90017    0.01383     2.91360
      H   11    0.10274      0.00000     0.39579    0.00148     0.39726
      H   12    0.11491      0.00000     0.38053    0.00456     0.38509
      H   13    0.12126      0.00000     0.37308    0.00566     0.37874
      H   14    0.10902      0.00000     0.39012    0.00086     0.39098
      H   15    0.12052      0.00000     0.36541    0.01407     0.37948
      H   16    0.09949      0.00000     0.39903    0.00148     0.40051
      H   17    0.08751      0.00000     0.41091    0.00158     0.41249
 =======================================================================
   * Total *    0.00000      9.99693    26.84479    0.15827    37.00000

 Normal termination of Gaussian 16 at Tue Dec  8 13:40:19 2020.
