 Gaussian 16, Revision A.03,

 -----------------------------------------------------------
 # opt freq B3LYP/6-31G(d) empiricaldispersion=gd3bj scf=xqc
 -----------------------------------------------------------

 -------------------------------
 CID_151213215_JID_1456_neutraal
 -------------------------------
 Symbolic Z-matrix:
 Charge =  0 Multiplicity = 1

 SCF Done:  E(RB3LYP) =  -851.818195843     A.U. after   15 cycles
 SCF Done:  E(RB3LYP) =  -851.821683674     A.U. after   15 cycles
 SCF Done:  E(RB3LYP) =  -851.822785849     A.U. after   14 cycles
 SCF Done:  E(RB3LYP) =  -851.823320992     A.U. after   13 cycles
 SCF Done:  E(RB3LYP) =  -851.823425538     A.U. after   13 cycles
 SCF Done:  E(RB3LYP) =  -851.823458108     A.U. after   13 cycles
 SCF Done:  E(RB3LYP) =  -851.823480270     A.U. after   11 cycles
 SCF Done:  E(RB3LYP) =  -851.823482731     A.U. after    8 cycles
 Optimization completed.
    -- Stationary point found.
 Normal termination of Gaussian 16 at Tue Dec  8 20:00:30 2020.

 --------------------------------------------------------------------
 #N Geom=AllCheck Guess=TCheck SCRF=Check GenChk RB3LYP/6-31G(d) Freq
 --------------------------------------------------------------------

 Structure from the checkpoint file:  "JID_1456.chk"
 -------------------------------
 CID_151213215_JID_1456_neutraal
 -------------------------------
 Charge =  0 Multiplicity = 1

 SCF Done:  E(RB3LYP) =  -851.823482731     A.U. after    1 cycles

  Exact polarizability: 123.594   5.788  85.320   7.960  -0.022  91.955
 Approx polarizability: 201.425  15.768 129.192  30.040   0.281 153.089

                      1                      2                      3
                      A                      A                      A
 Frequencies --     45.2181                75.5114               100.8724
 Red. masses --      7.3609                 3.9214                 8.0551
 Frc consts  --      0.0089                 0.0132                 0.0483
 IR Inten    --      0.0761                 0.7176                 0.3444

                      4                      5                      6
                      A                      A                      A
 Frequencies --    186.6711               226.2040               321.0819
 Red. masses --      6.7146                 3.9740                 3.5543
 Frc consts  --      0.1379                 0.1198                 0.2159
 IR Inten    --      1.0567                 3.6301                 1.3463

                      7                      8                      9
                      A                      A                      A
 Frequencies --    352.3785               368.0011               399.1964
 Red. masses --      5.6151                 2.4428                 1.8801
 Frc consts  --      0.4108                 0.1949                 0.1765
 IR Inten    --      4.6843                 0.9627                 2.4526

                     10                     11                     12
                      A                      A                      A
 Frequencies --    467.7702               569.2710               600.7888
 Red. masses --      5.7209                13.1681                 5.3458
 Frc consts  --      0.7375                 2.5143                 1.1369
 IR Inten    --      0.1564                14.0326                 7.0076

                     13                     14                     15
                      A                      A                      A
 Frequencies --    627.0205               633.1070               691.3017
 Red. masses --      5.9388                 4.9552                 3.8169
 Frc consts  --      1.3757                 1.1702                 1.0747
 IR Inten    --     12.7332                 7.5079                 7.4606

                     16                     17                     18
                      A                      A                      A
 Frequencies --    736.7284               781.4094               817.3202
 Red. masses --      4.1530                 2.7037                 4.5063
 Frc consts  --      1.3281                 0.9727                 1.7736
 IR Inten    --     18.5174                14.1126                 3.7210

                     19                     20                     21
                      A                      A                      A
 Frequencies --    855.7105               883.4844               927.7947
 Red. masses --      3.0173                 2.0374                 2.4728
 Frc consts  --      1.3017                 0.9370                 1.2542
 IR Inten    --     30.1826                82.0975                32.5086

                     22                     23                     24
                      A                      A                      A
 Frequencies --    951.5855               959.3220               981.0790
 Red. masses --      2.9177                 2.5168                 1.9029
 Frc consts  --      1.5566                 1.3647                 1.0791
 IR Inten    --     10.2703                 1.3245                19.1567

                     25                     26                     27
                      A                      A                      A
 Frequencies --   1001.2714              1042.4864              1077.3052
 Red. masses --      1.8533                 1.6394                 1.9986
 Frc consts  --      1.0947                 1.0497                 1.3667
 IR Inten    --     14.5637                12.6327                 1.0168

                     28                     29                     30
                      A                      A                      A
 Frequencies --   1122.1780              1136.1273              1182.3251
 Red. masses --      3.4520                 1.6018                 1.1223
 Frc consts  --      2.5612                 1.2182                 0.9243
 IR Inten    --     22.2073                11.2490                 0.3129

                     31                     32                     33
                      A                      A                      A
 Frequencies --   1204.3566              1225.7898              1250.8783
 Red. masses --      1.5237                 1.3653                 1.2881
 Frc consts  --      1.3021                 1.2086                 1.1875
 IR Inten    --      0.4399                17.2024                 8.7035

                     34                     35                     36
                      A                      A                      A
 Frequencies --   1276.1459              1306.6802              1320.6400
 Red. masses --      1.2469                 1.4799                 4.5824
 Frc consts  --      1.1964                 1.4887                 4.7088
 IR Inten    --      8.6413                21.8634               181.5533

                     37                     38                     39
                      A                      A                      A
 Frequencies --   1330.3536              1345.0807              1345.9312
 Red. masses --      1.5620                 1.2807                 1.2666
 Frc consts  --      1.6288                 1.3652                 1.3519
 IR Inten    --      1.9920                 4.9009                 8.8127

                     40                     41                     42
                      A                      A                      A
 Frequencies --   1363.2469              1381.5720              1397.1736
 Red. masses --      1.3451                 1.3573                 1.4059
 Frc consts  --      1.4728                 1.5264                 1.6170
 IR Inten    --     24.2839                 2.0357                 2.2364

                     43                     44                     45
                      A                      A                      A
 Frequencies --   1491.9512              1507.6810              1514.6816
 Red. masses --      1.1493                 1.0907                 1.0876
 Frc consts  --      1.5073                 1.4607                 1.4702
 IR Inten    --      8.3331                 3.3715                 4.4018

                     46                     47                     48
                      A                      A                      A
 Frequencies --   1527.7150              2265.2389              3031.0625
 Red. masses --      1.0937                13.6961                 1.0709
 Frc consts  --      1.5039                41.4072                 5.7966
 IR Inten    --      4.2472               570.8240                47.4531

                     49                     50                     51
                      A                      A                      A
 Frequencies --   3050.2119              3068.4993              3080.6663
 Red. masses --      1.0717                 1.0655                 1.0828
 Frc consts  --      5.8744                 5.9110                 6.0544
 IR Inten    --     41.6614                 7.1794                31.5096

                     52                     53                     54
                      A                      A                      A
 Frequencies --   3087.8711              3112.8538              3117.2339
 Red. masses --      1.0826                 1.0878                 1.1053
 Frc consts  --      6.0820                 6.2104                 6.3283
 IR Inten    --     35.4557                31.4572                14.5906

                     55                     56                     57
                      A                      A                      A
 Frequencies --   3134.4279              3135.7186              3481.6879
 Red. masses --      1.0952                 1.0977                 1.0733
 Frc consts  --      6.3394                 6.3591                 7.6657
 IR Inten    --     15.6680                18.2465                 1.6924

 - Thermochemistry -
 -------------------
 Temperature   298.150 Kelvin.  Pressure   1.00000 Atm.
 Atom     1 has atomic number  6 and mass  12.00000

 Molecular mass:   170.06262 amu.
 Principal axes and moments of inertia in atomic units:
                           1         2         3
     Eigenvalues --  1197.976742251.513512375.22615
           X            0.99979  -0.01927  -0.00728
           Y            0.02010   0.98992   0.14019
           Z            0.00450  -0.14030   0.99010
 This molecule is an asymmetric top.
 Rotational symmetry number  1.
 Warning -- assumption of classical behavior for rotation
           may cause significant error
 Rotational temperatures (Kelvin)      0.07230     0.03847     0.03647
 Rotational constants (GHZ):           1.50649     0.80157     0.75982
 Zero-point vibrational energy     451446.0 (Joules/Mol)
                                  107.89818 (Kcal/Mol)
 Warning -- explicit consideration of  12 degrees of freedom as
           vibrations may cause significant error
 Vibrational temperatures:     65.06   108.64   145.13   268.58   325.46
          (Kelvin)            461.97   506.99   529.47   574.35   673.02
                              819.05   864.40   902.14   910.90   994.63
                             1059.99  1124.27  1175.94  1231.18  1271.14
                             1334.89  1369.12  1380.25  1411.55  1440.61
                             1499.91  1550.00  1614.56  1634.63  1701.10
                             1732.80  1763.64  1799.73  1836.09  1880.02
                             1900.11  1914.08  1935.27  1936.49  1961.41
                             1987.77  2010.22  2146.59  2169.22  2179.29
                             2198.04  3259.17  4361.02  4388.57  4414.89
                             4432.39  4442.76  4478.70  4485.00  4509.74
                             4511.60  5009.37

 Zero-point correction=                           0.171947 (Hartree/Particle)
 Thermal correction to Energy=                    0.181500
 Thermal correction to Enthalpy=                  0.182444
 Thermal correction to Gibbs Free Energy=         0.136020
 Sum of electronic and zero-point Energies=           -851.651536
 Sum of electronic and thermal Energies=              -851.641983
 Sum of electronic and thermal Enthalpies=            -851.641039
 Sum of electronic and thermal Free Energies=         -851.687462

                     E (Thermal)             CV                S
                      KCal/Mol        Cal/Mol-Kelvin    Cal/Mol-Kelvin
 Total                  113.893             36.598             97.706
 Electronic               0.000              0.000              0.000
 Translational            0.889              2.981             41.301
 Rotational               0.889              2.981             30.239
 Vibrational            112.115             30.636             26.166
 Vibration     1          0.595              1.979              5.016
 Vibration     2          0.599              1.965              4.004
 Vibration     3          0.604              1.948              3.437
 Vibration     4          0.632              1.858              2.261
 Vibration     5          0.650              1.801              1.909
 Vibration     6          0.707              1.633              1.305
 Vibration     7          0.729              1.570              1.156
 Vibration     8          0.741              1.538              1.088
 Vibration     9          0.765              1.472              0.966
 Vibration    10          0.825              1.322              0.744
 Vibration    11          0.925              1.098              0.506
 Vibration    12          0.959              1.030              0.448

 Optimization completed.
    -- Stationary point found.
 Normal termination of Gaussian 16 at Tue Dec  8 20:04:41 2020.

 ----------------------------------------------------------------------
 # B3LYP/6-311++G(d,p) empiricaldispersion=gd3bj scf=xqc pop=npa geom=c
 heck
 ----------------------------------------------------------------------

 ---------------------------------------
 CID_151213215_JID_1456_Energie_neutraal
 ---------------------------------------
 Structure from the checkpoint file:  "JID_1456.chk"
 Charge =  0 Multiplicity = 1

 SCF Done:  E(RB3LYP) =  -851.975688793     A.U. after   15 cycles
 Normal termination of Gaussian 16 at Tue Dec  8 20:06:11 2020.

 ----------------------------------------------------------------------
 # B3LYP/6-311++G(d,p) empiricaldispersion=gd3bj scf=xqc pop=npa geom=c
 heck
 ----------------------------------------------------------------------

 -------------------------------------
 CID_151213215_JID_1456_Energie_kation
 -------------------------------------
 Structure from the checkpoint file:  "JID_1456.chk"
 Charge =  1 Multiplicity = 2

 SCF Done:  E(UB3LYP) =  -851.669211001     A.U. after   23 cycles
 Normal termination of Gaussian 16 at Tue Dec  8 20:09:14 2020.
 Gaussian 16:  ES64L-G16RevA.03 25-Dec-2016

 ----------------------------------------------------------------------
 # B3LYP/6-311++G(d,p) empiricaldispersion=gd3bj scf=xqc pop=npa geom=c
 heck
 ----------------------------------------------------------------------

 ------------------------------------
 CID_151213215_JID_1456_Energie_anion
 ------------------------------------
 Structure from the checkpoint file:  "JID_1456.chk"
 Charge = -1 Multiplicity = 2

                         Standard orientation:
 ---------------------------------------------------------------------
 Center     Atomic      Atomic             Coordinates (Angstroms)
 Number     Number       Type             X           Y           Z
 ---------------------------------------------------------------------
      1          6           0        0.272413    0.934758    1.608255
      2          6           0        1.508885    0.316154    0.939233
      3          6           0        1.550833   -1.248705    0.928538
      4          7           0        1.287906   -1.705572   -0.441790
      5          6           0        1.851045   -0.647516   -1.278028
      6          6           0        1.515845    0.686500   -0.574720
      7         16           0       -0.182814    1.304499   -1.001295
      8          6           0       -0.902208    0.868365    0.635094
      9          7           0       -1.492035   -0.492566    0.691611
     10          7           0       -2.521126   -0.642547    0.021678
     11          7           0       -3.469887   -0.887976   -0.561660
     12          1           0        0.018033    0.433683    2.548339
     13          1           0        0.459337    1.990554    1.828584
     14          1           0        2.408737    0.710597    1.422253
     15          1           0        0.832412   -1.694096    1.620073
     16          1           0        2.553607   -1.583727    1.220876
     17          1           0        0.276843   -1.712375   -0.576400
     18          1           0        2.943990   -0.764783   -1.307171
     19          1           0        1.476386   -0.705901   -2.302452
     20          1           0        2.215836    1.489071   -0.818868
     21          1           0       -1.675051    1.608293    0.866391
 ---------------------------------------------------------------------

 SCF Done:  E(UB3LYP) =  -851.968548599     A.U. after   31 cycles

 The electronic state is 2-A.
 Alpha  occ. eigenvalues --  -88.72711 -14.33526 -14.24204 -14.23060 -14.18474
 Alpha  occ. eigenvalues --  -10.12950 -10.09323 -10.08623 -10.07659 -10.07039
 Alpha  occ. eigenvalues --  -10.06555  -7.81389  -5.77751  -5.77415  -5.76783
 Alpha  occ. eigenvalues --   -1.00723  -0.85275  -0.81425  -0.72538  -0.64238
 Alpha  occ. eigenvalues --   -0.63131  -0.57483  -0.52628  -0.47829  -0.44712
 Alpha  occ. eigenvalues --   -0.42994  -0.39455  -0.37959  -0.37636  -0.37186
 Alpha  occ. eigenvalues --   -0.34405  -0.32709  -0.31670  -0.29619  -0.27768
 Alpha  occ. eigenvalues --   -0.26429  -0.25340  -0.24165  -0.23211  -0.22549
 Alpha  occ. eigenvalues --   -0.20177  -0.18492  -0.13812  -0.12978  -0.11543
 Alpha  occ. eigenvalues --    0.04763
 Alpha virt. eigenvalues --    0.06732   0.08155   0.08899   0.09561   0.10019
 Alpha virt. eigenvalues --    0.11002   0.11480   0.11992   0.12060   0.12813
 Alpha virt. eigenvalues --    0.13371   0.14746   0.15038   0.16276   0.16844

  Beta  occ. eigenvalues --  -88.72710 -14.33237 -14.23817 -14.23124 -14.18466
  Beta  occ. eigenvalues --  -10.12854 -10.09312 -10.08612 -10.07638 -10.07022
  Beta  occ. eigenvalues --  -10.06523  -7.81387  -5.77748  -5.77415  -5.76782
  Beta  occ. eigenvalues --   -1.00164  -0.85007  -0.81396  -0.72456  -0.64180
  Beta  occ. eigenvalues --   -0.63026  -0.57440  -0.52449  -0.47732  -0.44646
  Beta  occ. eigenvalues --   -0.42897  -0.39126  -0.37588  -0.37431  -0.36501
  Beta  occ. eigenvalues --   -0.34206  -0.31930  -0.31624  -0.29503  -0.27632
  Beta  occ. eigenvalues --   -0.26371  -0.25168  -0.24109  -0.23163  -0.22418
  Beta  occ. eigenvalues --   -0.20109  -0.17998  -0.13712  -0.12934  -0.11506
  Beta virt. eigenvalues --    0.07536   0.08651   0.09382   0.09655   0.10136
  Beta virt. eigenvalues --    0.10637   0.11366   0.11756   0.12355   0.12507
  Beta virt. eigenvalues --    0.13099   0.13562   0.14960   0.15187   0.16324

 Mulliken charges and spin densities:
               1          2
     1  C    0.654124  -1.440609
     2  C   -0.428836   0.888206
     3  C    0.616033  -1.379396
     4  N   -0.054347   0.002260
     5  C   -0.363992  -0.359799
     6  C    0.391041  -0.314970
     7  S    0.046517  -0.288494
     8  C   -0.044578  -0.096608
     9  N   -1.075802   1.250460
    10  N    0.851609  -0.570078
    11  N    0.132779  -0.445301
    12  H   -0.203856   0.368935
    13  H   -0.287041   0.462627
    14  H   -0.841651   1.096022
    15  H    0.057499   0.137293
    16  H   -0.205029   0.361021
    17  H    0.177654   0.054918
    18  H   -0.114046   0.248637
    19  H    0.097285   0.057873
    20  H   -0.237187   0.528437
    21  H   -0.168177   0.438565
 Sum of Mulliken charges =  -1.00000   1.00000

 Dipole moment (field-independent basis, Debye):
    X=             -1.3446    Y=             -0.8113    Z=             -2.1683  Tot=              2.6773
 Quadrupole moment (field-independent basis, Debye-Ang):
   XX=           -127.9274   YY=           -107.3496   ZZ=            -99.8262
   XY=             -5.0972   XZ=             -8.2393   YZ=             -4.8774

 Summary of Natural Population Analysis:

                                       Natural Population
                Natural  -----------------------------------------------
    Atom  No    Charge         Core      Valence    Rydberg      Total
 -----------------------------------------------------------------------
      C    1   -0.19325      0.99957     2.18236    0.01131     3.19325
      C    2   -0.12495      0.99958     2.11175    0.01362     3.12495
      C    3   -0.09140      0.99962     2.07925    0.01252     3.09140
      N    4   -0.33982      0.99976     2.82833    0.01172     3.83982
      C    5   -0.09477      0.99960     2.08235    0.01282     3.09477
      C    6   -0.16728      0.99956     2.15380    0.01392     3.16728
      S    7    0.07509      4.99960     2.90996    0.01534     7.92491
      C    8   -0.07092      0.99956     2.05300    0.01836     3.07092
      N    9   -0.22626      0.99968     2.71074    0.01584     3.72626
      N   10    0.14224      0.99970     2.34201    0.01605     3.35776
      N   11   -0.00486      0.99982     2.49160    0.01344     3.50486
      H   12    0.10855      0.00000     0.38964    0.00181     0.39145
      H   13    0.10763      0.00000     0.39045    0.00192     0.39237
      H   14    0.11163      0.00000     0.38304    0.00532     0.38837
      H   15    0.10241      0.00000     0.39638    0.00121     0.39759
      H   16    0.09049      0.00000     0.40797    0.00154     0.40951
      H   17    0.17804      0.00000     0.31834    0.00362     0.32196
      H   18    0.09096      0.00000     0.40757    0.00147     0.40904
      H   19    0.09769      0.00000     0.40138    0.00093     0.40231
      H   20    0.10760      0.00000     0.39083    0.00157     0.39240
      H   21    0.10118      0.00000     0.39713    0.00169     0.39882
 =======================================================================
   * Total *   -0.00000     14.99606    29.82789    0.17605    45.00000

 Normal termination of Gaussian 16 at Tue Dec  8 20:14:48 2020.
