 Gaussian 16, Revision A.03,

 -----------------------------------------------------------
 # opt freq B3LYP/6-31G(d) empiricaldispersion=gd3bj scf=xqc
 -----------------------------------------------------------

 -------------------------------
 CID_127711339_JID_6395_neutraal
 -------------------------------
 Symbolic Z-matrix:
 Charge =  0 Multiplicity = 1

 SCF Done:  E(RB3LYP) =  -1111.63755633     A.U. after   15 cycles
 SCF Done:  E(RB3LYP) =  -1111.64243626     A.U. after   12 cycles
 SCF Done:  E(RB3LYP) =  -1111.64009553     A.U. after   13 cycles
 SCF Done:  E(RB3LYP) =  -1111.64407253     A.U. after   12 cycles
 SCF Done:  E(RB3LYP) =  -1111.64417512     A.U. after   12 cycles
 SCF Done:  E(RB3LYP) =  -1111.64435942     A.U. after   12 cycles
 SCF Done:  E(RB3LYP) =  -1111.64509119     A.U. after   11 cycles
 SCF Done:  E(RB3LYP) =  -1111.64549415     A.U. after   11 cycles
 SCF Done:  E(RB3LYP) =  -1111.64554285     A.U. after   12 cycles
 SCF Done:  E(RB3LYP) =  -1111.64576762     A.U. after   11 cycles
 SCF Done:  E(RB3LYP) =  -1111.64582043     A.U. after    9 cycles
 SCF Done:  E(RB3LYP) =  -1111.64582461     A.U. after    8 cycles
 SCF Done:  E(RB3LYP) =  -1111.64582652     A.U. after    8 cycles
 SCF Done:  E(RB3LYP) =  -1111.64582793     A.U. after    8 cycles
 SCF Done:  E(RB3LYP) =  -1111.64582880     A.U. after    8 cycles
 SCF Done:  E(RB3LYP) =  -1111.64582888     A.U. after    7 cycles
 Optimization completed.
    -- Stationary point found.
 Normal termination of Gaussian 16 at Thu Dec 10 22:41:04 2020.

 --------------------------------------------------------------------
 #N Geom=AllCheck Guess=TCheck SCRF=Check GenChk RB3LYP/6-31G(d) Freq
 --------------------------------------------------------------------

 Structure from the checkpoint file:  "JID_6395.chk"
 -------------------------------
 CID_127711339_JID_6395_neutraal
 -------------------------------
 Charge =  0 Multiplicity = 1

 SCF Done:  E(RB3LYP) =  -1111.64582888     A.U. after    1 cycles

  Exact polarizability: 157.552   0.862 144.206   3.587  -0.026 132.416
 Approx polarizability: 204.237  -3.165 210.347   4.504  -2.997 204.429

                      1                      2                      3
                      A                      A                      A
 Frequencies --     34.2533                45.9703                71.8049
 Red. masses --      3.2305                 3.5522                 2.6401
 Frc consts  --      0.0022                 0.0044                 0.0080
 IR Inten    --      0.2736                 0.4204                 0.9135

                      4                      5                      6
                      A                      A                      A
 Frequencies --     80.9058                96.9269               137.4617
 Red. masses --      2.9853                 3.2312                 3.2801
 Frc consts  --      0.0115                 0.0179                 0.0365
 IR Inten    --      0.2704                 2.2305                 0.1315

                      7                      8                      9
                      A                      A                      A
 Frequencies --    147.5324               192.6931               217.2669
 Red. masses --      4.6528                 3.5493                 4.7059
 Frc consts  --      0.0597                 0.0776                 0.1309
 IR Inten    --      2.8999                 1.1804                 2.9248

                     10                     11                     12
                      A                      A                      A
 Frequencies --    231.4122               235.6566               240.3189
 Red. masses --      1.3426                 1.2720                 1.2264
 Frc consts  --      0.0424                 0.0416                 0.0417
 IR Inten    --      1.2993                 0.3616                 0.3089

                     13                     14                     15
                      A                      A                      A
 Frequencies --    248.6665               269.0651               284.1115
 Red. masses --      2.3907                 1.6142                 2.0914
 Frc consts  --      0.0871                 0.0689                 0.0995
 IR Inten    --      1.1469                 1.1128                 0.8214

                     16                     17                     18
                      A                      A                      A
 Frequencies --    293.1461               299.8673               310.0029
 Red. masses --      3.1452                 2.1135                 3.0142
 Frc consts  --      0.1592                 0.1120                 0.1707
 IR Inten    --      1.9807                 1.0648                 0.3627

                     19                     20                     21
                      A                      A                      A
 Frequencies --    349.3717               361.9468               372.3728
 Red. masses --      2.3317                 2.2106                 4.1728
 Frc consts  --      0.1677                 0.1706                 0.3409
 IR Inten    --      0.6254                 0.1451                 8.0574

                     22                     23                     24
                      A                      A                      A
 Frequencies --    409.7513               413.5818               418.9345
 Red. masses --      2.5411                 2.4835                 2.3657
 Frc consts  --      0.2514                 0.2503                 0.2446
 IR Inten    --      1.6024                 1.1989                 4.4471

                     25                     26                     27
                      A                      A                      A
 Frequencies --    457.7952               510.0806               535.8802
 Red. masses --      4.2064                 3.0840                 6.8645
 Frc consts  --      0.5194                 0.4728                 1.1614
 IR Inten    --      5.2692                 0.5271                40.5381

                     28                     29                     30
                      A                      A                      A
 Frequencies --    545.3223               582.5779               596.4623
 Red. masses --      4.0227                 2.3704                 3.0216
 Frc consts  --      0.7048                 0.4740                 0.6334
 IR Inten    --     86.6132                10.3705                 4.0614

                     31                     32                     33
                      A                      A                      A
 Frequencies --    670.4443               710.3839               776.4222
 Red. masses --      1.1633                 2.9102                 3.7630
 Frc consts  --      0.3081                 0.8653                 1.3365
 IR Inten    --    108.4167                 0.5298                84.4786

                     34                     35                     36
                      A                      A                      A
 Frequencies --    827.6632               844.2581               882.3901
 Red. masses --      3.6213                 2.6387                 1.8852
 Frc consts  --      1.4616                 1.1081                 0.8648
 IR Inten    --      2.2790                 3.9534                 9.1636

                     37                     38                     39
                      A                      A                      A
 Frequencies --    889.7189               904.5409               937.8285
 Red. masses --      1.7094                 1.7262                 1.8814
 Frc consts  --      0.7972                 0.8321                 0.9750
 IR Inten    --     17.0629                 3.9226                 9.7146

                     40                     41                     42
                      A                      A                      A
 Frequencies --    942.0953               943.4160               965.8111
 Red. masses --      1.2969                 1.4639                 2.5194
 Frc consts  --      0.6782                 0.7677                 1.3846
 IR Inten    --      1.7718                 1.1928                 0.7230

                     43                     44                     45
                      A                      A                      A
 Frequencies --    976.3927               981.4843               992.7316
 Red. masses --      1.6490                 1.6678                 1.8369
 Frc consts  --      0.9262                 0.9466                 1.0666
 IR Inten    --      0.1732                 1.2978                 0.1159

                     46                     47                     48
                      A                      A                      A
 Frequencies --    997.6599              1030.5091              1034.6040
 Red. masses --      2.2066                 2.7788                 1.3021
 Frc consts  --      1.2940                 1.7387                 0.8212
 IR Inten    --     30.7014                90.8945                 5.2565

                     49                     50                     51
                      A                      A                      A
 Frequencies --   1087.4543              1100.6550              1108.9618
 Red. masses --      2.5624                 2.3613                 2.4913
 Frc consts  --      1.7854                 1.6854                 1.8051
 IR Inten    --     62.2972                43.6391                79.0036

                     52                     53                     54
                      A                      A                      A
 Frequencies --   1124.7183              1139.1361              1150.7825
 Red. masses --      2.4026                 3.1342                 1.9883
 Frc consts  --      1.7907                 2.3962                 1.5514
 IR Inten    --    102.5863                42.2727                 7.1373

                     55                     56                     57
                      A                      A                      A
 Frequencies --   1170.0494              1208.1953              1216.8434
 Red. masses --      1.9659                 1.7999                 1.6903
 Frc consts  --      1.5857                 1.5480                 1.4747
 IR Inten    --      9.8988                 5.8602                24.5737

                     58                     59                     60
                      A                      A                      A
 Frequencies --   1222.3443              1238.1114              1244.4430
 Red. masses --      1.5061                 1.8330                 1.4046
 Frc consts  --      1.3258                 1.6555                 1.2816
 IR Inten    --     16.1381                12.2686                11.8115

                     61                     62                     63
                      A                      A                      A
 Frequencies --   1261.1247              1287.7461              1296.6960
 Red. masses --      2.8149                 1.3188                 1.6209
 Frc consts  --      2.6377                 1.2885                 1.6057
 IR Inten    --     36.6747                14.3126                54.2779

                     64                     65                     66
                      A                      A                      A
 Frequencies --   1315.0447              1332.5610              1368.1889
 Red. masses --      2.9752                 1.2965                 1.2481
 Frc consts  --      3.0314                 1.3564                 1.3766
 IR Inten    --    163.6008                 4.5422                 5.0040

                     67                     68                     69
                      A                      A                      A
 Frequencies --   1371.7651              1374.3247              1391.8907
 Red. masses --      1.3631                 1.4250                 1.3589
 Frc consts  --      1.5113                 1.5858                 1.5511
 IR Inten    --      4.1367                 1.1053                 4.4397

                     70                     71                     72
                      A                      A                      A
 Frequencies --   1400.5211              1405.3255              1420.1534
 Red. masses --      1.3659                 1.4680                 1.2160
 Frc consts  --      1.5785                 1.7081                 1.4449
 IR Inten    --      8.2500                 4.3979                10.0356

                     73                     74                     75
                      A                      A                      A
 Frequencies --   1429.4010              1435.4970              1448.6439
 Red. masses --      1.2524                 1.3091                 1.2239
 Frc consts  --      1.5077                 1.5894                 1.5133
 IR Inten    --      3.6675                43.3881                 2.5673

                     76                     77                     78
                      A                      A                      A
 Frequencies --   1454.0656              1485.2041              1508.8713
 Red. masses --      1.3478                 1.0878                 1.0636
 Frc consts  --      1.6790                 1.4138                 1.4267
 IR Inten    --     43.5869                 7.8684                 3.7504

                     79                     80                     81
                      A                      A                      A
 Frequencies --   1515.3039              1520.8800              1522.8983
 Red. masses --      1.0873                 1.0478                 1.0519
 Frc consts  --      1.4709                 1.4280                 1.4373
 IR Inten    --      0.5145                 0.9567                 2.9319

                     82                     83                     84
                      A                      A                      A
 Frequencies --   1525.0868              1527.9878              1533.7587
 Red. masses --      1.0833                 1.0742                 1.0482
 Frc consts  --      1.4846                 1.4777                 1.4529
 IR Inten    --      5.0246                 1.6764                 5.0783

                     85                     86                     87
                      A                      A                      A
 Frequencies --   1534.6652              1542.4910              1554.9168
 Red. masses --      1.0565                 1.0530                 1.0841
 Frc consts  --      1.4661                 1.4761                 1.5443
 IR Inten    --      0.5764                 5.6855                 3.2578

                     88                     89                     90
                      A                      A                      A
 Frequencies --   1557.3222              3017.3128              3044.4146
 Red. masses --      1.0599                 1.0830                 1.0362
 Frc consts  --      1.5145                 5.8092                 5.6587
 IR Inten    --      7.1608                25.8476                23.6041

                     91                     92                     93
                      A                      A                      A
 Frequencies --   3050.3950              3054.3234              3057.0672
 Red. masses --      1.0417                 1.0433                 1.0678
 Frc consts  --      5.7109                 5.7347                 5.8798
 IR Inten    --     22.6582                19.9349                18.6837

                     94                     95                     96
                      A                      A                      A
 Frequencies --   3065.2407              3070.3620              3070.6453
 Red. masses --      1.0394                 1.0638                 1.0759
 Frc consts  --      5.7536                 5.9089                 5.9770
 IR Inten    --     26.5231                30.0003                 3.5957

                     97                     98                     99
                      A                      A                      A
 Frequencies --   3077.3850              3081.2895              3109.3467
 Red. masses --      1.0622                 1.0606                 1.1010
 Frc consts  --      5.9268                 5.9327                 6.2716
 IR Inten    --     19.7368                 5.1150                 4.2104

                    100                    101                    102
                      A                      A                      A
 Frequencies --   3110.8109              3117.1214              3119.0446
 Red. masses --      1.1023                 1.1000                 1.0993
 Frc consts  --      6.2847                 6.2971                 6.3009
 IR Inten    --      7.0284                48.9169                 9.8179

                    103                    104                    105
                      A                      A                      A
 Frequencies --   3122.9153              3125.9161              3133.9965
 Red. masses --      1.1032                 1.1023                 1.1006
 Frc consts  --      6.3390                 6.3460                 6.3691
 IR Inten    --     24.6647                45.6009                27.9041

                    106                    107                    108
                      A                      A                      A
 Frequencies --   3135.2993              3142.9760              3145.6447
 Red. masses --      1.1062                 1.1033                 1.0988
 Frc consts  --      6.4067                 6.4215                 6.4059
 IR Inten    --      7.7313                32.8258                23.9202

                    109                    110                    111
                      A                      A                      A
 Frequencies --   3154.3861              3185.4596              3638.6816
 Red. masses --      1.1016                 1.0955                 1.0653
 Frc consts  --      6.4582                 6.5494                 8.3100
 IR Inten    --     24.4076                 7.4768               179.8420

 - Thermochemistry -
 -------------------
 Temperature   298.150 Kelvin.  Pressure   1.00000 Atm.
 Atom     1 has atomic number  6 and mass  12.00000

 Molecular mass:   249.13987 amu.
 Principal axes and moments of inertia in atomic units:
                           1         2         3
     Eigenvalues --  2985.425454657.225914974.30867
           X            0.99981   0.01586  -0.01117
           Y           -0.01544   0.99920   0.03685
           Z            0.01174  -0.03667   0.99926
 This molecule is an asymmetric top.
 Rotational symmetry number  1.
 Warning -- assumption of classical behavior for rotation
           may cause significant error
 Rotational temperatures (Kelvin)      0.02901     0.01860     0.01741
 Rotational constants (GHZ):           0.60452     0.38751     0.36281
 Zero-point vibrational energy     905953.3 (Joules/Mol)
                                  216.52803 (Kcal/Mol)
 Warning -- explicit consideration of  30 degrees of freedom as
           vibrations may cause significant error
 Vibrational temperatures:     49.28    66.14   103.31   116.41   139.46
          (Kelvin)            197.78   212.27   277.24   312.60   332.95
                              339.06   345.77   357.78   387.12   408.77
                              421.77   431.44   446.03   502.67   520.76
                              535.76   589.54   595.05   602.75   658.67
                              733.89   771.01   784.60   838.20   858.18
                              964.62  1022.08  1117.10  1190.82  1214.70
                             1269.56  1280.11  1301.43  1349.33  1355.47
                             1357.37  1389.59  1404.81  1412.14  1428.32
                             1435.41  1482.67  1488.56  1564.60  1583.60
                             1595.55  1618.22  1638.96  1655.72  1683.44
                             1738.32  1750.77  1758.68  1781.37  1790.48
                             1814.48  1852.78  1865.66  1892.06  1917.26
                             1968.52  1973.66  1977.35  2002.62  2015.04
                             2021.95  2043.28  2056.59  2065.36  2084.28
                             2092.08  2136.88  2170.93  2180.18  2188.21
                             2191.11  2194.26  2198.43  2206.74  2208.04
                             2219.30  2237.18  2240.64  4341.24  4380.23
                             4388.84  4394.49  4398.44  4410.20  4417.57
                             4417.97  4427.67  4433.29  4473.66  4475.76
                             4484.84  4487.61  4493.18  4497.50  4509.12
                             4511.00  4522.04  4525.88  4538.46  4583.17
                             5235.25

 Zero-point correction=                           0.345059 (Hartree/Particle)
 Thermal correction to Energy=                    0.363071
 Thermal correction to Enthalpy=                  0.364015
 Thermal correction to Gibbs Free Energy=         0.300028
 Sum of electronic and zero-point Energies=          -1111.300770
 Sum of electronic and thermal Energies=             -1111.282758
 Sum of electronic and thermal Enthalpies=           -1111.281814
 Sum of electronic and thermal Free Energies=        -1111.345801

                     E (Thermal)             CV                S
                      KCal/Mol        Cal/Mol-Kelvin    Cal/Mol-Kelvin
 Total                  227.830             69.409            134.671
 Electronic               0.000              0.000              0.000
 Translational            0.889              2.981             42.439
 Rotational               0.889              2.981             32.603
 Vibrational            226.053             63.448             59.629
 Vibration     1          0.594              1.983              5.566
 Vibration     2          0.595              1.979              4.984
 Vibration     3          0.598              1.967              4.103
 Vibration     4          0.600              1.962              3.869
 Vibration     5          0.603              1.951              3.515
 Vibration     6          0.614              1.916              2.839
 Vibration     7          0.617              1.905              2.704
 Vibration     8          0.635              1.850              2.202
 Vibration     9          0.646              1.815              1.982
 Vibration    10          0.653              1.793              1.868
 Vibration    11          0.655              1.786              1.835
 Vibration    12          0.657              1.779              1.801
 Vibration    13          0.662              1.765              1.740
 Vibration    14          0.673              1.730              1.602
 Vibration    15          0.683              1.703              1.509
 Vibration    16          0.688              1.687              1.456
 Vibration    17          0.692              1.674              1.418
 Vibration    18          0.699              1.655              1.362
 Vibration    19          0.727              1.577              1.169
 Vibration    20          0.736              1.551              1.114
 Vibration    21          0.744              1.529              1.070
 Vibration    22          0.774              1.449              0.927
 Vibration    23          0.777              1.441              0.914
 Vibration    24          0.782              1.429              0.896
 Vibration    25          0.816              1.344              0.773
 Vibration    26          0.865              1.228              0.633
 Vibration    27          0.891              1.171              0.574
 Vibration    28          0.900              1.150              0.554
 Vibration    29          0.939              1.069              0.481
 Vibration    30          0.954              1.039              0.456

                           ! Non-Optimized Parameters !
 Normal termination of Gaussian 16 at Thu Dec 10 22:56:38 2020.

 ----------------------------------------------------------------------
 # B3LYP/6-311++G(d,p) empiricaldispersion=gd3bj scf=xqc pop=npa geom=c
 heck
 ----------------------------------------------------------------------

 ---------------------------------------
 CID_127711339_JID_6395_Energie_neutraal
 ---------------------------------------
 Structure from the checkpoint file:  "JID_6395.chk"
 Charge =  0 Multiplicity = 1

 SCF Done:  E(RB3LYP) =  -1111.88489107     A.U. after   14 cycles
 Normal termination of Gaussian 16 at Thu Dec 10 23:04:13 2020.

 ----------------------------------------------------------------------
 # B3LYP/6-311++G(d,p) empiricaldispersion=gd3bj scf=xqc pop=npa geom=c
 heck
 ----------------------------------------------------------------------

 -------------------------------------
 CID_127711339_JID_6395_Energie_kation
 -------------------------------------
 Structure from the checkpoint file:  "JID_6395.chk"
 Charge =  1 Multiplicity = 2

 SCF Done:  E(UB3LYP) =  -1111.56218968     A.U. after   26 cycles
 Normal termination of Gaussian 16 at Thu Dec 10 23:21:48 2020.
 Gaussian 16:  ES64L-G16RevA.03 25-Dec-2016

 ----------------------------------------------------------------------
 # B3LYP/6-311++G(d,p) empiricaldispersion=gd3bj scf=xqc pop=npa geom=c
 heck
 ----------------------------------------------------------------------

 ------------------------------------
 CID_127711339_JID_6395_Energie_anion
 ------------------------------------
 Structure from the checkpoint file:  "JID_6395.chk"
 Charge = -1 Multiplicity = 2

                         Standard orientation:
 ---------------------------------------------------------------------
 Center     Atomic      Atomic             Coordinates (Angstroms)
 Number     Number       Type             X           Y           Z
 ---------------------------------------------------------------------
      1          6           0       -2.086235   -0.028998    2.128104
      2          6           0       -2.371517   -0.766432    0.813979
      3          6           0       -3.687630   -1.550726    0.903809
      4          6           0       -2.427751    0.209367   -0.372755
      5         16           0       -0.847635    0.490465   -1.224747
      6          8           0       -0.486425   -0.795310   -1.852212
      7          8           0       -1.039323    1.678741   -2.060527
      8          7           0        0.287926    0.875350   -0.089528
      9          6           0        0.394256    2.321169    0.239589
     10          6           0        1.360231    2.336797    1.421151
     11          6           0        2.244504    1.123282    1.146630
     12          6           0        1.265648    0.033069    0.678791
     13          6           0        1.962351   -1.161498   -0.067096
     14          6           0        3.317753   -1.453706    0.595355
     15          6           0        1.123978   -2.450720    0.028294
     16          8           0        2.264143   -0.818913   -1.407629
     17          1           0       -2.920798    0.636508    2.382203
     18          1           0       -1.180394    0.579261    2.062046
     19          1           0       -1.961726   -0.737837    2.953839
     20          1           0       -1.568030   -1.489120    0.629853
     21          1           0       -4.539607   -0.872820    1.038900
     22          1           0       -3.861661   -2.138403   -0.003974
     23          1           0       -3.670651   -2.238820    1.756105
     24          1           0       -3.071504   -0.157518   -1.178581
     25          1           0       -2.791699    1.197387   -0.074834
     26          1           0       -0.586088    2.741264    0.486882
     27          1           0        0.787444    2.868837   -0.621270
     28          1           0        1.917347    3.275966    1.481693
     29          1           0        0.815442    2.204966    2.363909
     30          1           0        2.939119    1.340364    0.327757
     31          1           0        2.819664    0.805045    2.018693
     32          1           0        0.756440   -0.384830    1.558577
     33          1           0        3.211635   -1.626765    1.671953
     34          1           0        3.740856   -2.354512    0.142225
     35          1           0        4.023319   -0.636089    0.433764
     36          1           0        0.146266   -2.343687   -0.439693
     37          1           0        1.656007   -3.258468   -0.484198
     38          1           0        0.988204   -2.743556    1.076450
     39          1           0        1.416411   -0.827844   -1.891798
 ---------------------------------------------------------------------

 SCF Done:  E(UB3LYP) =  -1111.87731392     A.U. after   27 cycles

 The electronic state is 2-A.
 Alpha  occ. eigenvalues --  -88.97456 -19.03138 -19.02482 -19.01635 -14.25415
 Alpha  occ. eigenvalues --  -10.14220 -10.12938 -10.11855 -10.11631 -10.09943
 Alpha  occ. eigenvalues --  -10.08319 -10.08152 -10.07319 -10.06843 -10.06572
 Alpha  occ. eigenvalues --  -10.06176  -8.03594  -5.99901  -5.99862  -5.99636
 Alpha  occ. eigenvalues --   -1.03180  -0.93014  -0.91910  -0.85452  -0.73858
 Alpha  occ. eigenvalues --   -0.71485  -0.69338  -0.64466  -0.63824  -0.59997
 Alpha  occ. eigenvalues --   -0.59819  -0.56870  -0.51496  -0.50372  -0.49298
 Alpha  occ. eigenvalues --   -0.46497  -0.45388  -0.42156  -0.40602  -0.38927
 Alpha  occ. eigenvalues --   -0.38045  -0.37221  -0.35889  -0.35424  -0.35286
 Alpha  occ. eigenvalues --   -0.34338  -0.34059  -0.33377  -0.31583  -0.30510
 Alpha  occ. eigenvalues --   -0.30250  -0.29544  -0.29038  -0.28870  -0.27578
 Alpha  occ. eigenvalues --   -0.27230  -0.26415  -0.25805  -0.25724  -0.25351
 Alpha  occ. eigenvalues --   -0.24996  -0.24800  -0.23608  -0.22320  -0.21567
 Alpha  occ. eigenvalues --   -0.20787  -0.17993  -0.16170   0.03876
 Alpha virt. eigenvalues --    0.06205   0.06817   0.07682   0.08246   0.08537
 Alpha virt. eigenvalues --    0.09120   0.09683   0.10329   0.10469   0.10899
 Alpha virt. eigenvalues --    0.11204   0.11566   0.12096   0.12568   0.12966

  Beta  occ. eigenvalues --  -88.97451 -19.03134 -19.02480 -19.01631 -14.25410
  Beta  occ. eigenvalues --  -10.14216 -10.12928 -10.11843 -10.11608 -10.09937
  Beta  occ. eigenvalues --  -10.08287 -10.08135 -10.07280 -10.06828 -10.06523
  Beta  occ. eigenvalues --  -10.06164  -8.03588  -5.99896  -5.99857  -5.99630
  Beta  occ. eigenvalues --   -1.03168  -0.93005  -0.91901  -0.85435  -0.73828
  Beta  occ. eigenvalues --   -0.71458  -0.69312  -0.64415  -0.63793  -0.59968
  Beta  occ. eigenvalues --   -0.59739  -0.56830  -0.51450  -0.50309  -0.49237
  Beta  occ. eigenvalues --   -0.46469  -0.45363  -0.42138  -0.40581  -0.38907
  Beta  occ. eigenvalues --   -0.38008  -0.37196  -0.35865  -0.35390  -0.35260
  Beta  occ. eigenvalues --   -0.34298  -0.34027  -0.33354  -0.31553  -0.30474
  Beta  occ. eigenvalues --   -0.30213  -0.29519  -0.29002  -0.28844  -0.27561
  Beta  occ. eigenvalues --   -0.27185  -0.26385  -0.25777  -0.25693  -0.25324
  Beta  occ. eigenvalues --   -0.24965  -0.24760  -0.23588  -0.22311  -0.21554
  Beta  occ. eigenvalues --   -0.20773  -0.17985  -0.16157
  Beta virt. eigenvalues --    0.06191   0.06978   0.07382   0.08350   0.08735
  Beta virt. eigenvalues --    0.08901   0.09549   0.09972   0.10592   0.10799
  Beta virt. eigenvalues --    0.11163   0.11538   0.11914   0.12389   0.12660

 Mulliken charges and spin densities:
               1          2
     1  C    0.768595  -1.374782
     2  C   -1.734805   2.310371
     3  C    0.556079  -1.147859
     4  C    0.084927  -0.971129
     5  S    0.353737  -0.238484
     6  O   -0.099952   0.008536
     7  O   -0.057814   0.004539
     8  N    0.106834  -0.008667
     9  C   -0.154108  -0.074548
    10  C    0.304947  -0.833339
    11  C    0.006910  -0.450080
    12  C   -0.477364   0.143740
    13  C   -0.511226   0.587546
    14  C    0.069867  -0.684835
    15  C   -0.134268  -0.396827
    16  O   -0.080751   0.001273
    17  H   -0.419690   0.580098
    18  H    1.057452  -0.944127
    19  H   -0.654244   0.822597
    20  H    0.565739  -0.407785
    21  H   -0.122997   0.275596
    22  H   -0.153243   0.301203
    23  H   -0.242187   0.404147
    24  H    0.132837   0.118631
    25  H    0.005474   0.254656
    26  H    0.086200   0.116908
    27  H    0.068413   0.136240
    28  H   -0.231844   0.427109
    29  H   -0.564874   0.729600
    30  H    0.297136  -0.101126
    31  H   -0.331342   0.510466
    32  H    0.215491   0.034620
    33  H   -0.096386   0.259838
    34  H    0.132062   0.022975
    35  H   -0.006486   0.173189
    36  H    0.023740   0.085218
    37  H    0.080757   0.075750
    38  H   -0.074751   0.241650
    39  H    0.231133   0.007090
 Sum of Mulliken charges =  -1.00000   1.00000

 Dipole moment (field-independent basis, Debye):
    X=              1.8686    Y=             -0.3019    Z=             -4.4206  Tot=              4.8087
 Quadrupole moment (field-independent basis, Debye-Ang):
   XX=           -169.0511   YY=           -151.0683   ZZ=           -170.9259
   XY=             -3.1157   XZ=              5.4031   YZ=              1.0697

 Summary of Natural Population Analysis:

                                       Natural Population
                Natural  -----------------------------------------------
    Atom  No    Charge         Core      Valence    Rydberg      Total
 -----------------------------------------------------------------------
      C    1   -0.28358      0.99964     2.27682    0.00712     3.28358
      C    2   -0.13265      0.99960     2.12294    0.01010     3.13265
      C    3   -0.28006      0.99965     2.27428    0.00613     3.28006
      C    4   -0.28160      0.99954     2.26945    0.01260     3.28160
      S    5    1.12516      4.99918     1.77665    0.09901     6.87484
      O    6   -0.48236      0.99990     3.47666    0.00580     4.48236
      O    7   -0.46579      0.99991     3.46060    0.00528     4.46579
      N    8   -0.39838      0.99970     2.88546    0.01322     3.89838
      C    9   -0.07800      0.99961     2.06765    0.01073     3.07800
      C   10   -0.19338      0.99962     2.18530    0.00845     3.19338
      C   11   -0.19414      0.99960     2.18517    0.00936     3.19414
      C   12   -0.00212      0.99952     1.98668    0.01593     3.00212
      C   13    0.12423      0.99952     1.86022    0.01602     2.87577
      C   14   -0.28907      0.99962     2.28266    0.00679     3.28907
      C   15   -0.30133      0.99961     2.29488    0.00684     3.30133
      O   16   -0.38669      0.99988     3.38021    0.00660     4.38669
      H   17    0.09923      0.00000     0.39908    0.00169     0.40077
      H   18    0.10036      0.00000     0.39729    0.00235     0.39964
      H   19    0.10523      0.00000     0.39288    0.00189     0.39477
      H   20    0.10236      0.00000     0.39478    0.00286     0.39764
      H   21    0.09875      0.00000     0.40007    0.00118     0.40125
      H   22    0.09891      0.00000     0.40023    0.00086     0.40109
      H   23    0.10464      0.00000     0.39424    0.00112     0.39536
      H   24    0.11694      0.00000     0.38203    0.00103     0.38306
      H   25    0.11526      0.00000     0.38353    0.00121     0.38474
      H   26    0.09918      0.00000     0.39979    0.00103     0.40082
      H   27    0.09962      0.00000     0.39923    0.00115     0.40038
      H   28    0.10482      0.00000     0.39418    0.00100     0.39518
      H   29    0.10213      0.00000     0.39564    0.00223     0.39787
      H   30    0.10229      0.00000     0.39632    0.00139     0.39771
      H   31    0.10967      0.00000     0.38901    0.00131     0.39033
      H   32    0.09699      0.00000     0.40027    0.00273     0.40301
      H   33    0.10167      0.00000     0.39735    0.00098     0.39833
      H   34    0.10215      0.00000     0.39704    0.00081     0.39785
      H   35    0.10343      0.00000     0.39572    0.00086     0.39657
      H   36    0.11151      0.00000     0.38714    0.00135     0.38849
      H   37    0.10029      0.00000     0.39891    0.00080     0.39971
      H   38    0.10050      0.00000     0.39835    0.00115     0.39950
      H   39    0.24381      0.00000     0.25333    0.00286     0.25619
 =======================================================================
   * Total *   -0.00000     19.99411    47.73208    0.27382    68.00000

 Normal termination of Gaussian 16 at Thu Dec 10 23:38:31 2020.
