 Gaussian 16, Revision A.03,

 -----------------------------------------------------------
 # opt freq B3LYP/6-31G(d) empiricaldispersion=gd3bj scf=xqc
 -----------------------------------------------------------

 ------------------------------
 CID_80603931_JID_8098_neutraal
 ------------------------------
 Symbolic Z-matrix:
 Charge =  0 Multiplicity = 1

 SCF Done:  E(RB3LYP) =  -791.884920042     A.U. after   14 cycles
 SCF Done:  E(RB3LYP) =  -791.890003710     A.U. after   12 cycles
 SCF Done:  E(RB3LYP) =  -791.889964006     A.U. after   11 cycles
 SCF Done:  E(RB3LYP) =  -791.890638225     A.U. after   12 cycles
 SCF Done:  E(RB3LYP) =  -791.890764994     A.U. after   11 cycles
 SCF Done:  E(RB3LYP) =  -791.890841731     A.U. after   11 cycles
 SCF Done:  E(RB3LYP) =  -791.890873212     A.U. after   10 cycles
 SCF Done:  E(RB3LYP) =  -791.890889081     A.U. after    9 cycles
 SCF Done:  E(RB3LYP) =  -791.890889890     A.U. after    8 cycles
 SCF Done:  E(RB3LYP) =  -791.890890182     A.U. after    7 cycles
 SCF Done:  E(RB3LYP) =  -791.890890274     A.U. after    7 cycles
 Optimization completed.
    -- Stationary point found.
 Normal termination of Gaussian 16 at Fri Dec 11 18:47:17 2020.

 --------------------------------------------------------------------
 #N Geom=AllCheck Guess=TCheck SCRF=Check GenChk RB3LYP/6-31G(d) Freq
 --------------------------------------------------------------------

 Structure from the checkpoint file:  "JID_8098.chk"
 ------------------------------
 CID_80603931_JID_8098_neutraal
 ------------------------------
 Charge =  0 Multiplicity = 1

 SCF Done:  E(RB3LYP) =  -791.890890274     A.U. after    1 cycles

  Exact polarizability: 173.198  -6.432 158.119  -3.484   4.025 145.452
 Approx polarizability: 230.275 -14.886 233.366  -7.702   8.779 216.084

                      1                      2                      3
                      A                      A                      A
 Frequencies --     46.0221                65.0000                86.3840
 Red. masses --      3.4253                 4.0301                 4.0195
 Frc consts  --      0.0043                 0.0100                 0.0177
 IR Inten    --      0.1798                 0.0587                 0.2593

                      4                      5                      6
                      A                      A                      A
 Frequencies --    108.8104               114.6530               134.2136
 Red. masses --      3.4924                 3.6432                 6.3722
 Frc consts  --      0.0244                 0.0282                 0.0676
 IR Inten    --      1.3896                 2.5411                 3.2464

                      7                      8                      9
                      A                      A                      A
 Frequencies --    153.1482               179.7129               194.6520
 Red. masses --      2.5714                 3.2293                 3.4762
 Frc consts  --      0.0355                 0.0614                 0.0776
 IR Inten    --      3.9040                 4.0483                 0.3895

                     10                     11                     12
                      A                      A                      A
 Frequencies --    215.1518               239.6310               247.4515
 Red. masses --      3.5676                 3.2111                 2.9625
 Frc consts  --      0.0973                 0.1086                 0.1069
 IR Inten    --      2.7427                 1.5367                 3.1168

                     13                     14                     15
                      A                      A                      A
 Frequencies --    264.6072               287.2977               301.0403
 Red. masses --      2.0860                 3.4448                 2.8595
 Frc consts  --      0.0861                 0.1675                 0.1527
 IR Inten    --      1.8291                 0.4097                 4.3633

                     16                     17                     18
                      A                      A                      A
 Frequencies --    316.2053               333.2062               341.3825
 Red. masses --      3.8853                 1.6385                 1.2395
 Frc consts  --      0.2289                 0.1072                 0.0851
 IR Inten    --      5.2858                29.4208                97.0548

                     19                     20                     21
                      A                      A                      A
 Frequencies --    349.6662               394.6230               414.9080
 Red. masses --      2.7193                 2.1877                 2.4426
 Frc consts  --      0.1959                 0.2007                 0.2478
 IR Inten    --      1.3918                 3.3959                 3.3826

                     22                     23                     24
                      A                      A                      A
 Frequencies --    455.2361               457.0930               468.3216
 Red. masses --      3.6054                 2.4556                 3.4783
 Frc consts  --      0.4402                 0.3023                 0.4495
 IR Inten    --      4.2689                 1.6121                 2.8206

                     25                     26                     27
                      A                      A                      A
 Frequencies --    507.9261               535.7061               544.0754
 Red. masses --      2.8543                 2.3058                 2.0397
 Frc consts  --      0.4339                 0.3899                 0.3558
 IR Inten    --      5.2609                 2.1885                 1.3425

                     28                     29                     30
                      A                      A                      A
 Frequencies --    586.8633               648.6289               674.7756
 Red. masses --      4.0314                 3.1561                 3.2482
 Frc consts  --      0.8180                 0.7823                 0.8714
 IR Inten    --      0.3143                 3.1149                13.0281

                     31                     32                     33
                      A                      A                      A
 Frequencies --    687.6737               751.8235               796.3717
 Red. masses --      2.9258                 2.1822                 2.0891
 Frc consts  --      0.8152                 0.7267                 0.7806
 IR Inten    --      5.3436                 0.6426                 1.4026

                     34                     35                     36
                      A                      A                      A
 Frequencies --    810.0277               822.7396               853.2206
 Red. masses --      1.4311                 2.2848                 2.4269
 Frc consts  --      0.5532                 0.9112                 1.0409
 IR Inten    --      3.6821                 1.8546                 1.1933

                     37                     38                     39
                      A                      A                      A
 Frequencies --    870.9450               878.9919               882.8166
 Red. masses --      2.3429                 1.6310                 2.2952
 Frc consts  --      1.0471                 0.7425                 1.0539
 IR Inten    --      3.0573                 9.6735                 1.2009

                     40                     41                     42
                      A                      A                      A
 Frequencies --    907.8767               933.2949               945.9697
 Red. masses --      1.8453                 2.4731                 2.6528
 Frc consts  --      0.8961                 1.2692                 1.3987
 IR Inten    --      0.2801                11.6336                 5.0132

                     43                     44                     45
                      A                      A                      A
 Frequencies --    978.6446               986.5063               997.6182
 Red. masses --      2.6396                 1.8154                 1.6799
 Frc consts  --      1.4895                 1.0409                 0.9850
 IR Inten    --      7.1798                 2.6820                 1.4767

                     46                     47                     48
                      A                      A                      A
 Frequencies --   1009.2935              1021.7789              1037.1631
 Red. masses --      1.7417                 2.3545                 2.1713
 Frc consts  --      1.0453                 1.4483                 1.3762
 IR Inten    --      8.1913                 5.6278                 3.4112

                     49                     50                     51
                      A                      A                      A
 Frequencies --   1049.6682              1070.0442              1076.2242
 Red. masses --      1.9577                 3.3827                 2.2598
 Frc consts  --      1.2708                 2.2820                 1.5422
 IR Inten    --     39.2823                74.2286                11.5021

                     52                     53                     54
                      A                      A                      A
 Frequencies --   1101.0677              1117.4144              1120.4454
 Red. masses --      2.7620                 2.8228                 2.3607
 Frc consts  --      1.9729                 2.0766                 1.7461
 IR Inten    --      5.6280                24.1425                 3.5653

                     55                     56                     57
                      A                      A                      A
 Frequencies --   1138.4378              1142.4347              1149.4446
 Red. masses --      2.8928                 3.0034                 2.6637
 Frc consts  --      2.2090                 2.3095                 2.0735
 IR Inten    --     11.7190                74.2685                19.3990

                     58                     59                     60
                      A                      A                      A
 Frequencies --   1174.3394              1189.7331              1199.5844
 Red. masses --      2.4374                 1.1844                 2.4354
 Frc consts  --      1.9805                 0.9877                 2.0648
 IR Inten    --      5.1260                 1.6245                 0.4554

                     61                     62                     63
                      A                      A                      A
 Frequencies --   1215.1733              1226.1241              1255.4555
 Red. masses --      1.2852                 1.3125                 1.3616
 Frc consts  --      1.1181                 1.1626                 1.2645
 IR Inten    --      2.7641                 2.5107                10.8300

                     64                     65                     66
                      A                      A                      A
 Frequencies --   1270.2785              1280.7275              1298.2893
 Red. masses --      1.2872                 1.2715                 1.2981
 Frc consts  --      1.2238                 1.2288                 1.2891
 IR Inten    --     27.4406                 2.4576                 2.5333

                     67                     68                     69
                      A                      A                      A
 Frequencies --   1309.3091              1321.6473              1330.9350
 Red. masses --      1.2364                 1.2074                 1.1479
 Frc consts  --      1.2488                 1.2426                 1.1980
 IR Inten    --      1.4733                 3.7899                 1.3545

                     70                     71                     72
                      A                      A                      A
 Frequencies --   1336.2178              1342.1339              1353.9521
 Red. masses --      1.1729                 1.3037                 1.2382
 Frc consts  --      1.2339                 1.3837                 1.3374
 IR Inten    --      2.3824                 4.9995                 5.2933

                     73                     74                     75
                      A                      A                      A
 Frequencies --   1360.5808              1369.1053              1383.9330
 Red. masses --      1.2676                 1.2531                 1.3410
 Frc consts  --      1.3826                 1.3839                 1.5133
 IR Inten    --      1.1489                 1.5473                 4.2184

                     76                     77                     78
                      A                      A                      A
 Frequencies --   1392.6280              1395.9750              1404.6869
 Red. masses --      1.3768                 1.3878                 1.3181
 Frc consts  --      1.5733                 1.5934                 1.5324
 IR Inten    --      2.0964                 3.0524                 7.0839

                     79                     80                     81
                      A                      A                      A
 Frequencies --   1410.6902              1415.6880              1418.6775
 Red. masses --      1.3679                 1.3444                 1.3437
 Frc consts  --      1.6039                 1.5875                 1.5934
 IR Inten    --      0.5883                 2.1185                 9.8912

                     82                     83                     84
                      A                      A                      A
 Frequencies --   1422.3760              1430.0439              1437.3452
 Red. masses --      1.4206                 1.4415                 1.3566
 Frc consts  --      1.6934                 1.7368                 1.6513
 IR Inten    --      5.5432                 2.3228                 6.3404

                     85                     86                     87
                      A                      A                      A
 Frequencies --   1442.1991              1446.7327              1508.7160
 Red. masses --      1.2376                 1.2777                 1.0921
 Frc consts  --      1.5166                 1.5756                 1.4646
 IR Inten    --     38.4450                 3.5994                 4.5729

                     88                     89                     90
                      A                      A                      A
 Frequencies --   1511.1944              1513.2772              1519.3962
 Red. masses --      1.0812                 1.0818                 1.0980
 Frc consts  --      1.4547                 1.4596                 1.4935
 IR Inten    --      0.8348                 3.1089                 0.8909

                     91                     92                     93
                      A                      A                      A
 Frequencies --   1521.7316              1522.9563              1525.9178
 Red. masses --      1.0837                 1.0872                 1.0836
 Frc consts  --      1.4785                 1.4857                 1.4865
 IR Inten    --      1.4928                 4.3744                 1.2037

                     94                     95                     96
                      A                      A                      A
 Frequencies --   1527.5278              1536.4929              1543.8843
 Red. masses --      1.0872                 1.1007                 1.0802
 Frc consts  --      1.4946                 1.5311                 1.5170
 IR Inten    --      5.5170                 4.4820                 5.8450

                     97                     98                     99
                      A                      A                      A
 Frequencies --   1556.5681              2356.4315              2969.6738
 Red. masses --      1.0803                12.7023                 1.0725
 Frc consts  --      1.5421                41.5568                 5.5725
 IR Inten    --     11.1174                 7.7398                51.4557

                    100                    101                    102
                      A                      A                      A
 Frequencies --   3022.8150              3023.3338              3025.6173
 Red. masses --      1.0636                 1.0689                 1.0621
 Frc consts  --      5.7262                 5.7565                 5.7285
 IR Inten    --     15.9793                29.6690                32.2799

                    103                    104                    105
                      A                      A                      A
 Frequencies --   3030.7509              3034.8866              3037.3142
 Red. masses --      1.0641                 1.0675                 1.0733
 Frc consts  --      5.7587                 5.7929                 5.8339
 IR Inten    --     21.3956                13.4210                70.5936

                    106                    107                    108
                      A                      A                      A
 Frequencies --   3048.8260              3055.1907              3058.2242
 Red. masses --      1.0619                 1.0715                 1.0930
 Frc consts  --      5.8155                 5.8925                 6.0231
 IR Inten    --     15.1460                23.4977                41.5726

                    109                    110                    111
                      A                      A                      A
 Frequencies --   3059.3274              3061.9797              3064.0491
 Red. masses --      1.0965                 1.0771                 1.0849
 Frc consts  --      6.0467                 5.9500                 6.0011
 IR Inten    --     15.4141                19.0931                 8.8203

                    112                    113                    114
                      A                      A                      A
 Frequencies --   3071.2703              3072.5893              3073.2332
 Red. masses --      1.0844                 1.0998                 1.0838
 Frc consts  --      6.0269                 6.1177                 6.0312
 IR Inten    --     15.6186               111.3074                72.4739

                    115                    116                    117
                      A                      A                      A
 Frequencies --   3088.9111              3094.3025              3104.9891
 Red. masses --      1.0627                 1.1041                 1.0989
 Frc consts  --      5.9741                 6.2285                 6.2418
 IR Inten    --     16.2806                42.3180                20.3009

                    118                    119                    120
                      A                      A                      A
 Frequencies --   3110.8036              3114.2824              3117.8626
 Red. masses --      1.0965                 1.0927                 1.0962
 Frc consts  --      6.2519                 6.2442                 6.2787
 IR Inten    --     38.0466                54.7970                15.9529

                    121                    122                    123
                      A                      A                      A
 Frequencies --   3129.3941              3139.5417              3744.2920
 Red. masses --      1.0917                 1.0970                 1.0660
 Frc consts  --      6.2988                 6.3709                 8.8054
 IR Inten    --     20.4996                30.1047                10.8350

 - Thermochemistry -
 -------------------
 Temperature   298.150 Kelvin.  Pressure   1.00000 Atm.
 Atom     1 has atomic number  6 and mass  12.00000

 Molecular mass:   251.18853 amu.
 Principal axes and moments of inertia in atomic units:
                           1         2         3
     Eigenvalues --  3142.228726113.600497121.82948
           X            0.99979   0.02040  -0.00293
           Y           -0.02042   0.99978  -0.00569
           Z            0.00282   0.00575   0.99998
 This molecule is an asymmetric top.
 Rotational symmetry number  1.
 Warning -- assumption of classical behavior for rotation
           may cause significant error
 Rotational temperatures (Kelvin)      0.02756     0.01417     0.01216
 Rotational constants (GHZ):           0.57435     0.29520     0.25341
 Zero-point vibrational energy    1023623.3 (Joules/Mol)
                                  244.65183 (Kcal/Mol)
 Warning -- explicit consideration of  28 degrees of freedom as
           vibrations may cause significant error
 Vibrational temperatures:     66.22    93.52   124.29   156.55   164.96
          (Kelvin)            193.10   220.35   258.57   280.06   309.56
                              344.78   356.03   380.71   413.36   433.13
                              454.95   479.41   491.17   503.09   567.77
                              596.96   654.98   657.65   673.81   730.79
                              770.76   782.80   844.37   933.23   970.85
                              989.41  1081.71  1145.80  1165.45  1183.74
                             1227.59  1253.10  1264.67  1270.18  1306.23
                             1342.80  1361.04  1408.05  1419.36  1435.35
                             1452.15  1470.11  1492.25  1510.24  1539.55
                             1548.45  1584.19  1607.71  1612.07  1637.96
                             1643.71  1653.79  1689.61  1711.76  1725.93
                             1748.36  1764.12  1806.32  1827.65  1842.68
                             1867.95  1883.80  1901.56  1914.92  1922.52
                             1931.03  1948.04  1957.57  1969.84  1991.17
                             2003.68  2008.50  2021.03  2029.67  2036.86
                             2041.16  2046.48  2057.51  2068.02  2075.00
                             2081.53  2170.71  2174.27  2177.27  2186.07
                             2189.43  2191.19  2195.46  2197.77  2210.67
                             2221.31  2239.55  3390.38  4272.70  4349.16
                             4349.90  4353.19  4360.57  4366.52  4370.02
                             4386.58  4395.74  4400.10  4401.69  4405.51
                             4408.48  4418.87  4420.77  4421.70  4444.25
                             4452.01  4467.39  4475.75  4480.76  4485.91
                             4502.50  4517.10  5387.20

 Zero-point correction=                           0.389878 (Hartree/Particle)
 Thermal correction to Energy=                    0.407393
 Thermal correction to Enthalpy=                  0.408337
 Thermal correction to Gibbs Free Energy=         0.345832
 Sum of electronic and zero-point Energies=           -791.501013
 Sum of electronic and thermal Energies=              -791.483498
 Sum of electronic and thermal Enthalpies=            -791.482553
 Sum of electronic and thermal Free Energies=         -791.545059

                     E (Thermal)             CV                S
                      KCal/Mol        Cal/Mol-Kelvin    Cal/Mol-Kelvin
 Total                  255.643             69.942            131.553
 Electronic               0.000              0.000              0.000
 Translational            0.889              2.981             42.463
 Rotational               0.889              2.981             33.281
 Vibrational            253.865             63.981             55.809
 Vibration     1          0.595              1.979              4.981
 Vibration     2          0.597              1.971              4.299
 Vibration     3          0.601              1.959              3.740
 Vibration     4          0.606              1.942              3.290
 Vibration     5          0.608              1.937              3.189
 Vibration     6          0.613              1.919              2.885
 Vibration     7          0.619              1.899              2.633
 Vibration     8          0.629              1.867              2.331
 Vibration     9          0.635              1.847              2.183
 Vibration    10          0.645              1.818              2.000
 Vibration    11          0.657              1.780              1.806
 Vibration    12          0.661              1.767              1.749
 Vibration    13          0.671              1.738              1.631
 Vibration    14          0.684              1.697              1.490
 Vibration    15          0.693              1.672              1.411
 Vibration    16          0.703              1.643              1.330
 Vibration    17          0.715              1.609              1.244
 Vibration    18          0.721              1.593              1.206
 Vibration    19          0.727              1.576              1.168
 Vibration    20          0.762              1.482              0.983
 Vibration    21          0.778              1.438              0.909
 Vibration    22          0.814              1.349              0.780
 Vibration    23          0.815              1.345              0.775
 Vibration    24          0.826              1.320              0.742
 Vibration    25          0.863              1.232              0.639
 Vibration    26          0.891              1.171              0.575
 Vibration    27          0.899              1.153              0.557
 Vibration    28          0.944              1.060              0.473

 Optimization completed.
    -- Stationary point found.
 Normal termination of Gaussian 16 at Fri Dec 11 19:14:31 2020.

 ----------------------------------------------------------------------
 # B3LYP/6-311++G(d,p) empiricaldispersion=gd3bj scf=xqc pop=npa geom=c
 heck
 ----------------------------------------------------------------------

 --------------------------------------
 CID_80603931_JID_8098_Energie_neutraal
 --------------------------------------
 Structure from the checkpoint file:  "JID_8098.chk"
 Charge =  0 Multiplicity = 1

 SCF Done:  E(RB3LYP) =  -792.117414652     A.U. after   14 cycles
 Normal termination of Gaussian 16 at Fri Dec 11 19:26:31 2020.

 ----------------------------------------------------------------------
 # B3LYP/6-311++G(d,p) empiricaldispersion=gd3bj scf=xqc pop=npa geom=c
 heck
 ----------------------------------------------------------------------

 ------------------------------------
 CID_80603931_JID_8098_Energie_kation
 ------------------------------------
 Structure from the checkpoint file:  "JID_8098.chk"
 Charge =  1 Multiplicity = 2

 SCF Done:  E(UB3LYP) =  -791.782924167     A.U. after   27 cycles
 Normal termination of Gaussian 16 at Fri Dec 11 20:00:47 2020.
 Gaussian 16:  ES64L-G16RevA.03 25-Dec-2016

 ----------------------------------------------------------------------
 # B3LYP/6-311++G(d,p) empiricaldispersion=gd3bj scf=xqc pop=npa geom=c
 heck
 ----------------------------------------------------------------------

 -----------------------------------
 CID_80603931_JID_8098_Energie_anion
 -----------------------------------
 Structure from the checkpoint file:  "JID_8098.chk"
 Charge = -1 Multiplicity = 2

                         Standard orientation:
 ---------------------------------------------------------------------
 Center     Atomic      Atomic             Coordinates (Angstroms)
 Number     Number       Type             X           Y           Z
 ---------------------------------------------------------------------
      1          6           0       -2.198356   -2.345866   -0.293095
      2          6           0       -2.974484   -1.525506   -1.329975
      3          6           0       -2.739710   -0.003366   -1.340676
      4          6           0       -1.259848    0.434614   -1.259259
      5          6           0       -0.754224    0.938245    0.124795
      6          6           0       -0.772548   -0.112861    1.269433
      7          6           0       -2.153345   -0.650533    1.706341
      8          6           0       -2.493637   -2.059489    1.184136
      9          6           0       -1.646723    2.043909    0.532176
     10          7           0       -2.366581    2.887094    0.876094
     11          6           0        0.680076    1.596211    0.021404
     12          6           0        1.944263    0.707367   -0.093457
     13          6           0        1.942476   -0.415787   -1.144845
     14          6           0        3.340661   -1.045802   -1.228599
     15          6           0        3.815833   -1.462324    0.163548
     16          8           0        3.791244   -0.369137    1.071673
     17          6           0        2.477667    0.145543    1.236943
     18          8           0        0.688491    2.576500   -1.013665
     19          1           0       -1.121134   -2.234817   -0.476700
     20          1           0       -2.410448   -3.407052   -0.477552
     21          1           0       -2.712012   -1.919402   -2.321754
     22          1           0       -4.050043   -1.711328   -1.206757
     23          1           0       -3.315960    0.483117   -0.549768
     24          1           0       -3.160718    0.385001   -2.275187
     25          1           0       -1.108228    1.265052   -1.953869
     26          1           0       -0.615597   -0.380974   -1.595101
     27          1           0       -0.284903    0.355325    2.131831
     28          1           0       -0.132584   -0.947830    0.972377
     29          1           0       -2.934784    0.063130    1.434377
     30          1           0       -2.176663   -0.691738    2.801228
     31          1           0       -3.554285   -2.260292    1.386690
     32          1           0       -1.928908   -2.790881    1.778824
     33          1           0        0.800789    2.181829    0.939817
     34          1           0        2.709646    1.432412   -0.402738
     35          1           0        1.219601   -1.193048   -0.864615
     36          1           0        1.638160   -0.042129   -2.131193
     37          1           0        3.335108   -1.915776   -1.896870
     38          1           0        4.049696   -0.317122   -1.640859
     39          1           0        3.180204   -2.280715    0.546730
     40          1           0        4.850007   -1.817381    0.143874
     41          1           0        2.552418    0.937635    1.988542
     42          1           0        1.826513   -0.645318    1.635864
     43          1           0        0.823710    2.117605   -1.857130
 ---------------------------------------------------------------------

 SCF Done:  E(UB3LYP) =  -792.111882542     A.U. after   30 cycles

 The electronic state is 2-A.
 Alpha  occ. eigenvalues --  -19.04173 -19.03945 -14.22023 -10.15385 -10.13943
 Alpha  occ. eigenvalues --  -10.13310 -10.12708 -10.11749 -10.09672 -10.09607
 Alpha  occ. eigenvalues --  -10.08750 -10.08442 -10.08262 -10.07922 -10.07793
 Alpha  occ. eigenvalues --  -10.07721 -10.07398 -10.07211  -0.95498  -0.94813
 Alpha  occ. eigenvalues --   -0.82027  -0.75909  -0.72485  -0.70601  -0.69175
 Alpha  occ. eigenvalues --   -0.68446  -0.62710  -0.60029  -0.58609  -0.56237
 Alpha  occ. eigenvalues --   -0.54636  -0.51668  -0.50203  -0.48708  -0.46814
 Alpha  occ. eigenvalues --   -0.42710  -0.41341  -0.41302  -0.39452  -0.39014
 Alpha  occ. eigenvalues --   -0.38436  -0.37372  -0.36327  -0.35528  -0.34336
 Alpha  occ. eigenvalues --   -0.33918  -0.32912  -0.32415  -0.32269  -0.30543
 Alpha  occ. eigenvalues --   -0.29870  -0.29090  -0.28408  -0.28010  -0.27603
 Alpha  occ. eigenvalues --   -0.26867  -0.26512  -0.25796  -0.25153  -0.25022
 Alpha  occ. eigenvalues --   -0.24051  -0.23728  -0.23407  -0.22674  -0.22436
 Alpha  occ. eigenvalues --   -0.22102  -0.21128  -0.19840  -0.17013   0.03701
 Alpha virt. eigenvalues --    0.05896   0.06501   0.06956   0.07805   0.08234
 Alpha virt. eigenvalues --    0.08545   0.08835   0.09773   0.10156   0.10265
 Alpha virt. eigenvalues --    0.10949   0.11135   0.11349   0.11666   0.11780

  Beta  occ. eigenvalues --  -19.04149 -19.03940 -14.22021 -10.15378 -10.13941
  Beta  occ. eigenvalues --  -10.13304 -10.12690 -10.11748 -10.09665 -10.09604
  Beta  occ. eigenvalues --  -10.08729 -10.08408 -10.08256 -10.07898 -10.07787
  Beta  occ. eigenvalues --  -10.07705 -10.07381 -10.07189  -0.95486  -0.94764
  Beta  occ. eigenvalues --   -0.82022  -0.75890  -0.72453  -0.70568  -0.69150
  Beta  occ. eigenvalues --   -0.68417  -0.62678  -0.59991  -0.58575  -0.56187
  Beta  occ. eigenvalues --   -0.54598  -0.51631  -0.50165  -0.48656  -0.46762
  Beta  occ. eigenvalues --   -0.42664  -0.41303  -0.41261  -0.39423  -0.38991
  Beta  occ. eigenvalues --   -0.38417  -0.37348  -0.36307  -0.35481  -0.34306
  Beta  occ. eigenvalues --   -0.33891  -0.32878  -0.32393  -0.32233  -0.30514
  Beta  occ. eigenvalues --   -0.29830  -0.29067  -0.28385  -0.27992  -0.27581
  Beta  occ. eigenvalues --   -0.26839  -0.26485  -0.25771  -0.25124  -0.24994
  Beta  occ. eigenvalues --   -0.24032  -0.23717  -0.23378  -0.22640  -0.22407
  Beta  occ. eigenvalues --   -0.22073  -0.21100  -0.19817  -0.16979
  Beta virt. eigenvalues --    0.05972   0.06715   0.07031   0.07425   0.08155
  Beta virt. eigenvalues --    0.08487   0.08816   0.09427   0.10019   0.10363
  Beta virt. eigenvalues --    0.10521   0.11155   0.11302   0.11397   0.11776

 Mulliken charges and spin densities:
               1          2
     1  C   -0.098991   0.145950
     2  C    0.898210  -1.622751
     3  C   -0.067912  -0.144102
     4  C   -0.827840   0.347308
     5  C    1.698579  -0.145627
     6  C   -0.801594   0.384867
     7  C   -0.208157  -0.171572
     8  C    0.135254  -0.706287
     9  C   -0.743525  -0.188467
    10  N   -0.236224   0.000714
    11  C   -0.155801  -0.026382
    12  C    0.137217  -0.290691
    13  C   -0.077105   0.256823
    14  C   -0.009461  -0.544102
    15  C    0.376113  -0.694325
    16  O   -0.114985   0.032743
    17  C   -0.450299  -0.241230
    18  O   -0.090664  -0.043318
    19  H   -0.986056   1.133064
    20  H   -0.337579   0.540934
    21  H   -0.256082   0.429783
    22  H    0.124231   0.006219
    23  H    0.165761  -0.016741
    24  H   -0.004658   0.181234
    25  H   -0.115445   0.335590
    26  H    0.110530   0.014299
    27  H    0.220150   0.008918
    28  H    0.718796  -0.649982
    29  H    0.212963  -0.065601
    30  H   -0.004885   0.170990
    31  H   -0.032806   0.173048
    32  H   -0.166543   0.329683
    33  H    0.173572   0.082723
    34  H    0.155126   0.087627
    35  H    1.246873  -1.126054
    36  H   -0.950276   1.118535
    37  H   -0.604032   0.788659
    38  H    0.067000   0.081759
    39  H   -0.222556   0.335334
    40  H   -0.008586   0.204540
    41  H    0.143907   0.019913
    42  H   -0.178964   0.376014
    43  H    0.166746   0.089961
 Sum of Mulliken charges =  -1.00000   1.00000

 Dipole moment (field-independent basis, Debye):
    X=             -0.3226    Y=              2.2235    Z=              3.8114  Tot=              4.4244
 Quadrupole moment (field-independent basis, Debye-Ang):
   XX=           -173.7187   YY=           -180.5747   ZZ=           -161.1695
   XY=              8.1451   XZ=              4.0424   YZ=             -4.9477

 Summary of Natural Population Analysis:

                                       Natural Population
                Natural  -----------------------------------------------
    Atom  No    Charge         Core      Valence    Rydberg      Total
 -----------------------------------------------------------------------
      C    1   -0.19380      0.99962     2.18571    0.00847     3.19380
      C    2   -0.18661      0.99962     2.17852    0.00847     3.18661
      C    3   -0.19284      0.99962     2.18487    0.00835     3.19284
      C    4   -0.19771      0.99959     2.18539    0.01272     3.19771
      C    5   -0.08634      0.99945     2.07510    0.01178     3.08634
      C    6   -0.19184      0.99959     2.18229    0.00996     3.19184
      C    7   -0.19340      0.99962     2.18560    0.00818     3.19340
      C    8   -0.18666      0.99962     2.17860    0.00844     3.18666
      C    9    0.17189      0.99962     1.80536    0.02313     2.82811
      N   10   -0.18705      0.99978     2.67617    0.01110     3.68705
      C   11    0.08201      0.99950     1.90271    0.01578     2.91799
      C   12   -0.13808      0.99955     2.12795    0.01058     3.13808
      C   13   -0.19900      0.99960     2.18813    0.01127     3.19900
      C   14   -0.20089      0.99963     2.19226    0.00900     3.20089
      C   15   -0.00948      0.99958     1.99690    0.01300     3.00948
      O   16   -0.29968      0.99989     3.29102    0.00877     4.29968
      C   17   -0.00460      0.99954     1.99431    0.01075     3.00460
      O   18   -0.36655      0.99990     3.36056    0.00609     4.36655
      H   19    0.09377      0.00000     0.40390    0.00233     0.40623
      H   20    0.10285      0.00000     0.39585    0.00130     0.39715
      H   21    0.09966      0.00000     0.39900    0.00133     0.40034
      H   22    0.09418      0.00000     0.40490    0.00093     0.40582
      H   23    0.09792      0.00000     0.40045    0.00163     0.40208
      H   24    0.10159      0.00000     0.39748    0.00093     0.39841
      H   25    0.10669      0.00000     0.39125    0.00206     0.39331
      H   26    0.10860      0.00000     0.38904    0.00236     0.39140
      H   27    0.10181      0.00000     0.39694    0.00125     0.39819
      H   28    0.10524      0.00000     0.39238    0.00238     0.39476
      H   29    0.10003      0.00000     0.39839    0.00158     0.39997
      H   30    0.10026      0.00000     0.39890    0.00085     0.39974
      H   31    0.09503      0.00000     0.40406    0.00091     0.40497
      H   32    0.09792      0.00000     0.40085    0.00123     0.40208
      H   33    0.09049      0.00000     0.40772    0.00179     0.40951
      H   34    0.10830      0.00000     0.38982    0.00189     0.39170
      H   35    0.09715      0.00000     0.39967    0.00318     0.40285
      H   36    0.10456      0.00000     0.39265    0.00279     0.39544
      H   37    0.10619      0.00000     0.39215    0.00166     0.39381
      H   38    0.09646      0.00000     0.40223    0.00130     0.40354
      H   39    0.07851      0.00000     0.41999    0.00150     0.42149
      H   40    0.09115      0.00000     0.40768    0.00116     0.40885
      H   41    0.09010      0.00000     0.40873    0.00117     0.40990
      H   42    0.08113      0.00000     0.41735    0.00152     0.41887
      H   43    0.23104      0.00000     0.26581    0.00315     0.26896
 =======================================================================
   * Total *    0.00000     17.99333    50.76865    0.23802    69.00000

 Normal termination of Gaussian 16 at Fri Dec 11 20:38:06 2020.
