 Gaussian 16, Revision A.03,

 -----------------------------------------------------------
 # opt freq B3LYP/6-31G(d) empiricaldispersion=gd3bj scf=xqc
 -----------------------------------------------------------

 ------------------------------
 CID_81675215_JID_8111_neutraal
 ------------------------------
 Symbolic Z-matrix:
 Charge =  0 Multiplicity = 1

 SCF Done:  E(RB3LYP) =  -817.714679669     A.U. after   15 cycles
 SCF Done:  E(RB3LYP) =  -817.721327053     A.U. after   12 cycles
 SCF Done:  E(RB3LYP) =  -817.722736602     A.U. after   12 cycles
 SCF Done:  E(RB3LYP) =  -817.723705386     A.U. after   12 cycles
 SCF Done:  E(RB3LYP) =  -817.723092687     A.U. after   13 cycles
 SCF Done:  E(RB3LYP) =  -817.724757481     A.U. after   13 cycles
 SCF Done:  E(RB3LYP) =  -817.725465582     A.U. after   12 cycles
 SCF Done:  E(RB3LYP) =  -817.725757330     A.U. after   11 cycles
 SCF Done:  E(RB3LYP) =  -817.725878061     A.U. after   12 cycles
 SCF Done:  E(RB3LYP) =  -817.725970481     A.U. after   11 cycles
 SCF Done:  E(RB3LYP) =  -817.726046647     A.U. after    9 cycles
 SCF Done:  E(RB3LYP) =  -817.726047360     A.U. after    8 cycles
 SCF Done:  E(RB3LYP) =  -817.726048256     A.U. after    8 cycles
 SCF Done:  E(RB3LYP) =  -817.726048522     A.U. after    8 cycles
 SCF Done:  E(RB3LYP) =  -817.726048634     A.U. after    7 cycles
 Optimization completed.
    -- Stationary point found.
 Normal termination of Gaussian 16 at Fri Dec 11 18:46:27 2020.

 --------------------------------------------------------------------
 #N Geom=AllCheck Guess=TCheck SCRF=Check GenChk RB3LYP/6-31G(d) Freq
 --------------------------------------------------------------------

 Structure from the checkpoint file:  "JID_8111.chk"
 ------------------------------
 CID_81675215_JID_8111_neutraal
 ------------------------------
 Charge =  0 Multiplicity = 1

 SCF Done:  E(RB3LYP) =  -817.726048634     A.U. after    1 cycles

  Exact polarizability: 202.376 -15.634 174.044  -7.404  -2.279 101.405
 Approx polarizability: 272.262 -18.941 277.942 -12.075  -8.863 157.741

                      1                      2                      3
                      A                      A                      A
 Frequencies --     29.0038                34.8032                35.9475
 Red. masses --      4.2251                 4.2000                 2.8886
 Frc consts  --      0.0021                 0.0030                 0.0022
 IR Inten    --      3.3471                 0.5113                 0.1649

                      4                      5                      6
                      A                      A                      A
 Frequencies --     48.7888                67.1062                88.3574
 Red. masses --      4.3557                 3.9345                 4.9284
 Frc consts  --      0.0061                 0.0104                 0.0227
 IR Inten    --      0.1508                 2.3740                 0.5826

                      7                      8                      9
                      A                      A                      A
 Frequencies --    130.6610               144.1003               197.1591
 Red. masses --      4.6008                 3.6173                 1.2548
 Frc consts  --      0.0463                 0.0443                 0.0287
 IR Inten    --      1.8855                 1.6422                 1.6647

                     10                     11                     12
                      A                      A                      A
 Frequencies --    197.7420               209.4769               230.9022
 Red. masses --      2.7903                 2.9956                 1.5938
 Frc consts  --      0.0643                 0.0774                 0.0501
 IR Inten    --      1.5148                 0.1718                 0.3979

                     13                     14                     15
                      A                      A                      A
 Frequencies --    242.9039               266.9550               299.7244
 Red. masses --      1.6041                 1.1843                 2.9823
 Frc consts  --      0.0558                 0.0497                 0.1579
 IR Inten    --      0.1933                 0.0260                 7.4473

                     16                     17                     18
                      A                      A                      A
 Frequencies --    313.9518               319.6436               353.8969
 Red. masses --      3.3672                 2.3062                 3.7965
 Frc consts  --      0.1955                 0.1388                 0.2801
 IR Inten    --      0.1329                 0.7933                 0.5945

                     19                     20                     21
                      A                      A                      A
 Frequencies --    374.9353               387.0349               404.4151
 Red. masses --      2.2322                 5.7304                 2.8108
 Frc consts  --      0.1849                 0.5058                 0.2709
 IR Inten    --      0.1715                 0.4334                 0.3894

                     22                     23                     24
                      A                      A                      A
 Frequencies --    457.4302               483.1043               524.5788
 Red. masses --      3.0081                 2.2388                 4.4583
 Frc consts  --      0.3708                 0.3079                 0.7228
 IR Inten    --      5.1864                 2.3074                 1.8215

                     25                     26                     27
                      A                      A                      A
 Frequencies --    573.8974               632.4998               667.3732
 Red. masses --      2.9950                 3.6409                 4.1408
 Frc consts  --      0.5812                 0.8582                 1.0866
 IR Inten    --      0.9146                 0.6357                 5.6532

                     28                     29                     30
                      A                      A                      A
 Frequencies --    689.7054               709.4953               724.6635
 Red. masses --      6.4691                 3.9969                 1.9794
 Frc consts  --      1.8131                 1.1854                 0.6124
 IR Inten    --      9.2498                10.0284                73.7071

                     31                     32                     33
                      A                      A                      A
 Frequencies --    732.9386               744.9353               767.0968
 Red. masses --      2.3202                 1.4634                 2.4647
 Frc consts  --      0.7343                 0.4785                 0.8545
 IR Inten    --     12.5390                13.6937                 4.4477

                     34                     35                     36
                      A                      A                      A
 Frequencies --    799.0074               838.9066               852.5512
 Red. masses --      3.7923                 2.8080                 1.3096
 Frc consts  --      1.4264                 1.1643                 0.5608
 IR Inten    --     15.0694                 1.7940                 5.2844

                     37                     38                     39
                      A                      A                      A
 Frequencies --    875.5740               904.3395               930.2803
 Red. masses --      1.9954                 9.7007                 1.4877
 Frc consts  --      0.9013                 4.6743                 0.7586
 IR Inten    --     27.2578                56.5751                 1.0164

                     40                     41                     42
                      A                      A                      A
 Frequencies --    931.8874               935.3501               948.8136
 Red. masses --      6.2614                 1.6202                 1.4007
 Frc consts  --      3.2037                 0.8351                 0.7430
 IR Inten    --      9.9561                 0.6487                 0.2897

                     43                     44                     45
                      A                      A                      A
 Frequencies --    995.0164              1002.1881              1017.7714
 Red. masses --      1.8623                10.5087                 2.3857
 Frc consts  --      1.0863                 6.2187                 1.4560
 IR Inten    --      3.4009                 4.5304                 2.7644

                     46                     47                     48
                      A                      A                      A
 Frequencies --   1066.0626              1075.7823              1081.8785
 Red. masses --      2.7572                 1.9766                 2.9830
 Frc consts  --      1.8462                 1.3478                 2.0571
 IR Inten    --      1.3095                16.8466                 4.1161

                     49                     50                     51
                      A                      A                      A
 Frequencies --   1111.8477              1143.6015              1150.2611
 Red. masses --      1.2631                 2.0951                 2.0457
 Frc consts  --      0.9200                 1.6144                 1.5947
 IR Inten    --      6.1898                21.8339                32.9356

                     52                     53                     54
                      A                      A                      A
 Frequencies --   1158.6850              1172.9270              1181.1792
 Red. masses --      1.3051                 3.1569                 1.5410
 Frc consts  --      1.0323                 2.5589                 1.2667
 IR Inten    --      2.8184                18.6531                12.9921

                     55                     56                     57
                      A                      A                      A
 Frequencies --   1193.8462              1197.0306              1217.8474
 Red. masses --      1.9896                 2.0353                 2.2250
 Frc consts  --      1.6708                 1.7183                 1.9443
 IR Inten    --     41.9832                11.5619                25.0583

                     58                     59                     60
                      A                      A                      A
 Frequencies --   1266.5168              1307.9985              1318.6519
 Red. masses --      1.5154                 1.8072                 2.8238
 Frc consts  --      1.4322                 1.8217                 2.8930
 IR Inten    --     12.1249                 2.0523                 7.3310

                     61                     62                     63
                      A                      A                      A
 Frequencies --   1330.8397              1357.6198              1361.5551
 Red. masses --      2.8438                 2.1376                 1.3731
 Frc consts  --      2.9676                 2.3213                 1.4997
 IR Inten    --     22.8209                90.3163                 9.2423

                     64                     65                     66
                      A                      A                      A
 Frequencies --   1367.9810              1390.5170              1396.3992
 Red. masses --      1.3801                 3.8315                 1.6664
 Frc consts  --      1.5217                 4.3648                 1.9145
 IR Inten    --      7.9782                20.6119                 6.3100

                     67                     68                     69
                      A                      A                      A
 Frequencies --   1406.6406              1421.9659              1427.0712
 Red. masses --      1.3934                 1.2740                 1.2969
 Frc consts  --      1.6244                 1.5177                 1.5561
 IR Inten    --      6.9067                10.3848                 6.9728

                     70                     71                     72
                      A                      A                      A
 Frequencies --   1441.0824              1442.5993              1477.4863
 Red. masses --      1.5260                 2.4093                 1.6065
 Frc consts  --      1.8672                 2.9542                 2.0662
 IR Inten    --     45.8697                36.4249                14.0777

                     73                     74                     75
                      A                      A                      A
 Frequencies --   1503.0023              1509.6064              1511.6067
 Red. masses --      1.0896                 1.0836                 1.1702
 Frc consts  --      1.4502                 1.4550                 1.5754
 IR Inten    --      1.1241                 3.9424                12.2318

                     76                     77                     78
                      A                      A                      A
 Frequencies --   1514.0766              1515.6051              1516.7032
 Red. masses --      1.0577                 1.0759                 1.0764
 Frc consts  --      1.4286                 1.4561                 1.4589
 IR Inten    --     12.3971                 4.1644                 1.7541

                     79                     80                     81
                      A                      A                      A
 Frequencies --   1525.6226              1528.9526              1531.4769
 Red. masses --      1.7269                 2.1509                 1.3109
 Frc consts  --      2.3682                 2.9625                 1.8116
 IR Inten    --      3.8745                24.5934                47.7490

                     82                     83                     84
                      A                      A                      A
 Frequencies --   1539.4401              1543.7755              1548.6148
 Red. masses --      1.0665                 1.3128                 1.2049
 Frc consts  --      1.4891                 1.8433                 1.7025
 IR Inten    --     11.5739                25.8940                51.7334

                     85                     86                     87
                      A                      A                      A
 Frequencies --   1615.5387              1628.7307              3029.7599
 Red. masses --      9.6351                 9.0505                 1.0809
 Frc consts  --     14.8163                14.1456                 5.8458
 IR Inten    --    106.7800                52.4529                 9.4579

                     88                     89                     90
                      A                      A                      A
 Frequencies --   3037.0385              3040.4926              3043.9621
 Red. masses --      1.0393                 1.0625                 1.0423
 Frc consts  --      5.6478                 5.7873                 5.6901
 IR Inten    --     15.3263                28.2740                39.0021

                     91                     92                     93
                      A                      A                      A
 Frequencies --   3054.2818              3078.5863              3084.9342
 Red. masses --      1.0628                 1.1019                 1.0320
 Frc consts  --      5.8413                 6.1533                 5.7865
 IR Inten    --     26.6784                29.4069                19.9727

                     94                     95                     96
                      A                      A                      A
 Frequencies --   3090.8391              3097.7606              3102.5863
 Red. masses --      1.0638                 1.0999                 1.0995
 Frc consts  --      5.9877                 6.2185                 6.2356
 IR Inten    --      9.6912                 3.8366                51.7084

                     97                     98                     99
                      A                      A                      A
 Frequencies --   3108.0380              3133.5350              3137.4361
 Red. masses --      1.0981                 1.0985                 1.1019
 Frc consts  --      6.2501                 6.3552                 6.3904
 IR Inten    --    104.2871                34.1701                28.8877

                    100                    101                    102
                      A                      A                      A
 Frequencies --   3141.3194              3161.0694              3172.4205
 Red. masses --      1.1041                 1.1059                 1.1063
 Frc consts  --      6.4190                 6.5107                 6.5600
 IR Inten    --      5.9178                13.3548                 6.7158

                    103                    104                    105
                      A                      A                      A
 Frequencies --   3261.9931              3288.4261              3519.8692
 Red. masses --      1.0918                 1.1035                 1.0741
 Frc consts  --      6.8451                 7.0307                 7.8404
 IR Inten    --      8.6328                 3.8035                29.3562

 - Thermochemistry -
 -------------------
 Temperature   298.150 Kelvin.  Pressure   1.00000 Atm.
 Atom     1 has atomic number  6 and mass  12.00000

 Molecular mass:   249.15896 amu.
 Principal axes and moments of inertia in atomic units:
                           1         2         3
     Eigenvalues --  2818.406746669.619698880.37689
           X            0.99999  -0.00214  -0.00376
           Y            0.00212   0.99998  -0.00642
           Z            0.00377   0.00641   0.99997
 This molecule is an asymmetric top.
 Rotational symmetry number  1.
 Warning -- assumption of classical behavior for rotation
           may cause significant error
 Rotational temperatures (Kelvin)      0.03073     0.01299     0.00975
 Rotational constants (GHZ):           0.64034     0.27059     0.20323
 Zero-point vibrational energy     829609.6 (Joules/Mol)
                                  198.28144 (Kcal/Mol)
 Warning -- explicit consideration of  25 degrees of freedom as
           vibrations may cause significant error
 Vibrational temperatures:     41.73    50.07    51.72    70.20    96.55
          (Kelvin)            127.13   187.99   207.33   283.67   284.51
                              301.39   332.22   349.48   384.09   431.24
                              451.71   459.90   509.18   539.45   556.86
                              581.86   658.14   695.08   754.75   825.71
                              910.03   960.20   992.33  1020.81  1042.63
                             1054.54  1071.80  1103.68  1149.59  1207.00
                             1226.63  1259.76  1301.14  1338.47  1340.78
                             1345.76  1365.13  1431.61  1441.93  1464.35
                             1533.83  1547.81  1556.58  1599.70  1645.39
                             1654.97  1667.09  1687.58  1699.45  1717.68
                             1722.26  1752.21  1822.24  1881.92  1897.25
                             1914.78  1953.31  1958.97  1968.22  2000.64
                             2009.11  2023.84  2045.89  2053.24  2073.40
                             2075.58  2125.77  2162.49  2171.99  2174.86
                             2178.42  2180.62  2182.20  2195.03  2199.82
                             2203.45  2214.91  2221.15  2228.11  2324.40
                             2343.38  4359.15  4369.62  4374.59  4379.58
                             4394.43  4429.40  4438.53  4447.03  4456.99
                             4463.93  4471.77  4508.46  4514.07  4519.66
                             4548.07  4564.41  4693.28  4731.31  5064.31

 Zero-point correction=                           0.315982 (Hartree/Particle)
 Thermal correction to Energy=                    0.333654
 Thermal correction to Enthalpy=                  0.334598
 Thermal correction to Gibbs Free Energy=         0.268640
 Sum of electronic and zero-point Energies=           -817.410067
 Sum of electronic and thermal Energies=              -817.392394
 Sum of electronic and thermal Enthalpies=            -817.391450
 Sum of electronic and thermal Free Energies=         -817.457408

                     E (Thermal)             CV                S
                      KCal/Mol        Cal/Mol-Kelvin    Cal/Mol-Kelvin
 Total                  209.371             66.259            138.820
 Electronic               0.000              0.000              0.000
 Translational            0.889              2.981             42.439
 Rotational               0.889              2.981             33.478
 Vibrational            207.594             60.297             62.903
 Vibration     1          0.593              1.984              5.896
 Vibration     2          0.594              1.983              5.535
 Vibration     3          0.594              1.982              5.471
 Vibration     4          0.595              1.978              4.866
 Vibration     5          0.598              1.970              4.236
 Vibration     6          0.601              1.957              3.696
 Vibration     7          0.612              1.923              2.936
 Vibration     8          0.616              1.909              2.749
 Vibration     9          0.637              1.844              2.159
 Vibration    10          0.637              1.843              2.154
 Vibration    11          0.642              1.826              2.048
 Vibration    12          0.653              1.794              1.872
 Vibration    13          0.659              1.774              1.782
 Vibration    14          0.672              1.734              1.616
 Vibration    15          0.692              1.674              1.418
 Vibration    16          0.702              1.647              1.341
 Vibration    17          0.706              1.636              1.312
 Vibration    18          0.730              1.567              1.149
 Vibration    19          0.746              1.523              1.060
 Vibration    20          0.755              1.498              1.012
 Vibration    21          0.770              1.461              0.947
 Vibration    22          0.816              1.344              0.774
 Vibration    23          0.839              1.288              0.702
 Vibration    24          0.880              1.196              0.599
 Vibration    25          0.930              1.088              0.497

 Optimization completed.
    -- Stationary point found.
 Normal termination of Gaussian 16 at Fri Dec 11 19:01:54 2020.

 ----------------------------------------------------------------------
 # B3LYP/6-311++G(d,p) empiricaldispersion=gd3bj scf=xqc pop=npa geom=c
 heck
 ----------------------------------------------------------------------

 --------------------------------------
 CID_81675215_JID_8111_Energie_neutraal
 --------------------------------------
 Structure from the checkpoint file:  "JID_8111.chk"
 Charge =  0 Multiplicity = 1

 SCF Done:  E(RB3LYP) =  -817.945803892     A.U. after   15 cycles
 Normal termination of Gaussian 16 at Fri Dec 11 19:07:51 2020.

 ----------------------------------------------------------------------
 # B3LYP/6-311++G(d,p) empiricaldispersion=gd3bj scf=xqc pop=npa geom=c
 heck
 ----------------------------------------------------------------------

 ------------------------------------
 CID_81675215_JID_8111_Energie_kation
 ------------------------------------
 Structure from the checkpoint file:  "JID_8111.chk"
 Charge =  1 Multiplicity = 2

 SCF Done:  E(UB3LYP) =  -817.659321223     A.U. after   25 cycles
 Normal termination of Gaussian 16 at Fri Dec 11 19:21:15 2020.
 Gaussian 16:  ES64L-G16RevA.03 25-Dec-2016

 ----------------------------------------------------------------------
 # B3LYP/6-311++G(d,p) empiricaldispersion=gd3bj scf=xqc pop=npa geom=c
 heck
 ----------------------------------------------------------------------

 -----------------------------------
 CID_81675215_JID_8111_Energie_anion
 -----------------------------------
 Structure from the checkpoint file:  "JID_8111.chk"
 Charge = -1 Multiplicity = 2

                         Standard orientation:
 ---------------------------------------------------------------------
 Center     Atomic      Atomic             Coordinates (Angstroms)
 Number     Number       Type             X           Y           Z
 ---------------------------------------------------------------------
      1          6           0       -3.049425   -2.869409    0.026053
      2          6           0       -3.359290   -1.385742   -0.205341
      3          6           0       -4.018231   -0.780629    1.049069
      4          7           0       -2.132353   -0.728411   -0.652597
      5          6           0       -2.213112    0.523955   -1.388457
      6          6           0       -2.562453    1.828211   -0.631275
      7          6           0       -1.751449    2.044343    0.669643
      8          6           0       -0.294639    1.807173    0.470784
      9          7           0        0.335648    0.668875    0.552406
     10          6           0        1.620968    0.996245    0.155425
     11          7           0        1.785752    2.268903   -0.144897
     12          8           0        0.498205    2.810600    0.071709
     13          6           0        2.690723    0.017380    0.062809
     14          7           0        3.980511    0.312228   -0.038190
     15          6           0        4.625523   -0.888132   -0.118967
     16          6           0        3.719058   -1.924752   -0.069748
     17          7           0        2.477709   -1.346434    0.046064
     18          6           0        1.221259   -2.087809    0.116626
     19          1           0       -2.315287   -2.982966    0.835126
     20          1           0       -2.626898   -3.315587   -0.878602
     21          1           0       -3.948109   -3.426583    0.313503
     22          1           0       -4.071638   -1.309039   -1.038722
     23          1           0       -3.323408   -0.815690    1.898471
     24          1           0       -4.316541    0.260202    0.894855
     25          1           0       -4.914797   -1.344511    1.333149
     26          1           0       -1.441969   -0.665281    0.091517
     27          1           0       -1.239883    0.670886   -1.873404
     28          1           0       -2.939097    0.392772   -2.200419
     29          1           0       -2.380753    2.670336   -1.310959
     30          1           0       -3.625090    1.860492   -0.367859
     31          1           0       -1.910446    3.059611    1.044496
     32          1           0       -2.091238    1.344611    1.437225
     33          1           0        5.701703   -0.946553   -0.206596
     34          1           0        3.834784   -2.997633   -0.106800
     35          1           0        1.440401   -3.138712   -0.080878
     36          1           0        0.771205   -1.988551    1.106704
     37          1           0        0.506953   -1.723732   -0.623706
 ---------------------------------------------------------------------

 SCF Done:  E(UB3LYP) =  -817.946219672     A.U. after   33 cycles
 SCF Done:  E(UB3LYP) =  -817.946219672     a.u. after    1 cycles

 The electronic state is 2-A.
 Alpha  occ. eigenvalues --  -19.07833 -14.26221 -14.21822 -14.19596 -14.18735
 Alpha  occ. eigenvalues --  -14.17775 -10.14151 -10.11645 -10.10955 -10.10873
 Alpha  occ. eigenvalues --  -10.10376 -10.09264 -10.09167 -10.08322 -10.07862
 Alpha  occ. eigenvalues --  -10.07213 -10.06437 -10.06112  -1.02996  -0.91120
 Alpha  occ. eigenvalues --   -0.81296  -0.80343  -0.78002  -0.74871  -0.68977
 Alpha  occ. eigenvalues --   -0.66008  -0.64606  -0.61540  -0.59271  -0.58697
 Alpha  occ. eigenvalues --   -0.53242  -0.51730  -0.49858  -0.48625  -0.46683
 Alpha  occ. eigenvalues --   -0.44558  -0.42479  -0.39602  -0.37761  -0.36874
 Alpha  occ. eigenvalues --   -0.36687  -0.36119  -0.35750  -0.34095  -0.33346
 Alpha  occ. eigenvalues --   -0.32990  -0.32511  -0.31272  -0.30361  -0.29843
 Alpha  occ. eigenvalues --   -0.29388  -0.29240  -0.28981  -0.27373  -0.26778
 Alpha  occ. eigenvalues --   -0.26082  -0.24901  -0.24122  -0.23096  -0.21863
 Alpha  occ. eigenvalues --   -0.21107  -0.17595  -0.17465  -0.16587  -0.15960
 Alpha  occ. eigenvalues --   -0.11848  -0.11627   0.04005
 Alpha virt. eigenvalues --    0.05925   0.06894   0.07457   0.07905   0.08457
 Alpha virt. eigenvalues --    0.09469   0.09674   0.10182   0.10504   0.10597
 Alpha virt. eigenvalues --    0.11220   0.11676   0.12607   0.12815   0.13475

  Beta  occ. eigenvalues --  -19.07548 -14.26108 -14.21355 -14.19676 -14.18730
  Beta  occ. eigenvalues --  -14.17676 -10.13957 -10.11599 -10.10956 -10.10816
  Beta  occ. eigenvalues --  -10.10367 -10.09258 -10.09129 -10.08334 -10.07892
  Beta  occ. eigenvalues --  -10.07174 -10.06422 -10.06082  -1.02514  -0.90969
  Beta  occ. eigenvalues --   -0.81180  -0.80305  -0.77818  -0.74355  -0.68882
  Beta  occ. eigenvalues --   -0.65941  -0.64431  -0.61448  -0.59203  -0.58618
  Beta  occ. eigenvalues --   -0.52961  -0.51592  -0.49800  -0.48556  -0.46523
  Beta  occ. eigenvalues --   -0.44417  -0.42384  -0.39441  -0.37476  -0.36652
  Beta  occ. eigenvalues --   -0.36568  -0.35856  -0.35407  -0.33972  -0.33245
  Beta  occ. eigenvalues --   -0.32919  -0.32321  -0.31228  -0.30273  -0.29776
  Beta  occ. eigenvalues --   -0.29265  -0.29101  -0.28798  -0.27291  -0.26696
  Beta  occ. eigenvalues --   -0.25977  -0.24804  -0.24072  -0.23033  -0.21159
  Beta  occ. eigenvalues --   -0.20725  -0.17327  -0.16665  -0.15861  -0.15664
  Beta  occ. eigenvalues --   -0.11797  -0.10685
  Beta virt. eigenvalues --    0.06196   0.07070   0.07725   0.08052   0.08550
  Beta virt. eigenvalues --    0.08852   0.09580   0.09835   0.10263   0.10762
  Beta virt. eigenvalues --    0.10944   0.11725   0.11898   0.12756   0.12787

 Mulliken charges and spin densities:
               1          2
     1  C    0.105617  -0.647534
     2  C   -1.024663   0.923794
     3  C    0.610608  -1.127033
     4  N    0.082236  -0.112399
     5  C   -0.486719   0.165395
     6  C    0.631051  -0.818503
     7  C   -1.007690   0.629144
     8  C   -0.115606  -0.200865
     9  N   -0.076216  -0.034941
    10  C    0.454758  -0.168561
    11  N   -0.387633   0.241518
    12  O    0.197122   0.061170
    13  C   -0.436237   0.000361
    14  N   -0.084670   0.041524
    15  C   -0.048422   0.026658
    16  C   -0.005795   0.027064
    17  N    0.066767   0.028750
    18  C   -0.429193  -0.068655
    19  H    0.005604   0.127748
    20  H    0.115703   0.032989
    21  H   -0.122824   0.251263
    22  H   -0.154699   0.298147
    23  H   -0.104235   0.260214
    24  H   -0.061720   0.194038
    25  H   -0.212486   0.348753
    26  H    0.723174  -0.578339
    27  H    0.177592   0.013538
    28  H   -0.044446   0.183936
    29  H    0.101670   0.046874
    30  H   -0.199104   0.356055
    31  H   -0.093992   0.305638
    32  H    0.168585  -0.004794
    33  H    0.138162   0.003846
    34  H    0.109488   0.017048
    35  H    0.095913   0.014637
    36  H    0.071367   0.155580
    37  H    0.240934   0.005942
 Sum of Mulliken charges =  -1.00000   1.00000

 Dipole moment (field-independent basis, Debye):
    X=              0.3462    Y=             -4.2680    Z=             -0.6683  Tot=              4.3338
 Quadrupole moment (field-independent basis, Debye-Ang):
   XX=           -191.0653   YY=           -145.5264   ZZ=           -128.2125
   XY=            -16.2006   XZ=              3.2643   YZ=              2.4101

 Summary of Natural Population Analysis:

                                       Natural Population
                Natural  -----------------------------------------------
    Atom  No    Charge         Core      Valence    Rydberg      Total
 -----------------------------------------------------------------------
      C    1   -0.28472      0.99965     2.27881    0.00626     3.28472
      C    2   -0.01057      0.99962     1.99968    0.01128     3.01057
      C    3   -0.29455      0.99965     2.28909    0.00581     3.29455
      N    4   -0.35864      0.99973     2.84694    0.01197     3.85864
      C    5   -0.08892      0.99962     2.07671    0.01259     3.08892
      C    6   -0.19076      0.99962     2.18322    0.00792     3.19076
      C    7   -0.22529      0.99958     2.21623    0.00947     3.22529
      C    8    0.30987      0.99962     1.66984    0.02067     2.69013
      N    9   -0.30512      0.99966     2.79656    0.00889     3.80512
      C   10    0.14029      0.99961     1.84286    0.01724     2.85971
      N   11   -0.00983      0.99968     2.49942    0.01073     3.50983
      O   12   -0.15082      0.99985     3.14257    0.00840     4.15082
      C   13    0.17371      0.99956     1.80799    0.01874     2.82629
      N   14   -0.22583      0.99970     2.71702    0.00910     3.72583
      C   15   -0.04587      0.99960     2.03237    0.01389     3.04587
      C   16   -0.03479      0.99958     2.02463    0.01058     3.03479
      N   17   -0.18238      0.99962     2.67476    0.00800     3.68238
      C   18   -0.17560      0.99964     2.16806    0.00790     3.17560
      H   19    0.09520      0.00000     0.40377    0.00102     0.40480
      H   20    0.10114      0.00000     0.39781    0.00105     0.39886
      H   21    0.09596      0.00000     0.40329    0.00074     0.40404
      H   22    0.08635      0.00000     0.41195    0.00169     0.41365
      H   23    0.09537      0.00000     0.40351    0.00113     0.40463
      H   24    0.10064      0.00000     0.39792    0.00143     0.39936
      H   25    0.09778      0.00000     0.40124    0.00098     0.40222
      H   26    0.18843      0.00000     0.30827    0.00329     0.31157
      H   27    0.09469      0.00000     0.40404    0.00127     0.40531
      H   28    0.09207      0.00000     0.40695    0.00098     0.40793
      H   29    0.09784      0.00000     0.40105    0.00111     0.40216
      H   30    0.09702      0.00000     0.40119    0.00179     0.40298
      H   31    0.11176      0.00000     0.38707    0.00118     0.38824
      H   32    0.11112      0.00000     0.38763    0.00125     0.38888
      H   33    0.09119      0.00000     0.40782    0.00099     0.40881
      H   34    0.09587      0.00000     0.40306    0.00107     0.40413
      H   35    0.09226      0.00000     0.40706    0.00068     0.40774
      H   36    0.10430      0.00000     0.39468    0.00102     0.39570
      H   37    0.11081      0.00000     0.38787    0.00132     0.38919
 =======================================================================
   * Total *    0.00000     17.99360    48.78297    0.22342    67.00000

 Normal termination of Gaussian 16 at Fri Dec 11 19:38:54 2020.
