 Gaussian 16, Revision A.03,

 -----------------------------------------------------------
 # opt freq B3LYP/6-31G(d) empiricaldispersion=gd3bj scf=xqc
 -----------------------------------------------------------

 -------------------------------
 CID_117413075_JID_9876_neutraal
 -------------------------------
 Symbolic Z-matrix:
 Charge =  0 Multiplicity = 1

 SCF Done:  E(RB3LYP) =  -864.663846038     A.U. after   14 cycles
 SCF Done:  E(RB3LYP) =  -864.670425699     A.U. after   12 cycles
 SCF Done:  E(RB3LYP) =  -864.671268797     A.U. after   12 cycles
 SCF Done:  E(RB3LYP) =  -864.672357722     A.U. after   12 cycles
 SCF Done:  E(RB3LYP) =  -864.672598064     A.U. after   10 cycles
 SCF Done:  E(RB3LYP) =  -864.672690916     A.U. after   10 cycles
 SCF Done:  E(RB3LYP) =  -864.672739933     A.U. after   10 cycles
 SCF Done:  E(RB3LYP) =  -864.672746997     A.U. after   10 cycles
 SCF Done:  E(RB3LYP) =  -864.672755527     A.U. after    9 cycles
 SCF Done:  E(RB3LYP) =  -864.672756198     A.U. after    8 cycles
 SCF Done:  E(RB3LYP) =  -864.672756372     A.U. after    7 cycles
 Optimization completed.
    -- Stationary point found.
 Normal termination of Gaussian 16 at Mon Dec 14 13:25:07 2020.

 --------------------------------------------------------------------
 #N Geom=AllCheck Guess=TCheck SCRF=Check GenChk RB3LYP/6-31G(d) Freq
 --------------------------------------------------------------------

 Structure from the checkpoint file:  "JID_9876.chk"
 -------------------------------
 CID_117413075_JID_9876_neutraal
 -------------------------------
 Charge =  0 Multiplicity = 1

 SCF Done:  E(RB3LYP) =  -864.672756372     A.U. after    1 cycles

  Exact polarizability: 236.814  -5.955 159.534   5.016  10.434 125.378
 Approx polarizability: 293.877 -11.455 255.581  18.633  24.450 194.203

                      1                      2                      3
                      A                      A                      A
 Frequencies --     31.3337                49.8237                55.7466
 Red. masses --      4.1700                 4.0939                 4.1854
 Frc consts  --      0.0024                 0.0060                 0.0077
 IR Inten    --      1.6589                 1.4987                 1.3986

                      4                      5                      6
                      A                      A                      A
 Frequencies --     91.3251               121.4012               135.0947
 Red. masses --      3.2583                 3.2922                 2.6639
 Frc consts  --      0.0160                 0.0286                 0.0286
 IR Inten    --      0.2569                 0.9612                 0.8677

                      7                      8                      9
                      A                      A                      A
 Frequencies --    139.3300               151.4987               194.3928
 Red. masses --      3.8113                 2.4475                 2.8567
 Frc consts  --      0.0436                 0.0331                 0.0636
 IR Inten    --      1.3921                 0.4161                 1.1232

                     10                     11                     12
                      A                      A                      A
 Frequencies --    219.9503               223.3792               254.7149
 Red. masses --      1.8953                 1.5936                 2.0274
 Frc consts  --      0.0540                 0.0468                 0.0775
 IR Inten    --      4.0210                 1.5920                 0.5901

                     13                     14                     15
                      A                      A                      A
 Frequencies --    263.5059               266.1473               280.2330
 Red. masses --      2.5161                 2.1624                 4.5158
 Frc consts  --      0.1029                 0.0902                 0.2089
 IR Inten    --      3.2083                 0.9730                 3.5818

                     16                     17                     18
                      A                      A                      A
 Frequencies --    294.9089               315.2061               345.8658
 Red. masses --      4.1467                 4.4830                 4.1787
 Frc consts  --      0.2125                 0.2624                 0.2945
 IR Inten    --      1.4946                 3.2207                 1.2508

                     19                     20                     21
                      A                      A                      A
 Frequencies --    370.8297               374.9639               395.9906
 Red. masses --      2.4619                 2.6659                 2.3493
 Frc consts  --      0.1995                 0.2208                 0.2171
 IR Inten    --      1.1353                 0.4963                 1.9204

                     22                     23                     24
                      A                      A                      A
 Frequencies --    429.4700               448.6593               483.5180
 Red. masses --      3.1165                 4.4757                 4.3548
 Frc consts  --      0.3387                 0.5308                 0.5998
 IR Inten    --      3.4197                 0.7141                 2.9311

                     25                     26                     27
                      A                      A                      A
 Frequencies --    489.2384               558.3626               586.5340
 Red. masses --      3.6110                 4.5268                 4.0136
 Frc consts  --      0.5092                 0.8315                 0.8135
 IR Inten    --      1.0058                 7.3516                 0.1041

                     28                     29                     30
                      A                      A                      A
 Frequencies --    601.4838               609.6584               680.5960
 Red. masses --      1.1023                 4.1152                 5.3184
 Frc consts  --      0.2350                 0.9012                 1.4515
 IR Inten    --    107.3176                22.7231                 3.4125

                     31                     32                     33
                      A                      A                      A
 Frequencies --    695.7528               737.0511               749.3470
 Red. masses --      4.4762                 5.5003                 4.1015
 Frc consts  --      1.2766                 1.7605                 1.3569
 IR Inten    --     14.9398                 2.0638                 2.2382

                     34                     35                     36
                      A                      A                      A
 Frequencies --    764.0928               777.7829               791.1940
 Red. masses --      3.3214                 3.5208                 1.0793
 Frc consts  --      1.1425                 1.2549                 0.3981
 IR Inten    --     26.6950                 4.7222                 1.6054

                     37                     38                     39
                      A                      A                      A
 Frequencies --    802.5076               864.0769               890.4585
 Red. masses --      3.8660                 1.5401                 1.3887
 Frc consts  --      1.4669                 0.6775                 0.6488
 IR Inten    --     24.2570                68.0113                 0.7826

                     40                     41                     42
                      A                      A                      A
 Frequencies --    904.5106               915.1736               925.9174
 Red. masses --      1.4554                 1.8246                 1.4713
 Frc consts  --      0.7015                 0.9004                 0.7432
 IR Inten    --     14.6563                 9.9588                 0.9812

                     43                     44                     45
                      A                      A                      A
 Frequencies --    958.2186               962.9929               981.0296
 Red. masses --      2.9400                 1.3957                 5.2822
 Frc consts  --      1.5905                 0.7626                 2.9953
 IR Inten    --     12.7421                 1.9089                 9.5867

                     46                     47                     48
                      A                      A                      A
 Frequencies --    993.7160              1003.3743              1019.0717
 Red. masses --      2.4305                 1.6244                 1.9082
 Frc consts  --      1.4141                 0.9635                 1.1675
 IR Inten    --      6.4829                22.4406                10.7590

                     49                     50                     51
                      A                      A                      A
 Frequencies --   1030.2330              1050.5415              1060.8777
 Red. masses --      2.1207                 2.0017                 1.5383
 Frc consts  --      1.3262                 1.3016                 1.0200
 IR Inten    --      9.2612                49.1447                28.1992

                     52                     53                     54
                      A                      A                      A
 Frequencies --   1077.5960              1083.3813              1084.1341
 Red. masses --      2.2190                 1.5052                 1.5570
 Frc consts  --      1.5181                 1.0409                 1.0782
 IR Inten    --    177.8781                 6.5780                26.8118

                     55                     56                     57
                      A                      A                      A
 Frequencies --   1101.4607              1102.8974              1125.3629
 Red. masses --      2.4823                 2.4155                 2.5964
 Frc consts  --      1.7744                 1.7311                 1.9373
 IR Inten    --     30.7944                13.3279                23.0385

                     58                     59                     60
                      A                      A                      A
 Frequencies --   1151.7123              1176.2548              1189.5646
 Red. masses --      2.3649                 1.8426                 2.0129
 Frc consts  --      1.8482                 1.5021                 1.6782
 IR Inten    --     20.2597                36.2488                37.3775

                     61                     62                     63
                      A                      A                      A
 Frequencies --   1197.3386              1211.0664              1223.5282
 Red. masses --      1.3232                 1.7023                 3.2935
 Frc consts  --      1.1177                 1.4711                 2.9050
 IR Inten    --      0.2449                22.0540                15.6623

                     64                     65                     66
                      A                      A                      A
 Frequencies --   1270.7310              1281.5325              1286.4364
 Red. masses --      1.2932                 1.5026                 1.3565
 Frc consts  --      1.2303                 1.4539                 1.3227
 IR Inten    --     32.3164                 8.2337                 2.3822

                     67                     68                     69
                      A                      A                      A
 Frequencies --   1296.6673              1319.8474              1333.5588
 Red. masses --      1.3533                 1.7234                 3.4743
 Frc consts  --      1.3406                 1.7688                 3.6404
 IR Inten    --      8.1151                41.5043               374.8205

                     70                     71                     72
                      A                      A                      A
 Frequencies --   1334.7565              1369.6685              1377.2836
 Red. masses --      4.2832                 1.8152                 2.0293
 Frc consts  --      4.4959                 2.0064                 2.2680
 IR Inten    --     31.3578                34.0888                15.8552

                     73                     74                     75
                      A                      A                      A
 Frequencies --   1389.1571              1394.9995              1405.7260
 Red. masses --      1.4862                 1.3518                 1.6250
 Frc consts  --      1.6898                 1.5499                 1.8919
 IR Inten    --      5.7200                 8.0057                10.5739

                     76                     77                     78
                      A                      A                      A
 Frequencies --   1447.2578              1448.0151              1449.8469
 Red. masses --      1.5089                 2.3623                 1.2738
 Frc consts  --      1.8621                 2.9183                 1.5777
 IR Inten    --     62.0213                13.6610                 1.1003

                     79                     80                     81
                      A                      A                      A
 Frequencies --   1462.6372              1483.8192              1498.6430
 Red. masses --      1.3162                 1.1693                 1.0887
 Frc consts  --      1.6590                 1.5169                 1.4406
 IR Inten    --     75.5836                 0.9239                 5.3915

                     82                     83                     84
                      A                      A                      A
 Frequencies --   1504.6650              1514.1504              1516.7521
 Red. masses --      1.2057                 1.0992                 1.0650
 Frc consts  --      1.6083                 1.4848                 1.4435
 IR Inten    --     20.6464                 2.8716                 5.1265

                     85                     86                     87
                      A                      A                      A
 Frequencies --   1519.9683              1520.7030              1534.2527
 Red. masses --      1.1894                 1.0577                 1.1053
 Frc consts  --      1.6191                 1.4412                 1.5329
 IR Inten    --      2.7967                18.7859                14.3919

                     88                     89                     90
                      A                      A                      A
 Frequencies --   1539.3746              1541.8769              1545.3326
 Red. masses --      1.3551                 1.2004                 1.0481
 Frc consts  --      1.8920                 1.6814                 1.4747
 IR Inten    --     15.9535                 6.4326                13.8579

                     91                     92                     93
                      A                      A                      A
 Frequencies --   1559.2127              1613.7065              1670.7332
 Red. masses --      2.3686                 7.2436                 6.4889
 Frc consts  --      3.3928                11.1135                10.6717
 IR Inten    --    178.2546                28.9629                 1.7113

                     94                     95                     96
                      A                      A                      A
 Frequencies --   2978.9307              2990.2978              3014.7788
 Red. masses --      1.0574                 1.0687                 1.0679
 Frc consts  --      5.5285                 5.6305                 5.7189
 IR Inten    --     76.9236                60.8276                18.8747

                     97                     98                     99
                      A                      A                      A
 Frequencies --   3021.7203              3056.0715              3059.8678
 Red. masses --      1.0678                 1.0862                 1.0383
 Frc consts  --      5.7446                 5.9769                 5.7277
 IR Inten    --     80.1954                29.4356                34.8678

                    100                    101                    102
                      A                      A                      A
 Frequencies --   3079.0251              3083.4425              3109.1356
 Red. masses --      1.0929                 1.0768                 1.0971
 Frc consts  --      6.1045                 6.0321                 6.2482
 IR Inten    --     41.2923                47.3296                27.5756

                    103                    104                    105
                      A                      A                      A
 Frequencies --   3111.6555              3117.4241              3126.7675
 Red. masses --      1.0980                 1.1004                 1.1036
 Frc consts  --      6.2635                 6.3007                 6.3568
 IR Inten    --     39.2405                21.6246                26.4790

                    106                    107                    108
                      A                      A                      A
 Frequencies --   3145.4279              3145.5074              3154.1310
 Red. masses --      1.0533                 1.1005                 1.0564
 Frc consts  --      6.1399                 6.4153                 6.1922
 IR Inten    --     22.1354                 8.2719                13.1548

                    109                    110                    111
                      A                      A                      A
 Frequencies --   3185.3943              3198.5317              3219.6849
 Red. masses --      1.0895                 1.0902                 1.1191
 Frc consts  --      6.5134                 6.5714                 6.8354
 IR Inten    --      9.2284                 8.1181                 2.8529

                    112                    113                    114
                      A                      A                      A
 Frequencies --   3235.5087              3488.5037              3630.7948
 Red. masses --      1.1168                 1.0737                 1.0650
 Frc consts  --      6.8881                 7.6983                 8.2722
 IR Inten    --     13.4452                 0.5290                77.7480

 - Thermochemistry -
 -------------------
 Temperature   298.150 Kelvin.  Pressure   1.00000 Atm.
 Atom     1 has atomic number  6 and mass  12.00000

 Molecular mass:   263.15214 amu.
 Principal axes and moments of inertia in atomic units:
                           1         2         3
     Eigenvalues --  2019.55731********************
           X            0.99995   0.00212  -0.01008
           Y           -0.00223   0.99994  -0.01038
           Z            0.01006   0.01040   0.99990
 This molecule is an asymmetric top.
 Rotational symmetry number  1.
 Warning -- assumption of classical behavior for rotation
           may cause significant error
 Rotational temperatures (Kelvin)      0.04289     0.00853     0.00810
 Rotational constants (GHZ):           0.89363     0.17773     0.16870
 Zero-point vibrational energy     907064.2 (Joules/Mol)
                                  216.79355 (Kcal/Mol)
 Warning -- explicit consideration of  29 degrees of freedom as
           vibrations may cause significant error
 Vibrational temperatures:     45.08    71.69    80.21   131.40   174.67
          (Kelvin)            194.37   200.46   217.97   279.69   316.46
                              321.39   366.48   379.13   382.93   403.19
                              424.31   453.51   497.62   533.54   539.49
                              569.74   617.91   645.52   695.67   703.90
                              803.36   843.89   865.40   877.16   979.23
                             1001.03  1060.45  1078.14  1099.36  1119.06
                             1138.35  1154.63  1243.21  1281.17  1301.39
                             1316.73  1332.19  1378.66  1385.53  1411.48
                             1429.74  1443.63  1466.22  1482.28  1511.49
                             1526.37  1550.42  1558.74  1559.83  1584.76
                             1586.82  1619.15  1657.06  1692.37  1711.52
                             1722.70  1742.45  1760.38  1828.30  1843.84
                             1850.90  1865.62  1898.97  1918.69  1920.42
                             1970.65  1981.60  1998.69  2007.09  2022.53
                             2082.28  2083.37  2086.01  2104.41  2134.88
                             2156.21  2164.88  2178.52  2182.27  2186.90
                             2187.95  2207.45  2214.82  2218.42  2223.39
                             2243.36  2321.76  2403.81  4286.02  4302.37
                             4337.59  4347.58  4397.01  4402.47  4430.03
                             4436.39  4473.35  4476.98  4485.28  4498.72
                             4525.57  4525.68  4538.09  4583.07  4601.97
                             4632.41  4655.18  5019.18  5223.90

 Zero-point correction=                           0.345483 (Hartree/Particle)
 Thermal correction to Energy=                    0.363425
 Thermal correction to Enthalpy=                  0.364369
 Thermal correction to Gibbs Free Energy=         0.299829
 Sum of electronic and zero-point Energies=           -864.327274
 Sum of electronic and thermal Energies=              -864.309332
 Sum of electronic and thermal Enthalpies=            -864.308388
 Sum of electronic and thermal Free Energies=         -864.372928

                     E (Thermal)             CV                S
                      KCal/Mol        Cal/Mol-Kelvin    Cal/Mol-Kelvin
 Total                  228.052             70.508            135.836
 Electronic               0.000              0.000              0.000
 Translational            0.889              2.981             42.602
 Rotational               0.889              2.981             33.750
 Vibrational            226.275             64.546             59.484
 Vibration     1          0.594              1.983              5.743
 Vibration     2          0.595              1.978              4.824
 Vibration     3          0.596              1.975              4.602
 Vibration     4          0.602              1.955              3.631
 Vibration     5          0.609              1.931              3.078
 Vibration     6          0.613              1.918              2.872
 Vibration     7          0.615              1.914              2.813
 Vibration     8          0.619              1.901              2.653
 Vibration     9          0.635              1.848              2.186
 Vibration    10          0.647              1.811              1.960
 Vibration    11          0.649              1.805              1.932
 Vibration    12          0.665              1.755              1.698
 Vibration    13          0.670              1.740              1.638
 Vibration    14          0.672              1.735              1.621
 Vibration    15          0.680              1.710              1.532
 Vibration    16          0.689              1.683              1.446
 Vibration    17          0.703              1.645              1.335
 Vibration    18          0.724              1.584              1.185
 Vibration    19          0.743              1.532              1.076
 Vibration    20          0.746              1.523              1.059
 Vibration    21          0.763              1.479              0.978
 Vibration    22          0.791              1.406              0.860
 Vibration    23          0.808              1.364              0.800
 Vibration    24          0.840              1.287              0.701
 Vibration    25          0.845              1.274              0.686
 Vibration    26          0.914              1.121              0.527
 Vibration    27          0.944              1.061              0.473
 Vibration    28          0.960              1.029              0.447
 Vibration    29          0.969              1.011              0.433

 Optimization completed.
    -- Stationary point found.
 Normal termination of Gaussian 16 at Mon Dec 14 13:46:45 2020.

 ----------------------------------------------------------------------
 # B3LYP/6-311++G(d,p) empiricaldispersion=gd3bj scf=xqc pop=npa geom=c
 heck
 ----------------------------------------------------------------------

 ---------------------------------------
 CID_117413075_JID_9876_Energie_neutraal
 ---------------------------------------
 Structure from the checkpoint file:  "JID_9876.chk"
 Charge =  0 Multiplicity = 1

 SCF Done:  E(RB3LYP) =  -864.917900456     A.U. after   15 cycles
 Normal termination of Gaussian 16 at Mon Dec 14 13:56:53 2020.

 ----------------------------------------------------------------------
 # B3LYP/6-311++G(d,p) empiricaldispersion=gd3bj scf=xqc pop=npa geom=c
 heck
 ----------------------------------------------------------------------

 -------------------------------------
 CID_117413075_JID_9876_Energie_kation
 -------------------------------------
 Structure from the checkpoint file:  "JID_9876.chk"
 Charge =  1 Multiplicity = 2

 SCF Done:  E(UB3LYP) =  -864.635550234     A.U. after   24 cycles
 Normal termination of Gaussian 16 at Mon Dec 14 14:20:17 2020.
 Gaussian 16:  ES64L-G16RevA.03 25-Dec-2016

 ----------------------------------------------------------------------
 # B3LYP/6-311++G(d,p) empiricaldispersion=gd3bj scf=xqc pop=npa geom=c
 heck
 ----------------------------------------------------------------------

 ------------------------------------
 CID_117413075_JID_9876_Energie_anion
 ------------------------------------
 Structure from the checkpoint file:  "JID_9876.chk"
 Charge = -1 Multiplicity = 2

                         Standard orientation:
 ---------------------------------------------------------------------
 Center     Atomic      Atomic             Coordinates (Angstroms)
 Number     Number       Type             X           Y           Z
 ---------------------------------------------------------------------
      1          6           0       -2.408369    2.402704   -0.110673
      2          6           0       -1.324783    1.345071   -0.156162
      3          6           0       -0.054297    1.690413    0.319884
      4          6           0        1.025242    0.808687    0.327440
      5          6           0        0.842874   -0.485189   -0.188215
      6          6           0       -0.412375   -0.830866   -0.682979
      7          6           0       -1.504597    0.042546   -0.669140
      8          6           0       -2.825659   -0.540044   -1.179045
      9          6           0       -3.514535   -1.380386   -0.087512
     10          7           0       -4.017953   -0.479061    0.948376
     11          6           0       -4.902629   -1.127138    1.911227
     12          8           0       -3.750416    0.411690   -1.674408
     13          8           0        1.812434   -1.460759   -0.176431
     14          6           0        3.043416   -1.153263   -0.839460
     15          6           0        3.921907   -0.214555   -0.050167
     16          6           0        5.420608   -0.376218   -0.176435
     17          6           0        4.718533   -0.783688    1.094307
     18          6           0        3.373885    1.183829    0.092660
     19          8           0        2.195516    1.245197    0.903001
     20          1           0       -2.011229    3.326022    0.322149
     21          1           0       -3.262887    2.091932    0.500174
     22          1           0       -2.792235    2.620951   -1.109919
     23          1           0        0.120401    2.684599    0.720825
     24          1           0       -0.524418   -1.836509   -1.080584
     25          1           0       -2.586978   -1.206425   -2.016659
     26          1           0       -4.376933   -1.887829   -0.536370
     27          1           0       -2.829329   -2.154013    0.297780
     28          1           0       -3.218842   -0.079123    1.438430
     29          1           0       -4.453399   -2.002782    2.411395
     30          1           0       -5.197374   -0.404846    2.678920
     31          1           0       -5.810280   -1.463900    1.398335
     32          1           0       -4.286440    0.653235   -0.894784
     33          1           0        2.825135   -0.733144   -1.832658
     34          1           0        3.539569   -2.118606   -0.974032
     35          1           0        6.031857    0.522338   -0.165905
     36          1           0        5.794500   -1.155666   -0.835084
     37          1           0        4.845812   -0.163612    1.976954
     38          1           0        4.608302   -1.843077    1.307180
     39          1           0        4.098029    1.828021    0.599390
     40          1           0        3.156825    1.615406   -0.895861
 ---------------------------------------------------------------------

 SCF Done:  E(UB3LYP) =  -864.904842302     A.U. after   33 cycles
 SCF Done:  E(UB3LYP) =  -864.904842302     a.u. after    1 cycles

 The electronic state is 2-A.
 Alpha  occ. eigenvalues --  -19.05830 -19.05798 -19.03125 -14.22479 -10.14387
 Alpha  occ. eigenvalues --  -10.14364 -10.14337 -10.14253 -10.14175 -10.11321
 Alpha  occ. eigenvalues --  -10.10415 -10.10278 -10.10000 -10.09539 -10.09299
 Alpha  occ. eigenvalues --  -10.08965 -10.08786 -10.08566 -10.07899  -0.98521
 Alpha  occ. eigenvalues --   -0.96352  -0.94202  -0.82668  -0.79527  -0.77218
 Alpha  occ. eigenvalues --   -0.69230  -0.68969  -0.65207  -0.63643  -0.61719
 Alpha  occ. eigenvalues --   -0.58934  -0.57366  -0.54208  -0.52485  -0.52060
 Alpha  occ. eigenvalues --   -0.48769  -0.48646  -0.44095  -0.43125  -0.42734
 Alpha  occ. eigenvalues --   -0.41743  -0.40515  -0.39773  -0.38704  -0.38188
 Alpha  occ. eigenvalues --   -0.37985  -0.36546  -0.34859  -0.34699  -0.33590
 Alpha  occ. eigenvalues --   -0.33134  -0.32651  -0.32149  -0.31783  -0.30092
 Alpha  occ. eigenvalues --   -0.29573  -0.29085  -0.28526  -0.28338  -0.27910
 Alpha  occ. eigenvalues --   -0.25908  -0.25544  -0.24758  -0.22737  -0.21182
 Alpha  occ. eigenvalues --   -0.20802  -0.19599  -0.18979  -0.16122  -0.15704
 Alpha  occ. eigenvalues --   -0.13841   0.03891
 Alpha virt. eigenvalues --    0.04953   0.06307   0.06625   0.07038   0.07352
 Alpha virt. eigenvalues --    0.07717   0.07919   0.08085   0.08669   0.08967
 Alpha virt. eigenvalues --    0.09542   0.10031   0.10230   0.10316   0.11013

  Beta  occ. eigenvalues --  -19.05829 -19.05798 -19.03122 -14.22466 -10.14387
  Beta  occ. eigenvalues --  -10.14361 -10.14336 -10.14234 -10.14153 -10.11308
  Beta  occ. eigenvalues --  -10.10416 -10.10230 -10.09990 -10.09540 -10.09259
  Beta  occ. eigenvalues --  -10.08950 -10.08778 -10.08555 -10.07893  -0.98516
  Beta  occ. eigenvalues --   -0.96348  -0.94194  -0.82647  -0.79513  -0.77203
  Beta  occ. eigenvalues --   -0.69215  -0.68950  -0.65181  -0.63617  -0.61684
  Beta  occ. eigenvalues --   -0.58905  -0.57309  -0.54177  -0.52415  -0.52019
  Beta  occ. eigenvalues --   -0.48752  -0.48615  -0.44066  -0.43104  -0.42705
  Beta  occ. eigenvalues --   -0.41716  -0.40490  -0.39743  -0.38661  -0.38169
  Beta  occ. eigenvalues --   -0.37953  -0.36520  -0.34835  -0.34678  -0.33568
  Beta  occ. eigenvalues --   -0.33109  -0.32629  -0.32125  -0.31742  -0.30078
  Beta  occ. eigenvalues --   -0.29554  -0.29058  -0.28495  -0.28304  -0.27894
  Beta  occ. eigenvalues --   -0.25894  -0.25526  -0.24741  -0.22706  -0.21169
  Beta  occ. eigenvalues --   -0.20776  -0.19585  -0.18969  -0.16080  -0.15662
  Beta  occ. eigenvalues --   -0.13816
  Beta virt. eigenvalues --    0.05856   0.06201   0.06455   0.06817   0.07589
  Beta virt. eigenvalues --    0.07714   0.07940   0.08129   0.08356   0.09106
  Beta virt. eigenvalues --    0.09182   0.09829   0.10215   0.10348   0.10642

 Mulliken charges and spin densities:
               1          2
     1  C   -0.134971  -0.554380
     2  C    0.481636  -0.098618
     3  C   -0.445842   0.241064
     4  C   -0.602465   0.371247
     5  C   -0.318000   0.161836
     6  C   -0.622440   0.137973
     7  C    0.656945  -0.234090
     8  C   -0.054113   0.002198
     9  C   -0.095041  -0.401676
    10  N   -0.475622   0.239210
    11  C    1.076392  -1.395381
    12  O   -0.143523  -0.008986
    13  O   -0.083908   0.016865
    14  C    1.030231  -1.700908
    15  C   -2.563428   3.286204
    16  C    1.574545  -1.958930
    17  C   -0.161834  -0.183609
    18  C    1.040274  -1.671379
    19  O   -0.078779   0.013009
    20  H    0.080895   0.042931
    21  H    0.038186   0.142354
    22  H    0.171262   0.024962
    23  H    0.053871   0.131022
    24  H    0.036203   0.135846
    25  H    0.163806   0.057195
    26  H    0.065743   0.128961
    27  H    0.042458   0.098612
    28  H    0.157487   0.068725
    29  H   -0.275097   0.407258
    30  H   -0.456818   0.599692
    31  H   -0.346225   0.486027
    32  H    0.218705   0.030430
    33  H   -0.048473   0.204388
    34  H   -0.067098   0.274142
    35  H   -0.420604   0.573202
    36  H   -0.411802   0.565201
    37  H   -0.009851   0.173730
    38  H   -0.023062   0.187941
    39  H   -0.019290   0.221419
    40  H   -0.030353   0.184313
 Sum of Mulliken charges =  -1.00000   1.00000

 Dipole moment (field-independent basis, Debye):
    X=             -1.0617    Y=              1.8350    Z=             -2.2430  Tot=              3.0863
 Quadrupole moment (field-independent basis, Debye-Ang):
   XX=           -260.6529   YY=           -151.1272   ZZ=           -156.6024
   XY=             -2.6620   XZ=             16.1485   YZ=              3.2709

 Summary of Natural Population Analysis:

                                       Natural Population
                Natural  -----------------------------------------------
    Atom  No    Charge         Core      Valence    Rydberg      Total
 -----------------------------------------------------------------------
      C    1   -0.29657      0.99963     2.29175    0.00519     3.29657
      C    2   -0.01735      0.99948     2.00983    0.00804     3.01735
      C    3   -0.10776      0.99949     2.09999    0.00828     3.10776
      C    4    0.13332      0.99931     1.85491    0.01246     2.86668
      C    5    0.13250      0.99931     1.85570    0.01249     2.86750
      C    6   -0.10747      0.99948     2.09990    0.00808     3.10747
      C    7   -0.03264      0.99945     2.02322    0.00997     3.03264
      C    8    0.05918      0.99952     1.92696    0.01434     2.94082
      C    9   -0.09346      0.99961     2.08328    0.01058     3.09346
      N   10   -0.35499      0.99975     2.84257    0.01267     3.85499
      C   11   -0.17553      0.99966     2.16729    0.00857     3.17553
      O   12   -0.37414      0.99990     3.36802    0.00622     4.37414
      O   13   -0.28513      0.99986     3.27602    0.00925     4.28513
      C   14   -0.00289      0.99948     1.98975    0.01366     3.00289
      C   15   -0.08090      0.99954     2.06731    0.01405     3.08090
      C   16   -0.18886      0.99959     2.17935    0.00993     3.18886
      C   17   -0.18717      0.99958     2.17781    0.00977     3.18717
      C   18   -0.00293      0.99948     1.98976    0.01368     3.00293
      O   19   -0.28524      0.99986     3.27617    0.00920     4.28524
      H   20    0.09729      0.00000     0.40178    0.00093     0.40271
      H   21    0.10513      0.00000     0.39337    0.00150     0.39487
      H   22    0.11190      0.00000     0.38693    0.00117     0.38810
      H   23    0.10290      0.00000     0.39537    0.00174     0.39710
      H   24    0.10379      0.00000     0.39431    0.00190     0.39621
      H   25    0.08996      0.00000     0.40833    0.00171     0.41004
      H   26    0.09511      0.00000     0.40370    0.00119     0.40489
      H   27    0.08884      0.00000     0.40981    0.00134     0.41116
      H   28    0.17756      0.00000     0.31903    0.00341     0.32244
      H   29    0.08252      0.00000     0.41580    0.00168     0.41748
      H   30    0.09807      0.00000     0.40039    0.00154     0.40193
      H   31    0.09267      0.00000     0.40557    0.00176     0.40733
      H   32    0.23659      0.00000     0.25977    0.00364     0.26341
      H   33    0.08520      0.00000     0.41336    0.00144     0.41480
      H   34    0.09631      0.00000     0.40207    0.00162     0.40369
      H   35    0.10608      0.00000     0.39192    0.00200     0.39392
      H   36    0.10654      0.00000     0.39140    0.00206     0.39346
      H   37    0.10515      0.00000     0.39392    0.00093     0.39485
      H   38    0.10559      0.00000     0.39348    0.00093     0.39441
      H   39    0.09572      0.00000     0.40271    0.00156     0.40428
      H   40    0.08510      0.00000     0.41346    0.00143     0.41490
 =======================================================================
   * Total *    0.00000     18.99199    51.77608    0.23193    71.00000

 Normal termination of Gaussian 16 at Mon Dec 14 14:52:48 2020.
