 Gaussian 16, Revision A.03,

 -----------------------------------------------------------
 # opt freq B3LYP/6-31G(d) empiricaldispersion=gd3bj scf=xqc
 -----------------------------------------------------------

 -------------------------------
 CID_60939027_JID_10460_neutraal
 -------------------------------
 Symbolic Z-matrix:
 Charge =  0 Multiplicity = 1

 SCF Done:  E(RB3LYP) =  -844.654653263     A.U. after   15 cycles
 SCF Done:  E(RB3LYP) =  -844.658742187     A.U. after   12 cycles
 SCF Done:  E(RB3LYP) =  -844.659335897     A.U. after   12 cycles
 SCF Done:  E(RB3LYP) =  -844.659590937     A.U. after   12 cycles
 SCF Done:  E(RB3LYP) =  -844.659554395     A.U. after   11 cycles
 SCF Done:  E(RB3LYP) =  -844.659909243     A.U. after   12 cycles
 SCF Done:  E(RB3LYP) =  -844.660206678     A.U. after   12 cycles
 SCF Done:  E(RB3LYP) =  -844.660274990     A.U. after   11 cycles
 SCF Done:  E(RB3LYP) =  -844.660404226     A.U. after   12 cycles
 SCF Done:  E(RB3LYP) =  -844.660542305     A.U. after   11 cycles
 SCF Done:  E(RB3LYP) =  -844.661197290     A.U. after    9 cycles
 SCF Done:  E(RB3LYP) =  -844.661197582     A.U. after    8 cycles
 SCF Done:  E(RB3LYP) =  -844.661197645     A.U. after    7 cycles
 SCF Done:  E(RB3LYP) =  -844.661197653     A.U. after    7 cycles
 Optimization completed.
    -- Stationary point found.
 Normal termination of Gaussian 16 at Sun Dec 13 20:41:12 2020.

 --------------------------------------------------------------------
 #N Geom=AllCheck Guess=TCheck SCRF=Check GenChk RB3LYP/6-31G(d) Freq
 --------------------------------------------------------------------

 Structure from the checkpoint file:  "JID_10460.chk"
 -------------------------------
 CID_60939027_JID_10460_neutraal
 -------------------------------
 Charge =  0 Multiplicity = 1

 SCF Done:  E(RB3LYP) =  -844.661197652     A.U. after    1 cycles

  Exact polarizability: 231.558  24.072 160.041  11.674   0.818 156.034
 Approx polarizability: 301.839  41.300 259.514  24.044  -0.435 282.395

                      1                      2                      3
                      A                      A                      A
 Frequencies --     17.8025                23.9730                34.5092
 Red. masses --      4.3727                 4.7263                 4.5395
 Frc consts  --      0.0008                 0.0016                 0.0032
 IR Inten    --      0.1102                 0.0734                 0.4228

                      4                      5                      6
                      A                      A                      A
 Frequencies --     41.3925                78.8255                85.0932
 Red. masses --      3.8260                 4.4293                 3.2318
 Frc consts  --      0.0039                 0.0162                 0.0138
 IR Inten    --      0.2113                 1.5061                 3.9934

                      7                      8                      9
                      A                      A                      A
 Frequencies --    122.4529               166.0230               176.0952
 Red. masses --      4.9509                 2.0877                 3.6627
 Frc consts  --      0.0437                 0.0339                 0.0669
 IR Inten    --      2.6827                 5.5831                 0.5851

                     10                     11                     12
                      A                      A                      A
 Frequencies --    199.8207               215.5656               222.9311
 Red. masses --      2.5354                 1.9852                 4.0201
 Frc consts  --      0.0596                 0.0544                 0.1177
 IR Inten    --      0.2545                 2.0740                 2.6546

                     13                     14                     15
                      A                      A                      A
 Frequencies --    244.0765               255.5708               276.0464
 Red. masses --      2.1669                 2.2999                 1.6707
 Frc consts  --      0.0761                 0.0885                 0.0750
 IR Inten    --      0.1036                15.2317                 3.0963

                     16                     17                     18
                      A                      A                      A
 Frequencies --    288.9243               312.7164               357.5036
 Red. masses --      1.3103                 3.2884                 4.0017
 Frc consts  --      0.0644                 0.1895                 0.3013
 IR Inten    --     40.9441                 1.8836                 5.1983

                     19                     20                     21
                      A                      A                      A
 Frequencies --    395.3199               417.3041               418.6376
 Red. masses --      3.6951                 3.6965                 3.0331
 Frc consts  --      0.3402                 0.3793                 0.3132
 IR Inten    --      3.7666                 3.6058                 0.2452

                     22                     23                     24
                      A                      A                      A
 Frequencies --    419.5692               444.3002               472.4759
 Red. masses --      3.2314                 3.9557                 3.9383
 Frc consts  --      0.3352                 0.4601                 0.5180
 IR Inten    --      0.8431                 2.4439                 1.0774

                     25                     26                     27
                      A                      A                      A
 Frequencies --    507.1403               561.6559               600.1807
 Red. masses --      3.5785                 3.2813                 4.6293
 Frc consts  --      0.5423                 0.6099                 0.9825
 IR Inten    --     15.3916                13.4349                19.5262

                     28                     29                     30
                      A                      A                      A
 Frequencies --    635.3679               636.2078               641.5281
 Red. masses --      6.0948                 6.1450                 4.2530
 Frc consts  --      1.4496                 1.4655                 1.0313
 IR Inten    --      0.2785                 0.8906                 2.5365

                     31                     32                     33
                      A                      A                      A
 Frequencies --    690.8211               696.1011               718.6488
 Red. masses --      3.9493                 4.0371                 1.8201
 Frc consts  --      1.1105                 1.1526                 0.5538
 IR Inten    --     16.8376                 3.3764                35.2649

                     34                     35                     36
                      A                      A                      A
 Frequencies --    721.1846               756.0976               768.3006
 Red. masses --      1.6320                 5.5753                 2.0420
 Frc consts  --      0.5001                 1.8779                 0.7102
 IR Inten    --     33.0451                12.4843                22.8117

                     37                     38                     39
                      A                      A                      A
 Frequencies --    788.2350               801.5824               813.4028
 Red. masses --      2.0729                 3.1715                 1.9090
 Frc consts  --      0.7588                 1.2006                 0.7442
 IR Inten    --     21.7634                 4.2379               138.8870

                     40                     41                     42
                      A                      A                      A
 Frequencies --    867.0763               867.1790               891.9876
 Red. masses --      1.2482                 1.2485                 2.0835
 Frc consts  --      0.5529                 0.5532                 0.9767
 IR Inten    --      0.1600                 0.2530                35.8774

                     43                     44                     45
                      A                      A                      A
 Frequencies --    932.6303               936.3044               947.2895
 Red. masses --      1.4183                 1.5100                 2.6004
 Frc consts  --      0.7268                 0.7799                 1.3748
 IR Inten    --      2.2284                 1.5455                49.9455

                     46                     47                     48
                      A                      A                      A
 Frequencies --    973.6988               976.8688               998.4324
 Red. masses --      1.3392                 1.3176                 1.2476
 Frc consts  --      0.7481                 0.7408                 0.7328
 IR Inten    --      0.1306                 0.9336                 0.0714

                     49                     50                     51
                      A                      A                      A
 Frequencies --   1006.4816              1020.9281              1021.7731
 Red. masses --      1.2835                 4.6386                 6.0795
 Frc consts  --      0.7661                 2.8486                 3.7396
 IR Inten    --      2.2376                 0.8053                 0.3782

                     52                     53                     54
                      A                      A                      A
 Frequencies --   1031.2957              1062.5625              1064.6937
 Red. masses --      2.2131                 2.2383                 2.0937
 Frc consts  --      1.3868                 1.4889                 1.3983
 IR Inten    --      6.7020                 1.7931                 4.0017

                     55                     56                     57
                      A                      A                      A
 Frequencies --   1087.0733              1097.3108              1117.1716
 Red. masses --      2.0686                 2.0447                 1.5643
 Frc consts  --      1.4403                 1.4506                 1.1503
 IR Inten    --     41.9848                 4.2565                37.2810

                     58                     59                     60
                      A                      A                      A
 Frequencies --   1121.0536              1133.7824              1159.4529
 Red. masses --      1.8084                 1.9015                 1.3201
 Frc consts  --      1.3390                 1.4401                 1.0456
 IR Inten    --     38.5045                23.3083                 5.5292

                     61                     62                     63
                      A                      A                      A
 Frequencies --   1179.9734              1193.9001              1194.1481
 Red. masses --      2.1321                 1.0971                 1.0987
 Frc consts  --      1.7491                 0.9213                 0.9231
 IR Inten    --      6.3586                 0.2577                 0.1571

                     64                     65                     66
                      A                      A                      A
 Frequencies --   1210.8940              1217.1144              1219.6490
 Red. masses --      2.0715                 1.8780                 1.2198
 Frc consts  --      1.7896                 1.6391                 1.0691
 IR Inten    --      3.1795                 4.2244                 2.8838

                     67                     68                     69
                      A                      A                      A
 Frequencies --   1220.2910              1234.5636              1246.7187
 Red. masses --      1.3003                 2.3060                 3.1865
 Frc consts  --      1.1408                 2.0708                 2.9181
 IR Inten    --      1.1492                16.9841                 6.6057

                     70                     71                     72
                      A                      A                      A
 Frequencies --   1298.5723              1327.9353              1345.3621
 Red. masses --      1.3678                 2.3740                 2.4201
 Frc consts  --      1.3590                 2.4665                 2.5808
 IR Inten    --     18.0955                24.9687                 4.3683

                     73                     74                     75
                      A                      A                      A
 Frequencies --   1370.0060              1370.6799              1383.6305
 Red. masses --      2.2753                 2.0215                 1.7465
 Frc consts  --      2.5161                 2.2377                 1.9699
 IR Inten    --      4.4154                 0.9576               127.4627

                     76                     77                     78
                      A                      A                      A
 Frequencies --   1398.0536              1426.7829              1434.0393
 Red. masses --      1.4896                 1.2800                 1.2533
 Frc consts  --      1.7154                 1.5352                 1.5185
 IR Inten    --     29.4873                 7.8848                14.5859

                     79                     80                     81
                      A                      A                      A
 Frequencies --   1457.9189              1497.1784              1501.0485
 Red. masses --      1.4857                 1.9852                 1.6196
 Frc consts  --      1.8605                 2.6218                 2.1501
 IR Inten    --     27.8471                12.5667                21.7237

                     82                     83                     84
                      A                      A                      A
 Frequencies --   1507.5905              1514.1126              1532.8993
 Red. masses --      1.6215                 1.1013                 1.0506
 Frc consts  --      2.1714                 1.4876                 1.4545
 IR Inten    --      1.1787                 7.3479                 4.2991

                     85                     86                     87
                      A                      A                      A
 Frequencies --   1538.8280              1545.4505              1547.4025
 Red. masses --      1.0610                 2.0044                 2.0931
 Frc consts  --      1.4802                 2.8207                 2.9529
 IR Inten    --      5.1796                19.5476                 8.6976

                     88                     89                     90
                      A                      A                      A
 Frequencies --   1551.1189              1645.1636              1646.3715
 Red. masses --      1.2171                 5.5889                 5.4237
 Frc consts  --      1.7254                 8.9124                 8.6617
 IR Inten    --     28.8684                 1.4346                 2.4785

                     91                     92                     93
                      A                      A                      A
 Frequencies --   1665.9821              1667.3238              1701.2317
 Red. masses --      5.4509                 5.5027                 1.0907
 Frc consts  --      8.9137                 9.0129                 1.8599
 IR Inten    --      8.1619                 1.6623                23.5980

                     94                     95                     96
                      A                      A                      A
 Frequencies --   1743.2851              3042.1107              3054.5044
 Red. masses --      9.2066                 1.0473                 1.0744
 Frc consts  --     16.4850                 5.7104                 5.9063
 IR Inten    --    217.4339                26.3988                23.3990

                     97                     98                     99
                      A                      A                      A
 Frequencies --   3064.0718              3091.9817              3114.1898
 Red. masses --      1.0491                 1.0849                 1.0954
 Frc consts  --      5.8033                 6.1109                 6.2589
 IR Inten    --     31.0417                 4.0974                21.1531

                    100                    101                    102
                      A                      A                      A
 Frequencies --   3121.5387              3168.2758              3171.6625
 Red. masses --      1.1027                 1.0871                 1.0978
 Frc consts  --      6.3304                 6.4292                 6.5064
 IR Inten    --     41.8073                12.0802                 7.5256

                    103                    104                    105
                      A                      A                      A
 Frequencies --   3180.2155              3183.0278              3186.2436
 Red. masses --      1.0845                 1.0868                 1.0867
 Frc consts  --      6.4625                 6.4878                 6.5003
 IR Inten    --      3.3843                 2.0619                 0.1940

                    106                    107                    108
                      A                      A                      A
 Frequencies --   3193.9620              3194.5504              3201.1199
 Red. masses --      1.0919                 1.0904                 1.0941
 Frc consts  --      6.5626                 6.5561                 6.6053
 IR Inten    --     34.3136                11.4143                35.7386

                    109                    110                    111
                      A                      A                      A
 Frequencies --   3206.3431              3206.9214              3211.4516
 Red. masses --      1.0963                 1.0967                 1.0980
 Frc consts  --      6.6402                 6.6454                 6.6720
 IR Inten    --     16.0091                18.9052                23.5043

                    112                    113                    114
                      A                      A                      A
 Frequencies --   3232.4919              3499.8204              3588.6540
 Red. masses --      1.0930                 1.0492                 1.0933
 Frc consts  --      6.7288                 7.5716                 8.2959
 IR Inten    --      5.0477                 1.0031                 0.9619

 - Thermochemistry -
 -------------------
 Temperature   298.150 Kelvin.  Pressure   1.00000 Atm.
 Atom     1 has atomic number  6 and mass  12.00000

 Molecular mass:   268.15756 amu.
 Principal axes and moments of inertia in atomic units:
                           1         2         3
     Eigenvalues --  2163.33817********************
           X            1.00000  -0.00121   0.00169
           Y            0.00124   0.99985  -0.01728
           Z           -0.00167   0.01729   0.99985
 This molecule is an asymmetric top.
 Rotational symmetry number  1.
 Warning -- assumption of classical behavior for rotation
           may cause significant error
 Rotational temperatures (Kelvin)      0.04004     0.00842     0.00815
 Rotational constants (GHZ):           0.83424     0.17538     0.16991
 Zero-point vibrational energy     895923.9 (Joules/Mol)
                                  214.13096 (Kcal/Mol)
 Warning -- explicit consideration of  27 degrees of freedom as
           vibrations may cause significant error
 Vibrational temperatures:     25.61    34.49    49.65    59.55   113.41
          (Kelvin)            122.43   176.18   238.87   253.36   287.50
                              310.15   320.75   351.17   367.71   397.17
                              415.70   449.93   514.37   568.78   600.41
                              602.33   603.67   639.25   679.79   729.66
                              808.10   863.53   914.15   915.36   923.02
                              993.94  1001.53  1033.98  1037.62  1087.86
                             1105.41  1134.09  1153.30  1170.31  1247.53
                             1247.68  1283.37  1341.85  1347.13  1362.94
                             1400.94  1405.50  1436.52  1448.10  1468.89
                             1470.10  1483.80  1528.79  1531.86  1564.06
                             1578.79  1607.36  1612.95  1631.26  1668.19
                             1697.72  1717.76  1718.11  1742.21  1751.16
                             1754.80  1755.73  1776.26  1793.75  1868.36
                             1910.60  1935.68  1971.13  1972.10  1990.74
                             2011.49  2052.82  2063.26  2097.62  2154.11
                             2159.67  2169.09  2178.47  2205.50  2214.03
                             2223.56  2226.37  2231.71  2367.02  2368.76
                             2396.98  2398.91  2447.69  2508.20  4376.92
                             4394.75  4408.52  4448.67  4480.62  4491.20
                             4558.44  4563.31  4575.62  4579.67  4584.29
                             4595.40  4596.25  4605.70  4613.21  4614.04
                             4620.56  4650.83  5035.46  5163.27

 Zero-point correction=                           0.341239 (Hartree/Particle)
 Thermal correction to Energy=                    0.359863
 Thermal correction to Enthalpy=                  0.360807
 Thermal correction to Gibbs Free Energy=         0.292415
 Sum of electronic and zero-point Energies=           -844.319958
 Sum of electronic and thermal Energies=              -844.301335
 Sum of electronic and thermal Enthalpies=            -844.300390
 Sum of electronic and thermal Free Energies=         -844.368783

                     E (Thermal)             CV                S
                      KCal/Mol        Cal/Mol-Kelvin    Cal/Mol-Kelvin
 Total                  225.817             72.001            143.944
 Electronic               0.000              0.000              0.000
 Translational            0.889              2.981             42.658
 Rotational               0.889              2.981             33.824
 Vibrational            224.040             66.039             67.461
 Vibration     1          0.593              1.986              6.865
 Vibration     2          0.593              1.985              6.274
 Vibration     3          0.594              1.983              5.552
 Vibration     4          0.594              1.981              5.191
 Vibration     5          0.600              1.963              3.920
 Vibration     6          0.601              1.960              3.770
 Vibration     7          0.610              1.930              3.061
 Vibration     8          0.624              1.884              2.480
 Vibration     9          0.628              1.872              2.369
 Vibration    10          0.638              1.840              2.135
 Vibration    11          0.645              1.817              1.996
 Vibration    12          0.649              1.806              1.935
 Vibration    13          0.659              1.773              1.773
 Vibration    14          0.666              1.753              1.692
 Vibration    15          0.678              1.718              1.558
 Vibration    16          0.685              1.694              1.480
 Vibration    17          0.701              1.649              1.348
 Vibration    18          0.733              1.560              1.133
 Vibration    19          0.762              1.480              0.980
 Vibration    20          0.780              1.433              0.901
 Vibration    21          0.781              1.430              0.897
 Vibration    22          0.782              1.428              0.893
 Vibration    23          0.804              1.373              0.813
 Vibration    24          0.829              1.311              0.731
 Vibration    25          0.862              1.234              0.641
 Vibration    26          0.917              1.114              0.521
 Vibration    27          0.958              1.031              0.449

                           ! Non-Optimized Parameters !
 Normal termination of Gaussian 16 at Sun Dec 13 21:05:48 2020.

 ----------------------------------------------------------------------
 # B3LYP/6-311++G(d,p) empiricaldispersion=gd3bj scf=xqc pop=npa geom=c
 heck
 ----------------------------------------------------------------------

 ---------------------------------------
 CID_60939027_JID_10460_Energie_neutraal
 ---------------------------------------
 Structure from the checkpoint file:  "JID_10460.chk"
 Charge =  0 Multiplicity = 1

 SCF Done:  E(RB3LYP) =  -844.893504915     A.U. after   15 cycles
 Normal termination of Gaussian 16 at Sun Dec 13 21:17:01 2020.

 ----------------------------------------------------------------------
 # B3LYP/6-311++G(d,p) empiricaldispersion=gd3bj scf=xqc pop=npa geom=c
 heck
 ----------------------------------------------------------------------

 -------------------------------------
 CID_60939027_JID_10460_Energie_kation
 -------------------------------------
 Structure from the checkpoint file:  "JID_10460.chk"
 Charge =  1 Multiplicity = 2

 SCF Done:  E(UB3LYP) =  -844.598786260     A.U. after   33 cycles
 SCF Done:  E(UB3LYP) =  -844.598786260     a.u. after    1 cycles
 Normal termination of Gaussian 16 at Sun Dec 13 21:52:55 2020.
 Gaussian 16:  ES64L-G16RevA.03 25-Dec-2016

 ----------------------------------------------------------------------
 # B3LYP/6-311++G(d,p) empiricaldispersion=gd3bj scf=xqc pop=npa geom=c
 heck
 ----------------------------------------------------------------------

 ------------------------------------
 CID_60939027_JID_10460_Energie_anion
 ------------------------------------
 Structure from the checkpoint file:  "JID_10460.chk"
 Charge = -1 Multiplicity = 2

                         Standard orientation:
 ---------------------------------------------------------------------
 Center     Atomic      Atomic             Coordinates (Angstroms)
 Number     Number       Type             X           Y           Z
 ---------------------------------------------------------------------
      1          6           0       -1.316147    2.505277   -0.474840
      2          6           0       -1.384509    1.262293    0.420836
      3          6           0       -2.692761    0.495522    0.297226
      4          6           0       -3.076095   -0.110388   -0.908293
      5          6           0       -4.277269   -0.811699   -0.990381
      6          6           0       -5.115249   -0.915904    0.122679
      7          6           0       -4.742113   -0.315987    1.324163
      8          6           0       -3.535892    0.382134    1.407065
      9          7           0       -0.203505    0.365315    0.311773
     10          6           0        0.136852   -0.326040    1.549239
     11          6           0        0.281908   -0.029271   -0.905545
     12          8           0       -0.142783    0.412079   -1.972133
     13          6           0        1.456722   -1.038747   -0.956279
     14          6           0        2.737315   -0.464631   -0.346245
     15          6           0        3.617609   -1.252869    0.398743
     16          6           0        4.790720   -0.709021    0.927460
     17          6           0        5.098262    0.633085    0.712858
     18          6           0        4.227802    1.427135   -0.038416
     19          6           0        3.058899    0.882635   -0.563823
     20          7           0        1.021222   -2.363981   -0.509050
     21          1           0       -1.478559    2.267675   -1.523329
     22          1           0       -0.337497    2.987062   -0.375695
     23          1           0       -2.085509    3.209800   -0.140409
     24          1           0       -1.332255    1.629373    1.451577
     25          1           0       -2.421936   -0.036892   -1.769631
     26          1           0       -4.561567   -1.279282   -1.929187
     27          1           0       -6.051932   -1.462059    0.052334
     28          1           0       -5.385061   -0.391629    2.196958
     29          1           0       -3.247128    0.848483    2.346800
     30          1           0        1.176426   -0.652040    1.536133
     31          1           0        0.033367    0.371525    2.384934
     32          1           0       -0.522127   -1.184448    1.733360
     33          1           0        1.615041   -1.124953   -2.034947
     34          1           0        3.388059   -2.301274    0.567053
     35          1           0        5.462527   -1.337560    1.505708
     36          1           0        6.008730    1.058735    1.124902
     37          1           0        4.460702    2.473726   -0.214423
     38          1           0        2.386890    1.502233   -1.151715
     39          1           0        1.583465   -3.084011   -0.955117
     40          1           0        1.130292   -2.481571    0.494025
 ---------------------------------------------------------------------

 SCF Done:  E(UB3LYP) =  -844.884062576     A.U. after   33 cycles
 SCF Done:  E(UB3LYP) =  -844.884062576     a.u. after    1 cycles

 The electronic state is 2-A.
 Alpha  occ. eigenvalues --  -18.99506 -14.25497 -14.20945 -10.17948 -10.13098
 Alpha  occ. eigenvalues --  -10.12352 -10.10932 -10.09693 -10.09594 -10.09249
 Alpha  occ. eigenvalues --  -10.09197 -10.09153 -10.09002 -10.08975 -10.08773
 Alpha  occ. eigenvalues --  -10.08712 -10.08673 -10.08494 -10.08442 -10.07221
 Alpha  occ. eigenvalues --   -0.94846  -0.84948  -0.80833  -0.77379  -0.76680
 Alpha  occ. eigenvalues --   -0.70237  -0.67468  -0.66307  -0.66022  -0.64430
 Alpha  occ. eigenvalues --   -0.61993  -0.59352  -0.56101  -0.52380  -0.52031
 Alpha  occ. eigenvalues --   -0.51358  -0.50164  -0.45489  -0.43829  -0.42813
 Alpha  occ. eigenvalues --   -0.41085  -0.40234  -0.38676  -0.38352  -0.37829
 Alpha  occ. eigenvalues --   -0.36757  -0.36213  -0.35825  -0.34932  -0.33856
 Alpha  occ. eigenvalues --   -0.33625  -0.33289  -0.32602  -0.31543  -0.31106
 Alpha  occ. eigenvalues --   -0.30388  -0.29333  -0.28240  -0.28033  -0.27401
 Alpha  occ. eigenvalues --   -0.26896  -0.26303  -0.25853  -0.25649  -0.25153
 Alpha  occ. eigenvalues --   -0.18320  -0.17250  -0.17172  -0.16962  -0.16553
 Alpha  occ. eigenvalues --   -0.15481  -0.14541   0.03788
 Alpha virt. eigenvalues --    0.05428   0.06188   0.06380   0.06663   0.06810
 Alpha virt. eigenvalues --    0.06864   0.07097   0.07338   0.07969   0.08322
 Alpha virt. eigenvalues --    0.08946   0.09439   0.09527   0.10021   0.10666

  Beta  occ. eigenvalues --  -18.99497 -14.25494 -14.20905 -10.17938 -10.13090
  Beta  occ. eigenvalues --  -10.12345 -10.10899 -10.09694 -10.09585 -10.09238
  Beta  occ. eigenvalues --  -10.09189 -10.09149 -10.08988 -10.08967 -10.08758
  Beta  occ. eigenvalues --  -10.08700 -10.08668 -10.08467 -10.08438 -10.07212
  Beta  occ. eigenvalues --   -0.94829  -0.84933  -0.80777  -0.77357  -0.76651
  Beta  occ. eigenvalues --   -0.70209  -0.67435  -0.66285  -0.65989  -0.64404
  Beta  occ. eigenvalues --   -0.61944  -0.59309  -0.56076  -0.52357  -0.51993
  Beta  occ. eigenvalues --   -0.51326  -0.50134  -0.45461  -0.43786  -0.42785
  Beta  occ. eigenvalues --   -0.41042  -0.40186  -0.38646  -0.38324  -0.37792
  Beta  occ. eigenvalues --   -0.36731  -0.36188  -0.35797  -0.34901  -0.33835
  Beta  occ. eigenvalues --   -0.33592  -0.33264  -0.32576  -0.31515  -0.31078
  Beta  occ. eigenvalues --   -0.30360  -0.29312  -0.28204  -0.28003  -0.27378
  Beta  occ. eigenvalues --   -0.26872  -0.26272  -0.25828  -0.25623  -0.25129
  Beta  occ. eigenvalues --   -0.18294  -0.17216  -0.17144  -0.16925  -0.16535
  Beta  occ. eigenvalues --   -0.15452  -0.14516
  Beta virt. eigenvalues --    0.05734   0.06138   0.06538   0.06707   0.06886
  Beta virt. eigenvalues --    0.07031   0.07149   0.07282   0.07597   0.08317
  Beta virt. eigenvalues --    0.08723   0.09216   0.09696   0.09809   0.10384

 Mulliken charges and spin densities:
               1          2
     1  C   -0.212864  -0.270666
     2  C    0.330356  -0.560552
     3  C   -0.345726   0.773990
     4  C   -0.413228   0.393152
     5  C   -0.253825  -0.050701
     6  C    0.232894  -0.470692
     7  C    0.344541  -0.673125
     8  C   -0.091747  -0.026156
     9  N    0.342349   0.082949
    10  C    0.417075  -0.895305
    11  C   -0.122058  -0.644331
    12  O   -0.213554   0.008578
    13  C    1.152500  -1.413176
    14  C   -0.174963   0.774389
    15  C    1.109771  -1.049114
    16  C    0.289655  -0.596012
    17  C    0.679055  -1.025900
    18  C   -0.515268   0.259899
    19  C   -1.969669   1.540959
    20  N   -0.347331  -0.006838
    21  H    0.167739   0.022056
    22  H    0.025373   0.099272
    23  H    0.100632   0.044342
    24  H    0.010702   0.187250
    25  H    0.209927  -0.029538
    26  H    0.102416   0.061243
    27  H    0.050881   0.083841
    28  H   -0.282915   0.459610
    29  H   -0.291168   0.449273
    30  H    0.383507  -0.240653
    31  H   -0.374519   0.525809
    32  H    0.066325   0.148623
    33  H    0.239562   0.014775
    34  H   -0.710679   0.893151
    35  H   -0.605138   0.795180
    36  H   -0.188656   0.336140
    37  H   -0.197283   0.371925
    38  H    0.153919   0.034330
    39  H   -0.083126   0.352238
    40  H   -0.015463   0.239787
 Sum of Mulliken charges =  -1.00000   1.00000

 Dipole moment (field-independent basis, Debye):
    X=             -4.2444    Y=              3.0591    Z=             -3.3713  Tot=              6.2240
 Quadrupole moment (field-independent basis, Debye-Ang):
   XX=           -214.6122   YY=           -165.4046   ZZ=           -162.2315
   XY=             10.5990   XZ=             -1.2478   YZ=              3.0871

 Summary of Natural Population Analysis:

                                       Natural Population
                Natural  -----------------------------------------------
    Atom  No    Charge         Core      Valence    Rydberg      Total
 -----------------------------------------------------------------------
      C    1   -0.28548      0.99964     2.27978    0.00607     3.28548
      C    2   -0.00635      0.99954     1.99237    0.01444     3.00635
      C    3   -0.01980      0.99948     2.00939    0.01093     3.01980
      C    4   -0.09696      0.99951     2.08946    0.00799     3.09696
      C    5   -0.10015      0.99957     2.09131    0.00927     3.10015
      C    6   -0.10406      0.99956     2.09537    0.00912     3.10406
      C    7   -0.10165      0.99956     2.09186    0.01023     3.10165
      C    8   -0.09902      0.99951     2.08932    0.01019     3.09902
      N    9   -0.25512      0.99962     2.74360    0.01190     3.75512
      C   10   -0.17763      0.99962     2.16985    0.00816     3.17763
      C   11    0.35833      0.99961     1.61623    0.02583     2.64167
      O   12   -0.33196      0.99988     3.32720    0.00489     4.33196
      C   13   -0.05669      0.99951     2.04310    0.01408     3.05669
      C   14   -0.02569      0.99949     2.01483    0.01137     3.02569
      C   15   -0.10695      0.99950     2.09606    0.01139     3.10695
      C   16   -0.09427      0.99956     2.08415    0.01056     3.09427
      C   17   -0.10485      0.99956     2.09516    0.01013     3.10485
      C   18   -0.09692      0.99956     2.08800    0.00936     3.09692
      C   19   -0.10178      0.99950     2.09276    0.00952     3.10178
      N   20   -0.41476      0.99976     2.90530    0.00970     3.91476
      H   21    0.11349      0.00000     0.38562    0.00089     0.38651
      H   22    0.10203      0.00000     0.39706    0.00091     0.39797
      H   23    0.09790      0.00000     0.40144    0.00066     0.40210
      H   24    0.09888      0.00000     0.39899    0.00213     0.40112
      H   25    0.11665      0.00000     0.38184    0.00152     0.38335
      H   26    0.09911      0.00000     0.40014    0.00074     0.40089
      H   27    0.09870      0.00000     0.40055    0.00075     0.40130
      H   28    0.10112      0.00000     0.39795    0.00093     0.39888
      H   29    0.10190      0.00000     0.39670    0.00140     0.39810
      H   30    0.10479      0.00000     0.39343    0.00179     0.39521
      H   31    0.09976      0.00000     0.39867    0.00157     0.40024
      H   32    0.09801      0.00000     0.40058    0.00141     0.40199
      H   33    0.11386      0.00000     0.38453    0.00161     0.38614
      H   34    0.10594      0.00000     0.39102    0.00305     0.39406
      H   35    0.10353      0.00000     0.39491    0.00156     0.39647
      H   36    0.10126      0.00000     0.39774    0.00100     0.39874
      H   37    0.10045      0.00000     0.39868    0.00086     0.39955
      H   38    0.10567      0.00000     0.39292    0.00141     0.39433
      H   39    0.18082      0.00000     0.31720    0.00198     0.31918
      H   40    0.17794      0.00000     0.31968    0.00239     0.32206
 =======================================================================
   * Total *   -0.00000     19.99154    51.76475    0.24372    72.00000

 Normal termination of Gaussian 16 at Sun Dec 13 22:29:12 2020.
