 Gaussian 16, Revision A.03,

 -----------------------------------------------------------
 # opt freq B3LYP/6-31G(d) empiricaldispersion=gd3bj scf=xqc
 -----------------------------------------------------------

 ------------------------------
 CID_73750950_JID_5069_neutraal
 ------------------------------
 Symbolic Z-matrix:
 Charge =  0 Multiplicity = 1

 SCF Done:  E(RB3LYP) =  -1011.69774479     A.U. after   15 cycles
 SCF Done:  E(RB3LYP) =  -1011.70140484     A.U. after   13 cycles
 SCF Done:  E(RB3LYP) =  -1011.70128442     A.U. after   13 cycles
 SCF Done:  E(RB3LYP) =  -1011.70251379     A.U. after   12 cycles
 SCF Done:  E(RB3LYP) =  -1011.70319831     A.U. after   13 cycles
 SCF Done:  E(RB3LYP) =  -1011.70373481     A.U. after   12 cycles
 SCF Done:  E(RB3LYP) =  -1011.68688695     A.U. after   15 cycles
 SCF Done:  E(RB3LYP) =  -1011.70037700     A.U. after   14 cycles
 SCF Done:  E(RB3LYP) =  -1011.70397615     A.U. after   11 cycles
 SCF Done:  E(RB3LYP) =  -1011.70436814     A.U. after   15 cycles
 SCF Done:  E(RB3LYP) =  -1011.70590020     A.U. after   12 cycles
 SCF Done:  E(RB3LYP) =  -1011.70604808     A.U. after   12 cycles
 SCF Done:  E(RB3LYP) =  -1011.70612541     A.U. after   11 cycles
 SCF Done:  E(RB3LYP) =  -1011.70614610     A.U. after   10 cycles
 SCF Done:  E(RB3LYP) =  -1011.70614969     A.U. after   10 cycles
 SCF Done:  E(RB3LYP) =  -1011.70614995     A.U. after    8 cycles
 Optimization completed.
    -- Stationary point found.
 Normal termination of Gaussian 16 at Thu Dec 10 14:52:02 2020.

 --------------------------------------------------------------------
 #N Geom=AllCheck Guess=TCheck SCRF=Check GenChk RB3LYP/6-31G(d) Freq
 --------------------------------------------------------------------

 Structure from the checkpoint file:  "JID_5069.chk"
 ------------------------------
 CID_73750950_JID_5069_neutraal
 ------------------------------
 Charge =  0 Multiplicity = 1

 SCF Done:  E(RB3LYP) =  -1011.70614995     A.U. after    1 cycles

  Exact polarizability: 213.165 -10.902 151.079  16.542   8.526  95.884
 Approx polarizability: 283.288 -22.705 265.594  29.310  22.417 153.550

                      1                      2                      3
                      A                      A                      A
 Frequencies --     26.1387                32.9405                42.4074
 Red. masses --      5.4923                 3.2219                 3.4592
 Frc consts  --      0.0022                 0.0021                 0.0037
 IR Inten    --      0.2443                 0.0468                 0.0121

                      4                      5                      6
                      A                      A                      A
 Frequencies --     78.1120               116.5717               127.9243
 Red. masses --      4.0340                 4.7610                 2.5966
 Frc consts  --      0.0145                 0.0381                 0.0250
 IR Inten    --      0.6369                 1.0076                 0.1064

                      7                      8                      9
                      A                      A                      A
 Frequencies --    153.9195               191.4326               205.9223
 Red. masses --      4.0091                 3.2922                 6.1692
 Frc consts  --      0.0560                 0.0711                 0.1541
 IR Inten    --      0.2362                 0.5591                 0.7645

                     10                     11                     12
                      A                      A                      A
 Frequencies --    243.6649               256.8117               267.8825
 Red. masses --      1.1170                 1.3401                 2.1665
 Frc consts  --      0.0391                 0.0521                 0.0916
 IR Inten    --      2.7267                 0.5933                 1.6049

                     13                     14                     15
                      A                      A                      A
 Frequencies --    291.0257               307.1758               351.4809
 Red. masses --      6.4999                 3.9463                 5.7139
 Frc consts  --      0.3244                 0.2194                 0.4159
 IR Inten    --      3.9454                 3.2457                 4.4190

                     16                     17                     18
                      A                      A                      A
 Frequencies --    385.5262               391.8008               418.5969
 Red. masses --      2.8454                 4.1946                 2.8831
 Frc consts  --      0.2492                 0.3794                 0.2976
 IR Inten    --      4.5581                13.9858                 3.9518

                     19                     20                     21
                      A                      A                      A
 Frequencies --    424.4834               435.9520               479.3808
 Red. masses --      1.4307                 2.0513                 3.4129
 Frc consts  --      0.1519                 0.2297                 0.4621
 IR Inten    --     84.8836                 2.7037                 9.0689

                     22                     23                     24
                      A                      A                      A
 Frequencies --    497.7628               616.0413               629.4967
 Red. masses --      3.3019                 5.7007                 5.8225
 Frc consts  --      0.4820                 1.2747                 1.3594
 IR Inten    --      8.8438                10.6538                 1.3698

                     25                     26                     27
                      A                      A                      A
 Frequencies --    645.9308               678.1281               707.7557
 Red. masses --      6.8259                 6.8752                 1.9096
 Frc consts  --      1.6780                 1.8628                 0.5636
 IR Inten    --      1.9463                27.0156                24.5728

                     28                     29                     30
                      A                      A                      A
 Frequencies --    743.1533               772.9291               784.1543
 Red. masses --      3.4159                 1.4248                 1.7249
 Frc consts  --      1.1115                 0.5015                 0.6249
 IR Inten    --      8.0274                20.7100                21.4543

                     31                     32                     33
                      A                      A                      A
 Frequencies --    847.8952               861.2568               938.7429
 Red. masses --      3.7232                 1.2465                 1.4482
 Frc consts  --      1.5771                 0.5448                 0.7519
 IR Inten    --      7.0895                 0.7660                 4.6461

                     34                     35                     36
                      A                      A                      A
 Frequencies --    943.3811               975.9034               998.8768
 Red. masses --      6.5956                 1.3498                 1.3074
 Frc consts  --      3.4584                 0.7574                 0.7686
 IR Inten    --     99.3387                 0.6053                 4.0455

                     37                     38                     39
                      A                      A                      A
 Frequencies --   1008.0575              1019.9630              1021.8700
 Red. masses --      4.9406                 5.3888                 5.2315
 Frc consts  --      2.9580                 3.3030                 3.2186
 IR Inten    --     52.0996                32.2880                21.1008

                     40                     41                     42
                      A                      A                      A
 Frequencies --   1036.1989              1063.2905              1077.3172
 Red. masses --      1.8159                 2.0611                 2.1655
 Frc consts  --      1.1488                 1.3729                 1.4808
 IR Inten    --      2.8025                 1.9596                70.4256

                     43                     44                     45
                      A                      A                      A
 Frequencies --   1085.7484              1118.2801              1135.3493
 Red. masses --      1.5538                 1.5683                 1.2786
 Frc consts  --      1.0792                 1.1555                 0.9710
 IR Inten    --     12.7509                 1.0134                11.6260

                     46                     47                     48
                      A                      A                      A
 Frequencies --   1169.2957              1194.8811              1196.2432
 Red. masses --      1.3449                 1.0949                 1.4400
 Frc consts  --      1.0834                 0.9210                 1.2141
 IR Inten    --     12.1919                 0.0078                 8.9725

                     49                     50                     51
                      A                      A                      A
 Frequencies --   1214.9454              1260.4538              1285.4994
 Red. masses --      1.1374                 3.2863                 1.2708
 Frc consts  --      0.9892                 3.0762                 1.2373
 IR Inten    --     12.5897               106.3268                10.8325

                     52                     53                     54
                      A                      A                      A
 Frequencies --   1298.6512              1335.1216              1345.4063
 Red. masses --      1.5510                 2.5569                 2.2920
 Frc consts  --      1.5412                 2.6854                 2.4444
 IR Inten    --      5.3457                17.9166                 2.5932

                     55                     56                     57
                      A                      A                      A
 Frequencies --   1368.2311              1390.0897              1406.0372
 Red. masses --      2.2636                 1.3564                 1.3947
 Frc consts  --      2.4968                 1.5442                 1.6245
 IR Inten    --      1.4859                 6.9782                40.3024

                     58                     59                     60
                      A                      A                      A
 Frequencies --   1417.2465              1469.4612              1489.0104
 Red. masses --      1.2428                 1.1504                 1.1157
 Frc consts  --      1.4707                 1.4636                 1.4575
 IR Inten    --      7.5790                 0.3504                 3.2878

                     61                     62                     63
                      A                      A                      A
 Frequencies --   1493.1248              1495.3020              1505.7301
 Red. masses --      1.7927                 1.2586                 1.0501
 Frc consts  --      2.3548                 1.6580                 1.4027
 IR Inten    --      7.2643                 3.5426                11.6850

                     64                     65                     66
                      A                      A                      A
 Frequencies --   1515.4159              1525.5409              1537.9490
 Red. masses --      1.0790                 1.1043                 1.0512
 Frc consts  --      1.4600                 1.5143                 1.4649
 IR Inten    --      7.8312                16.8647                 4.2446

                     67                     68                     69
                      A                      A                      A
 Frequencies --   1542.3426              1552.3976              1631.7016
 Red. masses --      2.2266                 1.0529                 5.3226
 Frc consts  --      3.1207                 1.4950                 8.3494
 IR Inten    --      6.9373                 9.6083                 6.8816

                     70                     71                     72
                      A                      A                      A
 Frequencies --   1653.3872              1665.6508              2943.4753
 Red. masses --      6.1862                 5.8016                 1.0605
 Frc consts  --      9.9637                 9.4834                 5.4137
 IR Inten    --      9.9072                 5.2177                48.4095

                     73                     74                     75
                      A                      A                      A
 Frequencies --   2952.5186              3056.6378              3068.0834
 Red. masses --      1.0622                 1.0640                 1.0722
 Frc consts  --      5.4556                 5.8573                 5.9467
 IR Inten    --    111.8988                20.3342                26.9549

                     76                     77                     78
                      A                      A                      A
 Frequencies --   3070.1811              3084.6982              3113.8600
 Red. masses --      1.0699                 1.0696                 1.1010
 Frc consts  --      5.9417                 5.9967                 6.2900
 IR Inten    --     71.7140                11.3663                11.1784

                     79                     80                     81
                      A                      A                      A
 Frequencies --   3116.6938              3122.6210              3183.2963
 Red. masses --      1.1011                 1.1014                 1.0971
 Frc consts  --      6.3018                 6.3277                 6.5503
 IR Inten    --     26.9423                48.2149                 5.4925

                     82                     83                     84
                      A                      A                      A
 Frequencies --   3185.7166              3196.4890              3208.6606
 Red. masses --      1.0854                 1.0898                 1.0948
 Frc consts  --      6.4901                 6.5604                 6.6411
 IR Inten    --      0.0639                17.2356                33.8361

                     85                     86                     87
                      A                      A                      A
 Frequencies --   3226.5471              3229.0282              3756.4221
 Red. masses --      1.0924                 1.0932                 1.0675
 Frc consts  --      6.7007                 6.7159                 8.8752
 IR Inten    --      6.4955                 5.0194                86.5866

 - Thermochemistry -
 -------------------
 Temperature   298.150 Kelvin.  Pressure   1.00000 Atm.
 Atom     1 has atomic number  6 and mass  12.00000

 Molecular mass:   224.09834 amu.
 Principal axes and moments of inertia in atomic units:
                           1         2         3
     Eigenvalues --  1629.027356991.144177508.86936
           X            1.00000   0.00220  -0.00100
           Y           -0.00218   0.99989   0.01499
           Z            0.00103  -0.01499   0.99989
 This molecule is an asymmetric top.
 Rotational symmetry number  1.
 Warning -- assumption of classical behavior for rotation
           may cause significant error
 Rotational temperatures (Kelvin)      0.05317     0.01239     0.01153
 Rotational constants (GHZ):           1.10786     0.25815     0.24035
 Zero-point vibrational energy     681337.2 (Joules/Mol)
                                  162.84349 (Kcal/Mol)
 Warning -- explicit consideration of  23 degrees of freedom as
           vibrations may cause significant error
 Vibrational temperatures:     37.61    47.39    61.01   112.39   167.72
          (Kelvin)            184.05   221.46   275.43   296.28   350.58
                              369.49   385.42   418.72   441.96   505.70
                              554.69   563.71   602.27   610.74   627.24
                              689.72   716.17   886.35   905.71   929.35
                              975.68  1018.30  1069.23  1112.07  1128.22
                             1219.93  1239.16  1350.64  1357.31  1404.11
                             1437.16  1450.37  1467.50  1470.24  1490.86
                             1529.84  1550.02  1562.15  1608.96  1633.51
                             1682.36  1719.17  1721.13  1748.04  1813.51
                             1849.55  1868.47  1920.94  1935.74  1968.58
                             2000.03  2022.97  2039.10  2114.23  2142.35
                             2148.27  2151.41  2166.41  2180.35  2194.91
                             2212.77  2219.09  2233.55  2347.65  2378.86
                             2396.50  4235.00  4248.02  4397.82  4414.29
                             4417.31  4438.19  4480.15  4484.23  4492.76
                             4580.05  4583.54  4599.03  4616.55  4642.28
                             4645.85  5404.65

 Zero-point correction=                           0.259508 (Hartree/Particle)
 Thermal correction to Energy=                    0.275171
 Thermal correction to Enthalpy=                  0.276115
 Thermal correction to Gibbs Free Energy=         0.215122
 Sum of electronic and zero-point Energies=          -1011.446642
 Sum of electronic and thermal Energies=             -1011.430979
 Sum of electronic and thermal Enthalpies=           -1011.430035
 Sum of electronic and thermal Free Energies=        -1011.491027

                     E (Thermal)             CV                S
                      KCal/Mol        Cal/Mol-Kelvin    Cal/Mol-Kelvin
 Total                  172.672             58.482            128.370
 Electronic               0.000              0.000              0.000
 Translational            0.889              2.981             42.123
 Rotational               0.889              2.981             32.814
 Vibrational            170.895             52.521             53.433
 Vibration     1          0.593              1.985              6.103
 Vibration     2          0.594              1.983              5.644
 Vibration     3          0.595              1.980              5.143
 Vibration     4          0.599              1.964              3.938
 Vibration     5          0.608              1.936              3.156
 Vibration     6          0.611              1.925              2.977
 Vibration     7          0.619              1.898              2.623
 Vibration     8          0.634              1.852              2.214
 Vibration     9          0.640              1.831              2.080
 Vibration    10          0.659              1.773              1.776
 Vibration    11          0.666              1.751              1.683
 Vibration    12          0.673              1.732              1.610
 Vibration    13          0.687              1.690              1.468
 Vibration    14          0.697              1.660              1.377
 Vibration    15          0.728              1.572              1.160
 Vibration    16          0.754              1.501              1.017
 Vibration    17          0.759              1.488              0.993
 Vibration    18          0.781              1.430              0.897
 Vibration    19          0.786              1.417              0.877
 Vibration    20          0.796              1.392              0.839
 Vibration    21          0.836              1.296              0.712
 Vibration    22          0.853              1.255              0.664
 Vibration    23          0.976              0.998              0.423

 Optimization completed.
    -- Stationary point found.
 Normal termination of Gaussian 16 at Thu Dec 10 15:00:21 2020.

 ----------------------------------------------------------------------
 # B3LYP/6-311++G(d,p) empiricaldispersion=gd3bj scf=xqc pop=npa geom=c
 heck
 ----------------------------------------------------------------------

 --------------------------------------
 CID_73750950_JID_5069_Energie_neutraal
 --------------------------------------
 Structure from the checkpoint file:  "JID_5069.chk"
 Charge =  0 Multiplicity = 1

 SCF Done:  E(RB3LYP) =  -1011.90730574     A.U. after   16 cycles
 Normal termination of Gaussian 16 at Thu Dec 10 15:05:42 2020.

 ----------------------------------------------------------------------
 # B3LYP/6-311++G(d,p) empiricaldispersion=gd3bj scf=xqc pop=npa geom=c
 heck
 ----------------------------------------------------------------------

 ------------------------------------
 CID_73750950_JID_5069_Energie_kation
 ------------------------------------
 Structure from the checkpoint file:  "JID_5069.chk"
 Charge =  1 Multiplicity = 2

 SCF Done:  E(UB3LYP) =  -1011.63139625     A.U. after   24 cycles
 Normal termination of Gaussian 16 at Thu Dec 10 15:20:08 2020.
 Gaussian 16:  ES64L-G16RevA.03 25-Dec-2016

 ----------------------------------------------------------------------
 # B3LYP/6-311++G(d,p) empiricaldispersion=gd3bj scf=xqc pop=npa geom=c
 heck
 ----------------------------------------------------------------------

 -----------------------------------
 CID_73750950_JID_5069_Energie_anion
 -----------------------------------
 Structure from the checkpoint file:  "JID_5069.chk"
 Charge = -1 Multiplicity = 2

                         Standard orientation:
 ---------------------------------------------------------------------
 Center     Atomic      Atomic             Coordinates (Angstroms)
 Number     Number       Type             X           Y           Z
 ---------------------------------------------------------------------
      1          6           0       -3.991697    0.811768    1.054549
      2          7           0       -3.481364   -0.547688    0.991588
      3          6           0       -4.430402   -1.469676    0.392591
      4          6           0       -2.127627   -0.652816    0.465700
      5          6           0       -1.963329   -0.277683   -1.017211
      6         16           0       -0.215151   -0.346213   -1.582621
      7          6           0        0.696614    0.624906   -0.390415
      8          7           0        0.349285    1.745322    0.141869
      9          8           0       -0.874742    2.239401   -0.331259
     10          6           0        2.046882    0.120779   -0.031612
     11          6           0        3.065454    1.036194    0.282700
     12          6           0        4.331374    0.586125    0.643339
     13          6           0        4.605041   -0.783259    0.687149
     14          6           0        3.601309   -1.698317    0.370241
     15          6           0        2.330152   -1.252054    0.012124
     16          1           0       -4.260730    1.240790    0.071014
     17          1           0       -3.238348    1.462610    1.509701
     18          1           0       -4.891476    0.833076    1.680608
     19          1           0       -4.703318   -1.225007   -0.651858
     20          1           0       -4.016074   -2.483753    0.406987
     21          1           0       -5.355223   -1.472268    0.981004
     22          1           0       -1.485581   -0.003442    1.068338
     23          1           0       -1.777872   -1.681892    0.613126
     24          1           0       -2.456065   -1.011282   -1.663902
     25          1           0       -2.371698    0.708864   -1.227830
     26          1           0       -0.969579    3.057768    0.180411
     27          1           0        2.847510    2.097130    0.235798
     28          1           0        5.110449    1.305188    0.880389
     29          1           0        5.596150   -1.133195    0.961850
     30          1           0        3.805002   -2.764776    0.404173
     31          1           0        1.549127   -1.964846   -0.226938
 ---------------------------------------------------------------------

 SCF Done:  E(UB3LYP) =  -1011.90628094     A.U. after   31 cycles

 The electronic state is 2-A.
 Alpha  occ. eigenvalues --  -88.71989 -19.03602 -14.20285 -14.20135 -10.08662
 Alpha  occ. eigenvalues --  -10.08585 -10.08216 -10.08084 -10.07151 -10.04645
 Alpha  occ. eigenvalues --  -10.04592 -10.04404 -10.03945 -10.03699 -10.03490
 Alpha  occ. eigenvalues --   -7.80558  -5.76953  -5.76552  -5.75974  -0.95416
 Alpha  occ. eigenvalues --   -0.82010  -0.74910  -0.71428  -0.66872  -0.62166
 Alpha  occ. eigenvalues --   -0.61522  -0.60704  -0.59449  -0.53276  -0.49198
 Alpha  occ. eigenvalues --   -0.47659  -0.46600  -0.42941  -0.38569  -0.38378
 Alpha  occ. eigenvalues --   -0.37310  -0.36523  -0.35200  -0.33952  -0.32305
 Alpha  occ. eigenvalues --   -0.31710  -0.31004  -0.29581  -0.29055  -0.28576
 Alpha  occ. eigenvalues --   -0.28414  -0.27247  -0.26635  -0.25618  -0.24247
 Alpha  occ. eigenvalues --   -0.23691  -0.21955  -0.21884  -0.21211  -0.16955
 Alpha  occ. eigenvalues --   -0.14134  -0.12911  -0.12448  -0.11074  -0.09369
 Alpha  occ. eigenvalues --    0.04638
 Alpha virt. eigenvalues --    0.06265   0.08039   0.08270   0.08750   0.09642
 Alpha virt. eigenvalues --    0.09747   0.10764   0.11145   0.11236   0.11709
 Alpha virt. eigenvalues --    0.12267   0.12670   0.13459   0.13628   0.14194

  Beta  occ. eigenvalues --  -88.71984 -19.03518 -14.20135 -14.19754 -10.08630
  Beta  occ. eigenvalues --  -10.08569 -10.08103 -10.08082 -10.07074 -10.04706
  Beta  occ. eigenvalues --  -10.04481 -10.04405 -10.03881 -10.03457 -10.03346
  Beta  occ. eigenvalues --   -7.80550  -5.76954  -5.76549  -5.75956  -0.95044
  Beta  occ. eigenvalues --   -0.82002  -0.74462  -0.71117  -0.66690  -0.61849
  Beta  occ. eigenvalues --   -0.61206  -0.60666  -0.59332  -0.53032  -0.48811
  Beta  occ. eigenvalues --   -0.47583  -0.46477  -0.42777  -0.38434  -0.38222
  Beta  occ. eigenvalues --   -0.37265  -0.36367  -0.35102  -0.33737  -0.32129
  Beta  occ. eigenvalues --   -0.31561  -0.30727  -0.29441  -0.28919  -0.28504
  Beta  occ. eigenvalues --   -0.28059  -0.26936  -0.26271  -0.25523  -0.23809
  Beta  occ. eigenvalues --   -0.23411  -0.21786  -0.21723  -0.21047  -0.16096
  Beta  occ. eigenvalues --   -0.13566  -0.12367  -0.12044  -0.10668  -0.08197
  Beta virt. eigenvalues --    0.06665   0.08128   0.08235   0.08990   0.09469
  Beta virt. eigenvalues --    0.09717   0.09988   0.10800   0.11232   0.11359
  Beta virt. eigenvalues --    0.11772   0.12367   0.12685   0.13474   0.13765

 Mulliken charges and spin densities:
               1          2
     1  C   -0.058309  -0.323316
     2  N    0.069544   0.084870
     3  C    0.412023  -0.738419
     4  C   -0.960725   0.282511
     5  C   -0.160586  -0.255661
     6  S   -0.193248   0.052495
     7  C   -0.419196   0.062473
     8  N   -0.236167   0.234823
     9  O   -0.049169   0.014944
    10  C    1.327321   0.028475
    11  C    0.363979   0.153196
    12  C   -0.423044  -0.032747
    13  C   -0.338210   0.193626
    14  C   -0.294305   0.000322
    15  C   -1.231990   0.051485
    16  H    0.003256   0.108542
    17  H    0.090112   0.047528
    18  H   -0.029840   0.154672
    19  H   -0.190071   0.310355
    20  H   -0.045137   0.169633
    21  H   -0.175830   0.307653
    22  H    0.246335  -0.025065
    23  H    0.222861  -0.034935
    24  H    0.059000   0.143033
    25  H    0.192260   0.014816
    26  H    0.247705   0.005638
    27  H    0.162981  -0.001422
    28  H    0.116253   0.003644
    29  H    0.100636  -0.015734
    30  H    0.135498  -0.001075
    31  H    0.056062   0.003639
 Sum of Mulliken charges =  -1.00000   1.00000

 Dipole moment (field-independent basis, Debye):
    X=              0.1029    Y=              0.9116    Z=              0.6387  Tot=              1.1178
 Quadrupole moment (field-independent basis, Debye-Ang):
   XX=           -168.3142   YY=           -110.4058   ZZ=           -121.7901
   XY=             -6.0356   XZ=              0.8572   YZ=              2.1114

 Summary of Natural Population Analysis:

                                       Natural Population
                Natural  -----------------------------------------------
    Atom  No    Charge         Core      Valence    Rydberg      Total
 -----------------------------------------------------------------------
      C    1   -0.17756      0.99965     2.16888    0.00903     3.17756
      N    2   -0.27756      0.99974     2.76489    0.01293     3.77756
      C    3   -0.17774      0.99965     2.16929    0.00880     3.17774
      C    4   -0.09157      0.99960     2.07838    0.01359     3.09157
      C    5   -0.25355      0.99958     2.24353    0.01043     3.25355
      S    6    0.09959      4.99955     2.88178    0.01908     7.90041
      C    7    0.03075      0.99952     1.95003    0.01971     2.96925
      N    8   -0.03062      0.99957     2.51427    0.01678     3.53062
      O    9   -0.28769      0.99990     3.28040    0.00739     4.28769
      C   10   -0.02790      0.99946     2.01744    0.01100     3.02790
      C   11   -0.06011      0.99953     2.05233    0.00825     3.06011
      C   12   -0.12314      0.99957     2.11441    0.00916     3.12314
      C   13   -0.06735      0.99957     2.05803    0.00974     3.06735
      C   14   -0.11404      0.99958     2.10498    0.00949     3.11404
      C   15   -0.08211      0.99953     2.07473    0.00785     3.08211
      H   16    0.07968      0.00000     0.41894    0.00138     0.42032
      H   17    0.09723      0.00000     0.40157    0.00119     0.40277
      H   18    0.08996      0.00000     0.40900    0.00103     0.41004
      H   19    0.08028      0.00000     0.41794    0.00179     0.41972
      H   20    0.09405      0.00000     0.40499    0.00096     0.40595
      H   21    0.09241      0.00000     0.40645    0.00114     0.40759
      H   22    0.10419      0.00000     0.39436    0.00145     0.39581
      H   23    0.09278      0.00000     0.40601    0.00121     0.40722
      H   24    0.09954      0.00000     0.39920    0.00126     0.40046
      H   25    0.10778      0.00000     0.39018    0.00204     0.39222
      H   26    0.22745      0.00000     0.26949    0.00306     0.27255
      H   27    0.10238      0.00000     0.39646    0.00116     0.39762
      H   28    0.09134      0.00000     0.40763    0.00104     0.40866
      H   29    0.08767      0.00000     0.41128    0.00104     0.41233
      H   30    0.09113      0.00000     0.40782    0.00104     0.40887
      H   31    0.10272      0.00000     0.39619    0.00109     0.39728
 =======================================================================
   * Total *   -0.00000     18.99400    40.81087    0.19513    60.00000

 Normal termination of Gaussian 16 at Thu Dec 10 15:35:05 2020.
