 Gaussian 16, Revision A.03,

 -----------------------------------------------------------
 # opt freq B3LYP/6-31G(d) empiricaldispersion=gd3bj scf=xqc
 -----------------------------------------------------------

 -------------------------------
 CID_133683374_JID_3777_neutraal
 -------------------------------
 Symbolic Z-matrix:
 Charge =  0 Multiplicity = 1

 SCF Done:  E(RB3LYP) =  -561.805397147     A.U. after   14 cycles
 SCF Done:  E(RB3LYP) =  -561.810255795     A.U. after   12 cycles
 SCF Done:  E(RB3LYP) =  -561.811191521     A.U. after   12 cycles
 SCF Done:  E(RB3LYP) =  -561.811814130     A.U. after   11 cycles
 SCF Done:  E(RB3LYP) =  -561.812044958     A.U. after   12 cycles
 SCF Done:  E(RB3LYP) =  -561.812241780     A.U. after   10 cycles
 SCF Done:  E(RB3LYP) =  -561.812274306     A.U. after   10 cycles
 SCF Done:  E(RB3LYP) =  -561.812299099     A.U. after    9 cycles
 SCF Done:  E(RB3LYP) =  -561.812305732     A.U. after    8 cycles
 SCF Done:  E(RB3LYP) =  -561.812309114     A.U. after    9 cycles
 SCF Done:  E(RB3LYP) =  -561.812309938     A.U. after    7 cycles
 SCF Done:  E(RB3LYP) =  -561.812310232     A.U. after    7 cycles
 SCF Done:  E(RB3LYP) =  -561.812310242     A.U. after    6 cycles
 Optimization completed.
    -- Stationary point found.
 Normal termination of Gaussian 16 at Mon Dec 14 13:10:54 2020.

 --------------------------------------------------------------------
 #N Geom=AllCheck Guess=TCheck SCRF=Check GenChk RB3LYP/6-31G(d) Freq
 --------------------------------------------------------------------

 Structure from the checkpoint file:  "JID_3777.chk"
 -------------------------------
 CID_133683374_JID_3777_neutraal
 -------------------------------
 Charge =  0 Multiplicity = 1

 SCF Done:  E(RB3LYP) =  -561.812310242     A.U. after    1 cycles

  Exact polarizability: 150.500   4.791 116.439   2.158   1.424 108.790
 Approx polarizability: 192.792   6.719 166.229   3.998   2.583 161.964

                      1                      2                      3
                      A                      A                      A
 Frequencies --     29.7972                50.8120                80.6436
 Red. masses --      3.1157                 3.3878                 2.8809
 Frc consts  --      0.0016                 0.0052                 0.0110
 IR Inten    --      1.1685                 0.1896                 5.5463

                      4                      5                      6
                      A                      A                      A
 Frequencies --     91.9653               137.5945               168.0388
 Red. masses --      2.8998                 2.5897                 1.3932
 Frc consts  --      0.0144                 0.0289                 0.0232
 IR Inten    --      0.4628                 0.7160                 1.8633

                      7                      8                      9
                      A                      A                      A
 Frequencies --    196.0314               217.7075               224.5175
 Red. masses --      1.9639                 2.0127                 1.6440
 Frc consts  --      0.0445                 0.0562                 0.0488
 IR Inten    --      1.3808                 3.6400                 2.9753

                     10                     11                     12
                      A                      A                      A
 Frequencies --    233.7425               263.8289               281.2912
 Red. masses --      1.2814                 1.1344                 2.2381
 Frc consts  --      0.0412                 0.0465                 0.1043
 IR Inten    --     17.2203                10.2862                 5.7238

                     13                     14                     15
                      A                      A                      A
 Frequencies --    282.4195               318.4450               349.9639
 Red. masses --      1.7555                 2.1170                 2.2916
 Frc consts  --      0.0825                 0.1265                 0.1654
 IR Inten    --      6.9605                 7.2849                 5.3389

                     16                     17                     18
                      A                      A                      A
 Frequencies --    383.0974               397.6871               412.3371
 Red. masses --      2.6880                 2.4098                 3.3432
 Frc consts  --      0.2324                 0.2245                 0.3349
 IR Inten    --      9.4568                 3.6609                 2.1374

                     19                     20                     21
                      A                      A                      A
 Frequencies --    458.9737               477.5034               525.0325
 Red. masses --      2.6603                 2.0985                 3.0612
 Frc consts  --      0.3302                 0.2819                 0.4972
 IR Inten    --      5.8572                 1.4691                 1.3726

                     22                     23                     24
                      A                      A                      A
 Frequencies --    583.8648               627.8152               674.0255
 Red. masses --      3.2915                 2.5010                 3.3047
 Frc consts  --      0.6611                 0.5808                 0.8846
 IR Inten    --      0.9908                 4.2976                 2.9479

                     25                     26                     27
                      A                      A                      A
 Frequencies --    737.4063               779.5087               834.7184
 Red. masses --      2.3463                 2.7560                 2.5092
 Frc consts  --      0.7517                 0.9867                 1.0301
 IR Inten    --      0.8832                 6.0731                 7.0123

                     28                     29                     30
                      A                      A                      A
 Frequencies --    868.6198               880.2015               901.2650
 Red. masses --      2.3028                 2.3050                 1.9888
 Frc consts  --      1.0237                 1.0522                 0.9518
 IR Inten    --     28.2874                15.3420                65.2853

                     31                     32                     33
                      A                      A                      A
 Frequencies --    933.8684               940.1901               941.8002
 Red. masses --      1.5767                 1.3777                 2.3848
 Frc consts  --      0.8102                 0.7175                 1.2463
 IR Inten    --     11.9960                42.8234                 4.2889

                     34                     35                     36
                      A                      A                      A
 Frequencies --    993.2164              1019.1597              1048.7240
 Red. masses --      1.9256                 1.7193                 2.0206
 Frc consts  --      1.1192                 1.0521                 1.3093
 IR Inten    --      4.7976                 0.8582                17.5112

                     37                     38                     39
                      A                      A                      A
 Frequencies --   1061.9031              1075.3941              1089.8750
 Red. masses --      1.4771                 2.0825                 1.7726
 Frc consts  --      0.9814                 1.4189                 1.2406
 IR Inten    --      1.6380                 0.3795                 9.0788

                     40                     41                     42
                      A                      A                      A
 Frequencies --   1095.7759              1119.2148              1143.9360
 Red. masses --      2.3515                 2.3661                 1.6218
 Frc consts  --      1.6636                 1.7462                 1.2504
 IR Inten    --     53.4279                 2.1429                16.2206

                     43                     44                     45
                      A                      A                      A
 Frequencies --   1148.0124              1170.4148              1182.4077
 Red. masses --      2.7273                 2.2052                 1.3799
 Frc consts  --      2.1177                 1.7798                 1.1367
 IR Inten    --     78.4836                26.9380                16.5324

                     46                     47                     48
                      A                      A                      A
 Frequencies --   1189.1077              1218.5150              1229.5688
 Red. masses --      1.2779                 1.9511                 1.4261
 Frc consts  --      1.0646                 1.7068                 1.2703
 IR Inten    --      4.0457                 2.7879                 3.9132

                     49                     50                     51
                      A                      A                      A
 Frequencies --   1237.6533              1296.0001              1308.9893
 Red. masses --      1.6004                 1.4026                 1.8664
 Frc consts  --      1.4444                 1.3880                 1.8842
 IR Inten    --     21.1937                 6.8217                 4.2900

                     52                     53                     54
                      A                      A                      A
 Frequencies --   1314.6790              1365.5650              1384.4516
 Red. masses --      1.3693                 1.4418                 1.4358
 Frc consts  --      1.3944                 1.5841                 1.6215
 IR Inten    --      1.0520                 1.9689                 1.6805

                     55                     56                     57
                      A                      A                      A
 Frequencies --   1386.5008              1393.8730              1404.3588
 Red. masses --      1.4572                 1.2947                 1.3171
 Frc consts  --      1.6505                 1.4820                 1.5304
 IR Inten    --      1.6578                 6.7965                 4.6486

                     58                     59                     60
                      A                      A                      A
 Frequencies --   1414.5903              1416.8836              1428.7921
 Red. masses --      1.3851                 1.4544                 1.2666
 Frc consts  --      1.6330                 1.7203                 1.5234
 IR Inten    --     16.1372                 0.6277                 5.2235

                     61                     62                     63
                      A                      A                      A
 Frequencies --   1433.1419              1446.2224              1497.6419
 Red. masses --      1.2373                 1.2062                 1.1148
 Frc consts  --      1.4973                 1.4864                 1.4732
 IR Inten    --      2.9263                 6.1744                 3.9621

                     64                     65                     66
                      A                      A                      A
 Frequencies --   1500.3771              1503.5951              1508.9695
 Red. masses --      1.0971                 1.0986                 1.0674
 Frc consts  --      1.4552                 1.4633                 1.4319
 IR Inten    --      0.6313                 2.8613                 7.1212

                     67                     68                     69
                      A                      A                      A
 Frequencies --   1516.1538              1523.6197              1525.2245
 Red. masses --      1.0652                 1.0474                 1.0815
 Frc consts  --      1.4426                 1.4326                 1.4823
 IR Inten    --      1.0729                 1.2628                 2.8150

                     70                     71                     72
                      A                      A                      A
 Frequencies --   1532.2946              1535.4290              1547.4935
 Red. masses --      1.0664                 1.0919                 1.0530
 Frc consts  --      1.4752                 1.5166                 1.4858
 IR Inten    --      1.9478                 3.7361                 2.2176

                     73                     74                     75
                      A                      A                      A
 Frequencies --   1550.3631              1690.0321              1715.0315
 Red. masses --      1.0539                 1.1179                 6.2984
 Frc consts  --      1.4926                 1.8812                10.9150
 IR Inten    --     17.8475                22.3992                 7.0139

                     76                     77                     78
                      A                      A                      A
 Frequencies --   3012.6766              3019.6185              3022.1930
 Red. masses --      1.0422                 1.0689                 1.0683
 Frc consts  --      5.5730                 5.7425                 5.7489
 IR Inten    --     27.5271                28.6009                 5.2940

                     79                     80                     81
                      A                      A                      A
 Frequencies --   3029.1952              3034.5117              3041.6527
 Red. masses --      1.0651                 1.0435                 1.0600
 Frc consts  --      5.7582                 5.6614                 5.7781
 IR Inten    --     40.3262                19.9408                40.3216

                     82                     83                     84
                      A                      A                      A
 Frequencies --   3042.6279              3069.5382              3072.0917
 Red. masses --      1.0375                 1.1014                 1.0848
 Frc consts  --      5.6590                 6.1142                 6.0323
 IR Inten    --     37.0150                77.3095                13.2329

                     85                     86                     87
                      A                      A                      A
 Frequencies --   3074.5219              3075.7496              3080.7777
 Red. masses --      1.0972                 1.0983                 1.0936
 Frc consts  --      6.1107                 6.1216                 6.1152
 IR Inten    --     44.7330                20.7859                 2.5293

                     88                     89                     90
                      A                      A                      A
 Frequencies --   3083.8544              3093.4677              3104.7442
 Red. masses --      1.0930                 1.0972                 1.1021
 Frc consts  --      6.1245                 6.1865                 6.2593
 IR Inten    --     78.5726                45.6288                36.4543

                     91                     92                     93
                      A                      A                      A
 Frequencies --   3114.6616              3122.4597              3125.4498
 Red. masses --      1.0882                 1.0990                 1.0999
 Frc consts  --      6.2201                 6.3130                 6.3302
 IR Inten    --     27.2944                57.9164                33.6582

                     94                     95                     96
                      A                      A                      A
 Frequencies --   3174.6270              3436.6191              3524.1136
 Red. masses --      1.0941                 1.0492                 1.0917
 Frc consts  --      6.4967                 7.3005                 7.9882
 IR Inten    --      6.4086                 7.8662                 2.4969

 - Thermochemistry -
 -------------------
 Temperature   298.150 Kelvin.  Pressure   1.00000 Atm.
 Atom     1 has atomic number  6 and mass  12.00000

 Molecular mass:   183.16231 amu.
 Principal axes and moments of inertia in atomic units:
                           1         2         3
     Eigenvalues --  1523.594803366.473913845.38038
           X            0.99987   0.01364   0.00853
           Y           -0.01363   0.99991  -0.00110
           Z           -0.00855   0.00098   0.99996
 This molecule is an asymmetric top.
 Rotational symmetry number  1.
 Warning -- assumption of classical behavior for rotation
           may cause significant error
 Rotational temperatures (Kelvin)      0.05685     0.02573     0.02252
 Rotational constants (GHZ):           1.18453     0.53609     0.46933
 Zero-point vibrational energy     818263.8 (Joules/Mol)
                                  195.56973 (Kcal/Mol)
 Warning -- explicit consideration of  22 degrees of freedom as
           vibrations may cause significant error
 Vibrational temperatures:     42.87    73.11   116.03   132.32   197.97
          (Kelvin)            241.77   282.05   313.23   323.03   336.30
                              379.59   404.72   406.34   458.17   503.52
                              551.19   572.18   593.26   660.36   687.02
                              755.40   840.05   903.29   969.77  1060.96
                             1121.54  1200.97  1249.75  1266.41  1296.72
                             1343.63  1352.72  1355.04  1429.02  1466.34
                             1508.88  1527.84  1547.25  1568.09  1576.58
                             1610.30  1645.87  1651.73  1683.97  1701.22
                             1710.86  1753.17  1769.08  1780.71  1864.66
                             1883.34  1891.53  1964.74  1991.92  1994.87
                             2005.47  2020.56  2035.28  2038.58  2055.71
                             2061.97  2080.79  2154.77  2158.71  2163.34
                             2171.07  2181.41  2192.15  2194.46  2204.63
                             2209.14  2226.50  2230.63  2431.58  2467.55
                             4334.57  4344.56  4348.26  4358.34  4365.99
                             4376.26  4377.66  4416.38  4420.05  4423.55
                             4425.32  4432.55  4436.98  4450.81  4467.03
                             4481.30  4492.52  4496.83  4567.58  4944.53
                             5070.41

 Zero-point correction=                           0.311660 (Hartree/Particle)
 Thermal correction to Energy=                    0.326425
 Thermal correction to Enthalpy=                  0.327369
 Thermal correction to Gibbs Free Energy=         0.270164
 Sum of electronic and zero-point Energies=           -561.500650
 Sum of electronic and thermal Energies=              -561.485885
 Sum of electronic and thermal Enthalpies=            -561.484941
 Sum of electronic and thermal Free Energies=         -561.542146

                     E (Thermal)             CV                S
                      KCal/Mol        Cal/Mol-Kelvin    Cal/Mol-Kelvin
 Total                  204.835             55.926            120.398
 Electronic               0.000              0.000              0.000
 Translational            0.889              2.981             41.522
 Rotational               0.889              2.981             31.356
 Vibrational            203.057             49.964             47.519
 Vibration     1          0.594              1.984              5.843
 Vibration     2          0.595              1.977              4.786
 Vibration     3          0.600              1.962              3.875
 Vibration     4          0.602              1.955              3.618
 Vibration     5          0.614              1.916              2.837
 Vibration     6          0.625              1.882              2.457
 Vibration     7          0.636              1.845              2.170
 Vibration     8          0.646              1.814              1.978
 Vibration     9          0.649              1.804              1.922
 Vibration    10          0.654              1.789              1.850
 Vibration    11          0.670              1.739              1.636
 Vibration    12          0.681              1.708              1.526
 Vibration    13          0.681              1.706              1.519
 Vibration    14          0.705              1.638              1.318
 Vibration    15          0.727              1.575              1.166
 Vibration    16          0.752              1.506              1.027
 Vibration    17          0.764              1.475              0.971
 Vibration    18          0.776              1.443              0.918
 Vibration    19          0.817              1.341              0.769
 Vibration    20          0.834              1.300              0.717
 Vibration    21          0.880              1.195              0.598
 Vibration    22          0.941              1.066              0.478

 Optimization completed.
    -- Stationary point found.
 Normal termination of Gaussian 16 at Mon Dec 14 13:20:46 2020.

 ----------------------------------------------------------------------
 # B3LYP/6-311++G(d,p) empiricaldispersion=gd3bj scf=xqc pop=npa geom=c
 heck
 ----------------------------------------------------------------------

 ---------------------------------------
 CID_133683374_JID_3777_Energie_neutraal
 ---------------------------------------
 Structure from the checkpoint file:  "JID_3777.chk"
 Charge =  0 Multiplicity = 1

 SCF Done:  E(RB3LYP) =  -561.976718326     A.U. after   16 cycles
 Normal termination of Gaussian 16 at Mon Dec 14 13:25:19 2020.

 ----------------------------------------------------------------------
 # B3LYP/6-311++G(d,p) empiricaldispersion=gd3bj scf=xqc pop=npa geom=c
 heck
 ----------------------------------------------------------------------

 -------------------------------------
 CID_133683374_JID_3777_Energie_kation
 -------------------------------------
 Structure from the checkpoint file:  "JID_3777.chk"
 Charge =  1 Multiplicity = 2

 SCF Done:  E(UB3LYP) =  -561.675412903     A.U. after   23 cycles
 Normal termination of Gaussian 16 at Mon Dec 14 13:34:06 2020.
 Gaussian 16:  ES64L-G16RevA.03 25-Dec-2016

 ----------------------------------------------------------------------
 # B3LYP/6-311++G(d,p) empiricaldispersion=gd3bj scf=xqc pop=npa geom=c
 heck
 ----------------------------------------------------------------------

 ------------------------------------
 CID_133683374_JID_3777_Energie_anion
 ------------------------------------
 Structure from the checkpoint file:  "JID_3777.chk"
 Charge = -1 Multiplicity = 2

                         Standard orientation:
 ---------------------------------------------------------------------
 Center     Atomic      Atomic             Coordinates (Angstroms)
 Number     Number       Type             X           Y           Z
 ---------------------------------------------------------------------
      1          6           0       -3.599416    0.578020   -0.796085
      2          6           0       -2.346481    0.664971    0.092374
      3          6           0       -1.188566   -0.194196   -0.405172
      4          6           0        0.099104    0.171775   -0.238049
      5          6           0        0.516898    1.411542    0.532904
      6          6           0        1.800259    2.080104    0.021358
      7          6           0        2.941783    1.068488   -0.075660
      8          6           0        2.543524   -0.052949   -1.036857
      9          6           0        1.215348   -0.759139   -0.710766
     10          8           0        1.420994   -1.890350    0.163783
     11          6           0        1.324078   -1.670133    1.557815
     12          6           0       -1.585010   -1.533254   -0.992185
     13          7           0       -2.594865    0.328508    1.511139
     14          1           0       -3.373717    0.843358   -1.836200
     15          1           0       -4.361390    1.277397   -0.431483
     16          1           0       -4.039839   -0.424684   -0.789983
     17          1           0       -2.034803    1.713759    0.084949
     18          1           0       -0.289764    2.147415    0.562164
     19          1           0        0.676387    1.119634    1.581694
     20          1           0        2.066462    2.909883    0.687346
     21          1           0        1.619780    2.515332   -0.972142
     22          1           0        3.164002    0.664052    0.920431
     23          1           0        3.860791    1.552264   -0.429353
     24          1           0        3.316729   -0.826460   -1.100614
     25          1           0        2.444784    0.383491   -2.041742
     26          1           0        0.894554   -1.238271   -1.639483
     27          1           0        2.106100   -0.996348    1.936618
     28          1           0        0.344126   -1.266470    1.845384
     29          1           0        1.455483   -2.648884    2.028047
     30          1           0       -1.960550   -1.440370   -2.020244
     31          1           0       -0.765521   -2.250845   -0.978732
     32          1           0       -2.401714   -1.977195   -0.408491
     33          1           0       -3.419316    0.835693    1.836519
     34          1           0       -2.835621   -0.660876    1.579015
 ---------------------------------------------------------------------

 SCF Done:  E(UB3LYP) =  -561.962364612     A.U. after   33 cycles
 SCF Done:  E(UB3LYP) =  -561.962364612     a.u. after    1 cycles

 The electronic state is 2-A.
 Alpha  occ. eigenvalues --  -19.01944 -14.18412 -10.11821 -10.10764 -10.09298
 Alpha  occ. eigenvalues --  -10.07108 -10.06696 -10.06611 -10.06608 -10.06413
 Alpha  occ. eigenvalues --  -10.06219 -10.05738 -10.05069  -0.92680  -0.78288
 Alpha  occ. eigenvalues --   -0.73103  -0.68681  -0.65029  -0.63016  -0.60711
 Alpha  occ. eigenvalues --   -0.58157  -0.54399  -0.51609  -0.49263  -0.45736
 Alpha  occ. eigenvalues --   -0.41903  -0.40743  -0.37725  -0.36887  -0.35739
 Alpha  occ. eigenvalues --   -0.34637  -0.33428  -0.32812  -0.32145  -0.32007
 Alpha  occ. eigenvalues --   -0.30907  -0.30278  -0.29207  -0.28619  -0.27878
 Alpha  occ. eigenvalues --   -0.27184  -0.25320  -0.24536  -0.24009  -0.23391
 Alpha  occ. eigenvalues --   -0.22598  -0.22010  -0.18817  -0.15445  -0.13973
 Alpha  occ. eigenvalues --   -0.13161   0.04498
 Alpha virt. eigenvalues --    0.06397   0.07384   0.07516   0.08538   0.08900
 Alpha virt. eigenvalues --    0.09152   0.09351   0.09961   0.11005   0.11252
 Alpha virt. eigenvalues --    0.11520   0.12036   0.12365   0.12567   0.13540

  Beta  occ. eigenvalues --  -19.01938 -14.18365 -10.11816 -10.10750 -10.09286
  Beta  occ. eigenvalues --  -10.07096 -10.06682 -10.06605 -10.06600 -10.06394
  Beta  occ. eigenvalues --  -10.06211 -10.05708 -10.05028  -0.92668  -0.78208
  Beta  occ. eigenvalues --   -0.73076  -0.68635  -0.65006  -0.62965  -0.60654
  Beta  occ. eigenvalues --   -0.58123  -0.54341  -0.51562  -0.49207  -0.45686
  Beta  occ. eigenvalues --   -0.41867  -0.40706  -0.37697  -0.36861  -0.35709
  Beta  occ. eigenvalues --   -0.34591  -0.33387  -0.32774  -0.32114  -0.31980
  Beta  occ. eigenvalues --   -0.30865  -0.30233  -0.29175  -0.28585  -0.27846
  Beta  occ. eigenvalues --   -0.27146  -0.25293  -0.24479  -0.23974  -0.23358
  Beta  occ. eigenvalues --   -0.22566  -0.21982  -0.18793  -0.15431  -0.13913
  Beta  occ. eigenvalues --   -0.13102
  Beta virt. eigenvalues --    0.06562   0.07395   0.07719   0.07952   0.09166
  Beta virt. eigenvalues --    0.09410   0.09575   0.09645   0.10204   0.11190
  Beta virt. eigenvalues --    0.11720   0.11820   0.12451   0.12556   0.12995

 Mulliken charges and spin densities:
               1          2
     1  C    2.050973  -2.701899
     2  C   -2.778146   2.164852
     3  C    0.442241   0.055636
     4  C    0.476711   0.256102
     5  C    0.382876  -0.438440
     6  C   -0.464015  -0.015986
     7  C   -0.010294  -0.163617
     8  C    0.080861  -0.535847
     9  C   -1.364500   0.093553
    10  O   -0.042288   0.017952
    11  C    0.058841  -0.402368
    12  C    1.947346  -2.285817
    13  N   -0.338093   0.066709
    14  H   -0.062666   0.203238
    15  H   -0.737594   0.891157
    16  H   -0.159545   0.306390
    17  H    0.072457   0.120223
    18  H   -0.149281   0.291134
    19  H    0.153769   0.031753
    20  H   -0.251283   0.418540
    21  H    0.032446   0.112828
    22  H    0.111722  -0.006231
    23  H   -0.338015   0.515713
    24  H    0.129269   0.041797
    25  H   -0.063731   0.205840
    26  H    0.039021   0.125815
    27  H   -0.018594   0.143591
    28  H    0.040544   0.126160
    29  H    0.056892   0.072773
    30  H   -0.245321   0.412580
    31  H    0.191301   0.036676
    32  H   -0.068274   0.230578
    33  H   -0.163773   0.387733
    34  H   -0.011859   0.220881
 Sum of Mulliken charges =  -1.00000   1.00000

 Dipole moment (field-independent basis, Debye):
    X=              5.1024    Y=             -2.1529    Z=             -0.2147  Tot=              5.5422
 Quadrupole moment (field-independent basis, Debye-Ang):
   XX=           -159.6957   YY=           -124.4018   ZZ=           -118.5986
   XY=              0.5066   XZ=              3.1138   YZ=             -2.7097

 Summary of Natural Population Analysis:

                                       Natural Population
                Natural  -----------------------------------------------
    Atom  No    Charge         Core      Valence    Rydberg      Total
 -----------------------------------------------------------------------
      C    1   -0.29147      0.99965     2.28600    0.00582     3.29147
      C    2   -0.02618      0.99956     2.01365    0.01297     3.02618
      C    3    0.01079      0.99941     1.97752    0.01228     2.98921
      C    4   -0.02551      0.99939     2.01446    0.01165     3.02551
      C    5   -0.20333      0.99958     2.19405    0.00969     3.20333
      C    6   -0.18540      0.99963     2.17780    0.00797     3.18540
      C    7   -0.19246      0.99963     2.18459    0.00824     3.19246
      C    8   -0.19827      0.99961     2.18889    0.00978     3.19827
      C    9    0.05858      0.99948     1.92691    0.01503     2.94142
      O   10   -0.30651      0.99989     3.29728    0.00934     4.30651
      C   11   -0.10107      0.99960     2.09290    0.00857     3.10107
      C   12   -0.30704      0.99962     2.30096    0.00645     3.30704
      N   13   -0.41769      0.99977     2.90740    0.01052     3.91769
      H   14    0.10018      0.00000     0.39843    0.00140     0.39982
      H   15    0.10090      0.00000     0.39737    0.00173     0.39910
      H   16    0.09739      0.00000     0.40092    0.00170     0.40261
      H   17    0.09204      0.00000     0.40551    0.00246     0.40796
      H   18    0.10537      0.00000     0.39308    0.00155     0.39463
      H   19    0.10218      0.00000     0.39618    0.00164     0.39782
      H   20    0.09813      0.00000     0.40077    0.00110     0.40187
      H   21    0.09235      0.00000     0.40629    0.00137     0.40765
      H   22    0.09184      0.00000     0.40666    0.00151     0.40816
      H   23    0.09788      0.00000     0.40106    0.00106     0.40212
      H   24    0.10265      0.00000     0.39625    0.00110     0.39735
      H   25    0.09677      0.00000     0.40199    0.00124     0.40323
      H   26    0.09460      0.00000     0.40341    0.00199     0.40540
      H   27    0.07493      0.00000     0.42356    0.00151     0.42507
      H   28    0.08874      0.00000     0.40972    0.00154     0.41126
      H   29    0.08632      0.00000     0.41270    0.00098     0.41368
      H   30    0.10599      0.00000     0.39289    0.00112     0.39401
      H   31    0.10921      0.00000     0.38932    0.00147     0.39079
      H   32    0.10192      0.00000     0.39683    0.00125     0.39808
      H   33    0.17546      0.00000     0.32162    0.00292     0.32454
      H   34    0.17070      0.00000     0.32700    0.00230     0.32930
 =======================================================================
   * Total *   -0.00000     12.99481    37.84394    0.16125    51.00000

 Normal termination of Gaussian 16 at Mon Dec 14 13:46:09 2020.
