 Gaussian 16, Revision A.03,

 -----------------------------------------------------------
 # opt freq B3LYP/6-31G(d) empiricaldispersion=gd3bj scf=xqc
 -----------------------------------------------------------

 ------------------------------
 CID_51083292_JID_4062_neutraal
 ------------------------------
 Symbolic Z-matrix:
 Charge =  0 Multiplicity = 1

 SCF Done:  E(RB3LYP) =  -1046.60308106     A.U. after   15 cycles
 SCF Done:  E(RB3LYP) =  -1046.62858031     A.U. after   14 cycles
 SCF Done:  E(RB3LYP) =  -1046.63138556     A.U. after   15 cycles
 SCF Done:  E(RB3LYP) =  -1046.63239797     A.U. after   14 cycles
 SCF Done:  E(RB3LYP) =  -1046.63339306     A.U. after   13 cycles
 SCF Done:  E(RB3LYP) =  -1046.63341505     A.U. after   12 cycles
 SCF Done:  E(RB3LYP) =  -1046.63404345     A.U. after   13 cycles
 SCF Done:  E(RB3LYP) =  -1046.63438623     A.U. after   12 cycles
 SCF Done:  E(RB3LYP) =  -1046.63486202     A.U. after   13 cycles
 SCF Done:  E(RB3LYP) =  -1046.63446989     A.U. after   16 cycles
 SCF Done:  E(RB3LYP) =  -1046.63999031     A.U. after   10 cycles
 SCF Done:  E(RB3LYP) =  -1046.63999173     A.U. after    8 cycles
 SCF Done:  E(RB3LYP) =  -1046.63999209     A.U. after    8 cycles
 SCF Done:  E(RB3LYP) =  -1046.63999223     A.U. after    8 cycles
 SCF Done:  E(RB3LYP) =  -1046.63999223     A.U. after    7 cycles
 Optimization completed.
    -- Stationary point found.
 Normal termination of Gaussian 16 at Thu Dec 10 09:25:41 2020.

 --------------------------------------------------------------------
 #N Geom=AllCheck Guess=TCheck SCRF=Check GenChk RB3LYP/6-31G(d) Freq
 --------------------------------------------------------------------

 Structure from the checkpoint file:  "JID_4062.chk"
 ------------------------------
 CID_51083292_JID_4062_neutraal
 ------------------------------
 Charge =  0 Multiplicity = 1

 SCF Done:  E(RB3LYP) =  -1046.63999223     A.U. after    1 cycles

  Exact polarizability: 129.635  10.398 114.796  -1.252   0.562 100.799
 Approx polarizability: 166.264  20.712 190.771   5.266  -0.036 165.453

                      1                      2                      3
                      A                      A                      A
 Frequencies --     37.7872                40.9878                57.8621
 Red. masses --      7.9587                 5.7849                 5.0698
 Frc consts  --      0.0067                 0.0057                 0.0100
 IR Inten    --      4.9923                 5.0422                 5.2710

                      4                      5                      6
                      A                      A                      A
 Frequencies --     76.1679                83.5839               148.9613
 Red. masses --      5.9425                 3.8017                 3.4269
 Frc consts  --      0.0203                 0.0156                 0.0448
 IR Inten    --      0.5981                 7.4146                 6.8579

                      7                      8                      9
                      A                      A                      A
 Frequencies --    165.4209               170.2810               189.5187
 Red. masses --      3.1094                 1.2489                 1.7924
 Frc consts  --      0.0501                 0.0213                 0.0379
 IR Inten    --      0.5874                 4.4050                 2.6596

                     10                     11                     12
                      A                      A                      A
 Frequencies --    203.4457               215.9549               244.8240
 Red. masses --      3.3032                 2.3321                 3.1767
 Frc consts  --      0.0806                 0.0641                 0.1122
 IR Inten    --      0.3804                 6.5359                 0.9975

                     13                     14                     15
                      A                      A                      A
 Frequencies --    251.6292               267.8316               287.1399
 Red. masses --      1.0753                 2.8105                 3.3089
 Frc consts  --      0.0401                 0.1188                 0.1607
 IR Inten    --      1.2448                 1.7684                 2.7886

                     16                     17                     18
                      A                      A                      A
 Frequencies --    345.2285               367.1339               381.5777
 Red. masses --      3.9943                 4.7259                 2.9096
 Frc consts  --      0.2805                 0.3753                 0.2496
 IR Inten    --      3.2049                15.6154                 0.4967

                     19                     20                     21
                      A                      A                      A
 Frequencies --    395.1944               421.3527               429.4330
 Red. masses --      4.4025                 4.8646                 3.7286
 Frc consts  --      0.4051                 0.5088                 0.4051
 IR Inten    --     14.0078                19.0334                 7.8294

                     22                     23                     24
                      A                      A                      A
 Frequencies --    470.0889               517.9214               586.3095
 Red. masses --      4.3629                 5.2073                 3.8356
 Frc consts  --      0.5681                 0.8230                 0.7769
 IR Inten    --     18.2975                20.4795                 9.7878

                     25                     26                     27
                      A                      A                      A
 Frequencies --    633.3641               646.4312               723.5155
 Red. masses --      4.0853                 4.1577                 6.0430
 Frc consts  --      0.9656                 1.0236                 1.8638
 IR Inten    --      9.0591                10.2906                18.0963

                     28                     29                     30
                      A                      A                      A
 Frequencies --    777.2387               812.9412               833.7906
 Red. masses --      3.1695                 4.0533                 2.4141
 Frc consts  --      1.1281                 1.5782                 0.9888
 IR Inten    --      8.9017                45.1119                 3.6594

                     31                     32                     33
                      A                      A                      A
 Frequencies --    877.1891               991.3143               997.8309
 Red. masses --      2.9064                 1.4470                 2.2789
 Frc consts  --      1.3176                 0.8378                 1.3368
 IR Inten    --      3.7550                18.5754                 4.0820

                     34                     35                     36
                      A                      A                      A
 Frequencies --   1003.9344              1008.1482              1037.2174
 Red. masses --      1.4431                 2.5120                 1.7723
 Frc consts  --      0.8570                 1.5042                 1.1234
 IR Inten    --     28.7336                 4.9834                 3.3111

                     37                     38                     39
                      A                      A                      A
 Frequencies --   1070.6992              1097.1024              1109.3130
 Red. masses --      2.0562                 3.4918                 1.6637
 Frc consts  --      1.3888                 2.4762                 1.2063
 IR Inten    --      3.0754                78.3329                27.0488

                     40                     41                     42
                      A                      A                      A
 Frequencies --   1112.5958              1157.9983              1161.3928
 Red. masses --      2.1108                 1.3838                 1.8402
 Frc consts  --      1.5394                 1.0933                 1.4625
 IR Inten    --     99.8391                 0.4458                46.5644

                     43                     44                     45
                      A                      A                      A
 Frequencies --   1216.9761              1261.9529              1277.9173
 Red. masses --      1.5187                 1.2674                 1.5183
 Frc consts  --      1.3252                 1.1892                 1.4608
 IR Inten    --     42.6311                11.0797                 8.6227

                     46                     47                     48
                      A                      A                      A
 Frequencies --   1304.9974              1310.5759              1345.9416
 Red. masses --     10.0064                 2.5896                 1.4722
 Frc consts  --     10.0403                 2.6207                 1.5713
 IR Inten    --    152.9607                87.0578                 6.3889

                     49                     50                     51
                      A                      A                      A
 Frequencies --   1374.7142              1376.2455              1403.2524
 Red. masses --      1.2126                 1.3952                 1.3058
 Frc consts  --      1.3502                 1.5570                 1.5150
 IR Inten    --     27.6769                23.8663                 8.8288

                     52                     53                     54
                      A                      A                      A
 Frequencies --   1433.4750              1451.3963              1474.9991
 Red. masses --      1.2332                 2.1844                 1.0584
 Frc consts  --      1.4930                 2.7111                 1.3567
 IR Inten    --      4.6202               135.3494                 7.7286

                     55                     56                     57
                      A                      A                      A
 Frequencies --   1490.9737              1494.3570              1498.4120
 Red. masses --      1.0507                 1.2045                 1.1390
 Frc consts  --      1.3762                 1.5847                 1.5067
 IR Inten    --      8.8057                 6.0864                27.9851

                     58                     59                     60
                      A                      A                      A
 Frequencies --   1515.4234              1521.5878              1533.7616
 Red. masses --      1.0875                 1.0439                 1.0452
 Frc consts  --      1.4714                 1.4240                 1.4486
 IR Inten    --     12.3270                 9.8224                 6.7011

                     61                     62                     63
                      A                      A                      A
 Frequencies --   1540.0948              1552.6143              1748.3072
 Red. masses --      1.0875                 1.0852                 9.5764
 Frc consts  --      1.5197                 1.5412                17.2461
 IR Inten    --     21.6471                40.9452               230.0436

                     64                     65                     66
                      A                      A                      A
 Frequencies --   2372.3954              3038.6249              3065.1231
 Red. masses --     12.5957                 1.0468                 1.0607
 Frc consts  --     41.7684                 5.6945                 5.8716
 IR Inten    --      5.5713                35.3073                 5.7062

                     67                     68                     69
                      A                      A                      A
 Frequencies --   3077.5065              3082.5162              3092.1552
 Red. masses --      1.0351                 1.0692                 1.0290
 Frc consts  --      5.7761                 5.9860                 5.7967
 IR Inten    --      7.3271                35.2436                 1.5104

                     70                     71                     72
                      A                      A                      A
 Frequencies --   3107.0046              3120.8977              3124.6597
 Red. masses --      1.1025                 1.0927                 1.0852
 Frc consts  --      6.2708                 6.2705                 6.2426
 IR Inten    --      4.0708                20.3191                 1.9078

                     73                     74                     75
                      A                      A                      A
 Frequencies --   3150.2359              3172.4047              3175.0974
 Red. masses --      1.1021                 1.1041                 1.1013
 Frc consts  --      6.4439                 6.5470                 6.5415
 IR Inten    --      3.7388                 3.9974                 1.1855

                     76                     77                     78
                      A                      A                      A
 Frequencies --   3180.1753              3193.6946              3206.1533
 Red. masses --      1.0968                 1.1064                 1.1082
 Frc consts  --      6.5354                 6.6491                 6.7117
 IR Inten    --      2.3752                 0.6004                 2.0293

 - Thermochemistry -
 -------------------
 Temperature   298.150 Kelvin.  Pressure   1.00000 Atm.
 Atom     1 has atomic number  6 and mass  12.00000

 Molecular mass:   218.07251 amu.
 Principal axes and moments of inertia in atomic units:
                           1         2         3
     Eigenvalues --  1536.568824639.979235049.48333
           X            0.99939   0.03291  -0.01132
           Y           -0.03318   0.99913  -0.02507
           Z            0.01049   0.02543   0.99962
 This molecule is an asymmetric top.
 Rotational symmetry number  1.
 Warning -- assumption of classical behavior for rotation
           may cause significant error
 Rotational temperatures (Kelvin)      0.05637     0.01867     0.01715
 Rotational constants (GHZ):           1.17453     0.38895     0.35741
 Zero-point vibrational energy     596304.2 (Joules/Mol)
                                  142.52012 (Kcal/Mol)
 Warning -- explicit consideration of  24 degrees of freedom as
           vibrations may cause significant error
 Vibrational temperatures:     54.37    58.97    83.25   109.59   120.26
          (Kelvin)            214.32   238.00   245.00   272.68   292.71
                              310.71   352.25   362.04   385.35   413.13
                              496.71   528.22   549.01   568.60   606.23
                              617.86   676.35   745.17   843.57   911.27
                              930.07  1040.98  1118.27  1169.64  1199.64
                             1262.08  1426.28  1435.66  1444.44  1450.50
                             1492.32  1540.50  1578.49  1596.05  1600.78
                             1666.10  1670.99  1750.96  1815.67  1838.64
                             1877.60  1885.63  1936.51  1977.91  1980.11
                             2018.97  2062.45  2088.24  2122.19  2145.18
                             2150.05  2155.88  2180.36  2189.23  2206.74
                             2215.85  2233.87  2515.42  3413.35  4371.90
                             4410.03  4427.85  4435.05  4448.92  4470.29
                             4490.28  4495.69  4532.49  4564.38  4568.26
                             4575.56  4595.01  4612.94

 Zero-point correction=                           0.227120 (Hartree/Particle)
 Thermal correction to Energy=                    0.243140
 Thermal correction to Enthalpy=                  0.244084
 Thermal correction to Gibbs Free Energy=         0.183139
 Sum of electronic and zero-point Energies=          -1046.412872
 Sum of electronic and thermal Energies=             -1046.396853
 Sum of electronic and thermal Enthalpies=           -1046.395908
 Sum of electronic and thermal Free Energies=        -1046.456853

                     E (Thermal)             CV                S
                      KCal/Mol        Cal/Mol-Kelvin    Cal/Mol-Kelvin
 Total                  152.572             57.196            128.268
 Electronic               0.000              0.000              0.000
 Translational            0.889              2.981             42.042
 Rotational               0.889              2.981             31.954
 Vibrational            150.795             51.235             54.272
 Vibration     1          0.594              1.982              5.372
 Vibration     2          0.594              1.981              5.211
 Vibration     3          0.596              1.974              4.529
 Vibration     4          0.599              1.965              3.987
 Vibration     5          0.600              1.960              3.805
 Vibration     6          0.618              1.904              2.685
 Vibration     7          0.624              1.885              2.487
 Vibration     8          0.625              1.879              2.432
 Vibration     9          0.633              1.854              2.233
 Vibration    10          0.639              1.835              2.102
 Vibration    11          0.645              1.817              1.993
 Vibration    12          0.660              1.771              1.768
 Vibration    13          0.664              1.760              1.719
 Vibration    14          0.673              1.732              1.610
 Vibration    15          0.684              1.698              1.491
 Vibration    16          0.724              1.585              1.188
 Vibration    17          0.740              1.540              1.092
 Vibration    18          0.751              1.509              1.033
 Vibration    19          0.762              1.480              0.980
 Vibration    20          0.784              1.424              0.887
 Vibration    21          0.791              1.406              0.861
 Vibration    22          0.827              1.316              0.737
 Vibration    23          0.873              1.210              0.615
 Vibration    24          0.943              1.061              0.474

 Optimization completed.
    -- Stationary point found.
 Normal termination of Gaussian 16 at Thu Dec 10 09:33:38 2020.

 ----------------------------------------------------------------------
 # B3LYP/6-311++G(d,p) empiricaldispersion=gd3bj scf=xqc pop=npa geom=c
 heck
 ----------------------------------------------------------------------

 --------------------------------------
 CID_51083292_JID_4062_Energie_neutraal
 --------------------------------------
 Structure from the checkpoint file:  "JID_4062.chk"
 Charge =  0 Multiplicity = 1

 SCF Done:  E(RB3LYP) =  -1046.85690479     A.U. after   15 cycles
 Normal termination of Gaussian 16 at Thu Dec 10 09:36:54 2020.

 ----------------------------------------------------------------------
 # B3LYP/6-311++G(d,p) empiricaldispersion=gd3bj scf=xqc pop=npa geom=c
 heck
 ----------------------------------------------------------------------

 ------------------------------------
 CID_51083292_JID_4062_Energie_kation
 ------------------------------------
 Structure from the checkpoint file:  "JID_4062.chk"
 Charge =  1 Multiplicity = 2

 SCF Done:  E(UB3LYP) =  -1046.51594911     A.U. after   27 cycles
 Normal termination of Gaussian 16 at Thu Dec 10 09:45:07 2020.
 Gaussian 16:  ES64L-G16RevA.03 25-Dec-2016

 ----------------------------------------------------------------------
 # B3LYP/6-311++G(d,p) empiricaldispersion=gd3bj scf=xqc pop=npa geom=c
 heck
 ----------------------------------------------------------------------

 -----------------------------------
 CID_51083292_JID_4062_Energie_anion
 -----------------------------------
 Structure from the checkpoint file:  "JID_4062.chk"
 Charge = -1 Multiplicity = 2

                         Standard orientation:
 ---------------------------------------------------------------------
 Center     Atomic      Atomic             Coordinates (Angstroms)
 Number     Number       Type             X           Y           Z
 ---------------------------------------------------------------------
      1          6           0        0.820918    2.106944    0.462563
      2          6           0        0.697789    0.585083    0.507454
      3          6           0       -0.365647    0.091320   -0.474719
      4          8           0       -0.444073    0.604180   -1.588912
      5          7           0       -1.218715   -0.892803   -0.053012
      6          6           0       -1.090541   -1.601507    1.217973
      7          6           0       -2.421103   -1.114796   -0.837407
      8          6           0       -3.668194   -0.500210   -0.151949
      9          6           0       -3.403447    0.870906    0.288413
     10          7           0       -3.126984    1.934422    0.661378
     11         16           0        2.294463   -0.253120    0.156662
     12          8           0        3.283533    0.258311    1.118253
     13          8           0        2.000798   -1.698150    0.090510
     14          6           0        2.753761    0.300228   -1.497557
     15          1           0        0.981064    2.451862   -0.560597
     16          1           0        1.641330    2.437187    1.104212
     17          1           0       -0.115182    2.547989    0.818776
     18          1           0        0.503549    0.258678    1.531495
     19          1           0       -1.476426   -1.018313    2.064592
     20          1           0       -1.666161   -2.528438    1.148636
     21          1           0       -0.049675   -1.875066    1.391698
     22          1           0       -2.261134   -0.652519   -1.810340
     23          1           0       -2.586600   -2.188359   -0.976024
     24          1           0       -4.519426   -0.514188   -0.841773
     25          1           0       -3.955880   -1.089429    0.726967
     26          1           0        1.900952    0.164743   -2.163448
     27          1           0        3.051740    1.348193   -1.451073
     28          1           0        3.597056   -0.326300   -1.795710
 ---------------------------------------------------------------------

 SCF Done:  E(UB3LYP) =  -1046.85246945     A.U. after   33 cycles
 SCF Done:  E(UB3LYP) =  -1046.85246945     a.u. after    1 cycles

 The electronic state is 2-A.
 Alpha  occ. eigenvalues --  -88.96052 -19.03195 -19.02907 -18.99553 -14.25224
 Alpha  occ. eigenvalues --  -14.20997 -10.18029 -10.13410 -10.12792 -10.11302
 Alpha  occ. eigenvalues --  -10.11101 -10.10789 -10.10451 -10.09123  -8.02586
 Alpha  occ. eigenvalues --   -5.98836  -5.98733  -5.98692  -1.02272  -0.95088
 Alpha  occ. eigenvalues --   -0.91909  -0.84866  -0.80689  -0.73468  -0.69534
 Alpha  occ. eigenvalues --   -0.68330  -0.61913  -0.60192  -0.57252  -0.51394
 Alpha  occ. eigenvalues --   -0.45737  -0.44283  -0.42598  -0.41544  -0.39392
 Alpha  occ. eigenvalues --   -0.39007  -0.38105  -0.37673  -0.35257  -0.35082
 Alpha  occ. eigenvalues --   -0.34732  -0.33524  -0.32673  -0.31883  -0.30819
 Alpha  occ. eigenvalues --   -0.30307  -0.29208  -0.28344  -0.27697  -0.26587
 Alpha  occ. eigenvalues --   -0.24939  -0.23874  -0.23185  -0.22777  -0.22146
 Alpha  occ. eigenvalues --   -0.20636  -0.17194  -0.15452   0.04357
 Alpha virt. eigenvalues --    0.06002   0.07611   0.08124   0.08480   0.09228
 Alpha virt. eigenvalues --    0.09691   0.10433   0.10827   0.11638   0.11674
 Alpha virt. eigenvalues --    0.12340   0.12737   0.12973   0.13241   0.13717

  Beta  occ. eigenvalues --  -88.96037 -19.03180 -19.02903 -18.99482 -14.25230
  Beta  occ. eigenvalues --  -14.20988 -10.17910 -10.13406 -10.12791 -10.11270
  Beta  occ. eigenvalues --  -10.11093 -10.10701 -10.10402 -10.09117  -8.02568
  Beta  occ. eigenvalues --   -5.98824  -5.98718  -5.98661  -1.02240  -0.94939
  Beta  occ. eigenvalues --   -0.91888  -0.84816  -0.80659  -0.73399  -0.69449
  Beta  occ. eigenvalues --   -0.68287  -0.61813  -0.60109  -0.57152  -0.51313
  Beta  occ. eigenvalues --   -0.45633  -0.44224  -0.42500  -0.41433  -0.39357
  Beta  occ. eigenvalues --   -0.38963  -0.38025  -0.37583  -0.35223  -0.35035
  Beta  occ. eigenvalues --   -0.34661  -0.33458  -0.32635  -0.31825  -0.30729
  Beta  occ. eigenvalues --   -0.30214  -0.29075  -0.28094  -0.27643  -0.26557
  Beta  occ. eigenvalues --   -0.24898  -0.23854  -0.23133  -0.22734  -0.22117
  Beta  occ. eigenvalues --   -0.20594  -0.17123  -0.15296
  Beta virt. eigenvalues --    0.06064   0.07700   0.08223   0.08488   0.09180
  Beta virt. eigenvalues --    0.09970   0.10255   0.10563   0.11105   0.11748
  Beta virt. eigenvalues --    0.12042   0.12627   0.12931   0.13306   0.13411

 Mulliken charges and spin densities:
               1          2
     1  C   -0.646820   0.021299
     2  C    0.176629  -0.166518
     3  C   -1.036274   0.319799
     4  O   -0.279332   0.020569
     5  N    0.117156   0.148009
     6  C    0.864094  -1.262230
     7  C    0.285809  -0.430380
     8  C    0.957582  -1.204283
     9  C    0.534958  -0.448840
    10  N   -0.375298   0.057235
    11  S    0.376204  -0.007381
    12  O   -0.170448   0.004792
    13  O   -0.164467   0.000680
    14  C   -0.599862  -0.009977
    15  H    0.202251   0.000221
    16  H    0.173918   0.000693
    17  H    0.151066   0.016601
    18  H    0.296274   0.014698
    19  H   -0.143670   0.318934
    20  H   -0.577692   0.771510
    21  H    0.246064  -0.051184
    22  H    0.204285  -0.032048
    23  H   -0.714141   0.948126
    24  H   -1.163564   1.395712
    25  H   -0.345366   0.556201
    26  H    0.248684  -0.000493
    27  H    0.171775   0.009225
    28  H    0.210182   0.009028
 Sum of Mulliken charges =  -1.00000   1.00000

 Dipole moment (field-independent basis, Debye):
    X=             11.4119    Y=              5.1437    Z=             -1.2096  Tot=             12.5758
 Quadrupole moment (field-independent basis, Debye-Ang):
   XX=           -181.0242   YY=           -138.2395   ZZ=           -117.7503
   XY=            -10.1854   XZ=            -11.1729   YZ=              1.0971

 Summary of Natural Population Analysis:

                                       Natural Population
                Natural  -----------------------------------------------
    Atom  No    Charge         Core      Valence    Rydberg      Total
 -----------------------------------------------------------------------
      C    1   -0.29397      0.99964     2.28863    0.00570     3.29397
      C    2   -0.23426      0.99953     2.21997    0.01476     3.23426
      C    3    0.35482      0.99960     1.62060    0.02498     2.64518
      O    4   -0.32629      0.99988     3.32115    0.00526     4.32629
      N    5   -0.25230      0.99964     2.73955    0.01312     3.75230
      C    6   -0.18693      0.99963     2.17894    0.00837     3.18693
      C    7   -0.07912      0.99960     2.06618    0.01334     3.07912
      C    8   -0.25704      0.99954     2.24539    0.01211     3.25704
      C    9    0.17315      0.99965     1.81138    0.01582     2.82685
      N   10   -0.19669      0.99978     2.68568    0.01123     3.69669
      S   11    1.02279      4.99927     1.88166    0.09627     6.97721
      O   12   -0.46930      0.99991     3.46372    0.00567     4.46930
      O   13   -0.46762      0.99991     3.46175    0.00596     4.46762
      C   14   -0.39709      0.99961     2.39137    0.00612     3.39709
      H   15    0.10809      0.00000     0.39097    0.00095     0.39191
      H   16    0.10573      0.00000     0.39342    0.00085     0.39427
      H   17    0.11725      0.00000     0.38176    0.00099     0.38275
      H   18    0.12232      0.00000     0.37638    0.00130     0.37768
      H   19    0.09268      0.00000     0.40596    0.00136     0.40732
      H   20    0.11055      0.00000     0.38746    0.00200     0.38945
      H   21    0.11032      0.00000     0.38823    0.00145     0.38968
      H   22    0.11710      0.00000     0.38132    0.00158     0.38290
      H   23    0.10804      0.00000     0.38791    0.00405     0.39196
      H   24    0.13138      0.00000     0.36145    0.00717     0.36862
      H   25    0.12824      0.00000     0.36351    0.00826     0.37176
      H   26    0.12950      0.00000     0.36957    0.00093     0.37050
      H   27    0.11282      0.00000     0.38638    0.00080     0.38718
      H   28    0.11585      0.00000     0.38313    0.00102     0.38415
 =======================================================================
   * Total *   -0.00000     17.99519    39.73340    0.27141    58.00000

 Normal termination of Gaussian 16 at Thu Dec 10 09:54:56 2020.
