 Gaussian 16, Revision A.03,

 -----------------------------------------------------------
 # opt freq B3LYP/6-31G(d) empiricaldispersion=gd3bj scf=xqc
 -----------------------------------------------------------

 ------------------------------
 CID_87592371_JID_7005_neutraal
 ------------------------------
 Symbolic Z-matrix:
 Charge =  0 Multiplicity = 1

 SCF Done:  E(RB3LYP) =  -1120.28240001     A.U. after   16 cycles
 SCF Done:  E(RB3LYP) =  -1120.29104895     A.U. after   14 cycles
 SCF Done:  E(RB3LYP) =  -1120.29245693     A.U. after   13 cycles
 SCF Done:  E(RB3LYP) =  -1120.29418753     A.U. after   13 cycles
 SCF Done:  E(RB3LYP) =  -1120.29559288     A.U. after   13 cycles
 SCF Done:  E(RB3LYP) =  -1120.29746214     A.U. after   14 cycles
 SCF Done:  E(RB3LYP) =  -1120.29822164     A.U. after   13 cycles
 SCF Done:  E(RB3LYP) =  -1120.29847539     A.U. after   13 cycles
 SCF Done:  E(RB3LYP) =  -1120.29850370     A.U. after   12 cycles
 SCF Done:  E(RB3LYP) =  -1120.29861226     A.U. after   11 cycles
 SCF Done:  E(RB3LYP) =  -1120.29863521     A.U. after   10 cycles
 SCF Done:  E(RB3LYP) =  -1120.29863903     A.U. after   10 cycles
 SCF Done:  E(RB3LYP) =  -1120.29864281     A.U. after   10 cycles
 SCF Done:  E(RB3LYP) =  -1120.29864395     A.U. after    9 cycles
 SCF Done:  E(RB3LYP) =  -1120.29864428     A.U. after    8 cycles
 SCF Done:  E(RB3LYP) =  -1120.29864441     A.U. after    7 cycles
 Optimization completed.
    -- Stationary point found.
 Normal termination of Gaussian 16 at Fri Dec 11 11:50:33 2020.

 --------------------------------------------------------------------
 #N Geom=AllCheck Guess=TCheck SCRF=Check GenChk RB3LYP/6-31G(d) Freq
 --------------------------------------------------------------------

 Structure from the checkpoint file:  "JID_7005.chk"
 ------------------------------
 CID_87592371_JID_7005_neutraal
 ------------------------------
 Charge =  0 Multiplicity = 1

 SCF Done:  E(RB3LYP) =  -1120.29864441     A.U. after    1 cycles

  Exact polarizability: 282.449  -5.940 161.293  -6.496  -2.668  65.718
 Approx polarizability: 431.730 -20.126 315.212 -13.825  -4.828 105.894

                      1                      2                      3
                      A                      A                      A
 Frequencies --     42.1475                54.2496                99.3531
 Red. masses --      9.8747                 6.5847                 3.0001
 Frc consts  --      0.0103                 0.0114                 0.0174
 IR Inten    --      0.9883                 1.8785                 2.4648

                      4                      5                      6
                      A                      A                      A
 Frequencies --    106.3889               136.8090               173.1056
 Red. masses --      3.2831                 5.5846                 7.1787
 Frc consts  --      0.0219                 0.0616                 0.1267
 IR Inten    --      1.1455                 2.0250                 0.5241

                      7                      8                      9
                      A                      A                      A
 Frequencies --    181.5806               210.6308               268.6442
 Red. masses --      6.9469                 5.3958                 7.8498
 Frc consts  --      0.1350                 0.1410                 0.3338
 IR Inten    --      0.7301                 0.5544                 0.3752

                     10                     11                     12
                      A                      A                      A
 Frequencies --    286.3482               314.2700               334.5168
 Red. masses --      6.8966                 7.0320                 6.3211
 Frc consts  --      0.3332                 0.4092                 0.4168
 IR Inten    --      8.7259                 0.1363                 2.5921

                     13                     14                     15
                      A                      A                      A
 Frequencies --    399.3464               405.2405               445.6772
 Red. masses --      6.4764                 4.8582                 1.7567
 Frc consts  --      0.6085                 0.4701                 0.2056
 IR Inten    --      6.7560                 2.1332               101.9364

                     16                     17                     18
                      A                      A                      A
 Frequencies --    453.2095               496.8143               506.0060
 Red. masses --      2.0504                 4.7449                 6.1856
 Frc consts  --      0.2481                 0.6900                 0.9331
 IR Inten    --    104.6453                35.2630                 3.4765

                     19                     20                     21
                      A                      A                      A
 Frequencies --    568.7774               589.7227               594.2045
 Red. masses --      5.1564                 2.6310                 2.4951
 Frc consts  --      0.9828                 0.5391                 0.5190
 IR Inten    --      2.8630                49.0158                44.2346

                     22                     23                     24
                      A                      A                      A
 Frequencies --    596.4133               626.9098               637.0293
 Red. masses --      2.4797                 4.0181                 1.5418
 Frc consts  --      0.5197                 0.9304                 0.3686
 IR Inten    --     73.4716                15.1011                35.4037

                     25                     26                     27
                      A                      A                      A
 Frequencies --    683.6880               701.6960               707.3670
 Red. masses --      5.1229                 5.3746                 4.2781
 Frc consts  --      1.4108                 1.5592                 1.2612
 IR Inten    --     13.5118                16.6329                 1.4486

                     28                     29                     30
                      A                      A                      A
 Frequencies --    722.5557               773.3658               788.5049
 Red. masses --      1.6125                 3.9674                 2.2859
 Frc consts  --      0.4960                 1.3981                 0.8374
 IR Inten    --      1.5282                 2.2296                82.8494

                     31                     32                     33
                      A                      A                      A
 Frequencies --    808.4281               827.7446               831.5951
 Red. masses --      5.2094                 1.7092                 4.5187
 Frc consts  --      2.0059                 0.6900                 1.8411
 IR Inten    --      1.1908                 1.1972                29.9224

                     34                     35                     36
                      A                      A                      A
 Frequencies --    833.1413               875.2656               909.8124
 Red. masses --      2.2028                 4.1741                 4.4276
 Frc consts  --      0.9009                 1.8841                 2.1593
 IR Inten    --     15.8273                 6.1347                 1.3792

                     37                     38                     39
                      A                      A                      A
 Frequencies --    941.8687              1018.4994              1041.3784
 Red. masses --      1.3420                 2.4331                 1.5527
 Frc consts  --      0.7014                 1.4871                 0.9921
 IR Inten    --      0.4298                42.6939                 3.6293

                     40                     41                     42
                      A                      A                      A
 Frequencies --   1074.1228              1141.6270              1177.9875
 Red. masses --      3.6789                 1.9062                 1.5753
 Frc consts  --      2.5008                 1.4637                 1.2879
 IR Inten    --     12.0084                30.9456                 6.9896

                     43                     44                     45
                      A                      A                      A
 Frequencies --   1190.1363              1211.7176              1239.4767
 Red. masses --      1.5158                 2.2999                 4.5509
 Frc consts  --      1.2650                 1.9896                 4.1193
 IR Inten    --     24.3621                77.7912                74.1533

                     46                     47                     48
                      A                      A                      A
 Frequencies --   1263.4103              1294.0781              1337.5717
 Red. masses --      2.6011                 1.6785                 3.3039
 Frc consts  --      2.4463                 1.6561                 3.4826
 IR Inten    --    188.6012               161.0685                33.6540

                     49                     50                     51
                      A                      A                      A
 Frequencies --   1374.9304              1388.7952              1412.9096
 Red. masses --      3.7343                 1.9296                 2.7867
 Frc consts  --      4.1593                 2.1927                 3.2777
 IR Inten    --     17.8036                10.4836                11.5381

                     52                     53                     54
                      A                      A                      A
 Frequencies --   1457.2689              1485.2523              1532.9923
 Red. masses --      2.2606                 2.1495                 3.7538
 Frc consts  --      2.8285                 2.7937                 5.1976
 IR Inten    --     12.1236                 7.3576               167.4610

                     55                     56                     57
                      A                      A                      A
 Frequencies --   1573.9360              1621.5339              1629.4824
 Red. masses --      8.7295                 3.4175                 4.2034
 Frc consts  --     12.7413                 5.2943                 6.5758
 IR Inten    --     95.2644               118.0516                22.6079

                     58                     59                     60
                      A                      A                      A
 Frequencies --   1651.6311              1683.5930              1767.0348
 Red. masses --      5.4945                 2.3099                10.1077
 Frc consts  --      8.8309                 3.8576                18.5949
 IR Inten    --     96.8053               195.9891               239.3441

                     61                     62                     63
                      A                      A                      A
 Frequencies --   1823.6256              3002.3299              3194.4348
 Red. masses --      7.1166                 1.0877                 1.0889
 Frc consts  --     13.9441                 5.7769                 6.5467
 IR Inten    --    603.6599                49.1253                10.1880

                     64                     65                     66
                      A                      A                      A
 Frequencies --   3217.0002              3269.9488              3276.0662
 Red. masses --      1.0939                 1.0942                 1.0950
 Frc consts  --      6.6698                 6.8934                 6.9242
 IR Inten    --      8.7101                 0.7477                 1.3503

                     67                     68                     69
                      A                      A                      A
 Frequencies --   3533.6899              3567.1287              3676.7090
 Red. masses --      1.0496                 1.0756                 1.0996
 Frc consts  --      7.7223                 8.0641                 8.7577
 IR Inten    --     58.0828                23.7081                65.7914

 - Thermochemistry -
 -------------------
 Temperature   298.150 Kelvin.  Pressure   1.00000 Atm.
 Atom     1 has atomic number  6 and mass  12.00000

 Molecular mass:   244.03065 amu.
 Principal axes and moments of inertia in atomic units:
                           1         2         3
     Eigenvalues --  1480.882648145.668269482.03774
           X            1.00000  -0.00047  -0.00123
           Y            0.00047   1.00000  -0.00211
           Z            0.00123   0.00211   1.00000
 This molecule is an asymmetric top.
 Rotational symmetry number  1.
 Warning -- assumption of classical behavior for rotation
           may cause significant error
 Rotational temperatures (Kelvin)      0.05849     0.01063     0.00913
 Rotational constants (GHZ):           1.21869     0.22156     0.19033
 Zero-point vibrational energy     472900.1 (Joules/Mol)
                                  113.02584 (Kcal/Mol)
 Warning -- explicit consideration of  22 degrees of freedom as
           vibrations may cause significant error
 Vibrational temperatures:     60.64    78.05   142.95   153.07   196.84
          (Kelvin)            249.06   261.25   303.05   386.52   411.99
                              452.16   481.30   574.57   583.05   641.23
                              652.07   714.80   728.03   818.34   848.48
                              854.93   858.11   901.98   916.54   983.67
                             1009.58  1017.74  1039.60  1112.70  1134.48
                             1163.15  1190.94  1196.48  1198.70  1259.31
                             1309.02  1355.14  1465.39  1498.31  1545.42
                             1642.55  1694.86  1712.34  1743.39  1783.33
                             1817.77  1861.89  1924.47  1978.22  1998.17
                             2032.86  2096.68  2136.95  2205.63  2264.54
                             2333.03  2344.46  2376.33  2422.31  2542.37
                             2623.79  4319.68  4596.08  4628.55  4704.73
                             4713.53  5084.19  5132.30  5289.96

 Zero-point correction=                           0.180118 (Hartree/Particle)
 Thermal correction to Energy=                    0.194042
 Thermal correction to Enthalpy=                  0.194986
 Thermal correction to Gibbs Free Energy=         0.138755
 Sum of electronic and zero-point Energies=          -1120.118526
 Sum of electronic and thermal Energies=             -1120.104602
 Sum of electronic and thermal Enthalpies=           -1120.103658
 Sum of electronic and thermal Free Energies=        -1120.159890

                     E (Thermal)             CV                S
                      KCal/Mol        Cal/Mol-Kelvin    Cal/Mol-Kelvin
 Total                  121.763             54.197            118.349
 Electronic               0.000              0.000              0.000
 Translational            0.889              2.981             42.377
 Rotational               0.889              2.981             33.103
 Vibrational            119.986             48.236             42.869
 Vibration     1          0.595              1.980              5.156
 Vibration     2          0.596              1.976              4.656
 Vibration     3          0.604              1.950              3.467
 Vibration     4          0.605              1.944              3.334
 Vibration     5          0.614              1.917              2.848
 Vibration     6          0.627              1.876              2.401
 Vibration     7          0.630              1.865              2.312
 Vibration     8          0.643              1.825              2.038
 Vibration     9          0.673              1.731              1.605
 Vibration    10          0.684              1.699              1.495
 Vibration    11          0.702              1.646              1.340
 Vibration    12          0.716              1.607              1.238
 Vibration    13          0.765              1.472              0.965
 Vibration    14          0.770              1.459              0.944
 Vibration    15          0.805              1.370              0.809
 Vibration    16          0.812              1.354              0.786
 Vibration    17          0.852              1.257              0.666
 Vibration    18          0.861              1.237              0.643
 Vibration    19          0.925              1.099              0.507
 Vibration    20          0.947              1.054              0.468
 Vibration    21          0.952              1.044              0.460
 Vibration    22          0.954              1.039              0.456

 Optimization completed.
    -- Stationary point found.
 Normal termination of Gaussian 16 at Fri Dec 11 11:59:18 2020.

 ----------------------------------------------------------------------
 # B3LYP/6-311++G(d,p) empiricaldispersion=gd3bj scf=xqc pop=npa geom=c
 heck
 ----------------------------------------------------------------------

 --------------------------------------
 CID_87592371_JID_7005_Energie_neutraal
 --------------------------------------
 Structure from the checkpoint file:  "JID_7005.chk"
 Charge =  0 Multiplicity = 1

 SCF Done:  E(RB3LYP) =  -1120.52653362     A.U. after   17 cycles
 Normal termination of Gaussian 16 at Fri Dec 11 12:04:34 2020.

 ----------------------------------------------------------------------
 # B3LYP/6-311++G(d,p) empiricaldispersion=gd3bj scf=xqc pop=npa geom=c
 heck
 ----------------------------------------------------------------------

 ------------------------------------
 CID_87592371_JID_7005_Energie_kation
 ------------------------------------
 Structure from the checkpoint file:  "JID_7005.chk"
 Charge =  1 Multiplicity = 2

 SCF Done:  E(UB3LYP) =  -1120.23579180     A.U. after   28 cycles
 Normal termination of Gaussian 16 at Fri Dec 11 12:15:01 2020.
 Gaussian 16:  ES64L-G16RevA.03 25-Dec-2016

 ----------------------------------------------------------------------
 # B3LYP/6-311++G(d,p) empiricaldispersion=gd3bj scf=xqc pop=npa geom=c
 heck
 ----------------------------------------------------------------------

 -----------------------------------
 CID_87592371_JID_7005_Energie_anion
 -----------------------------------
 Structure from the checkpoint file:  "JID_7005.chk"
 Charge = -1 Multiplicity = 2

                         Standard orientation:
 ---------------------------------------------------------------------
 Center     Atomic      Atomic             Coordinates (Angstroms)
 Number     Number       Type             X           Y           Z
 ---------------------------------------------------------------------
      1          6           0       -0.254143   -2.038556    0.146766
      2          6           0       -1.645496   -1.868993    0.242348
      3          6           0       -2.246915   -0.614018    0.275342
      4          6           0       -1.454044    0.566905    0.205488
      5          6           0       -0.066978    0.386284    0.095166
      6          6           0        0.527995   -0.897769    0.066538
      7          6           0        1.985638   -0.701264   -0.026127
      8          6           0        3.115931   -1.457167   -0.100032
      9         16           0        4.538656   -0.435512   -0.178764
     10          6           0        3.580334    1.019330   -0.108179
     11          6           0        2.255769    0.714102   -0.031150
     12          6           0        0.961155    1.450087    0.056286
     13          8           0        0.767723    2.662185    0.101889
     14          7           0       -2.001667    1.815379    0.212117
     15          7           0       -3.660625   -0.484518    0.402384
     16          6           0       -4.486673   -0.047591   -0.607606
     17          8           0       -5.699824   -0.037375   -0.539269
     18          1           0        0.179061   -3.032858    0.129828
     19          1           0       -2.291707   -2.741207    0.291583
     20          1           0        3.229087   -2.532552   -0.115638
     21          1           0        4.054381    1.991101   -0.128134
     22          1           0       -1.349455    2.587433    0.303310
     23          1           0       -2.933407    1.925761    0.585331
     24          1           0       -4.133119   -0.920419    1.187495
     25          1           0       -3.915917    0.308338   -1.485067
 ---------------------------------------------------------------------

 SCF Done:  E(UB3LYP) =  -1120.56637162     A.U. after   25 cycles

 The electronic state is 2-A.
 Alpha  occ. eigenvalues --  -88.75687 -19.00251 -18.93526 -14.24454 -14.19888
 Alpha  occ. eigenvalues --  -10.17482 -10.09430 -10.08325 -10.07991 -10.07945
 Alpha  occ. eigenvalues --  -10.06888 -10.05563 -10.04864 -10.04796 -10.04653
 Alpha  occ. eigenvalues --  -10.03768 -10.03006  -7.84263  -5.80561  -5.80190
 Alpha  occ. eigenvalues --   -5.79863  -0.94869  -0.87328  -0.83832  -0.79637
 Alpha  occ. eigenvalues --   -0.76521  -0.71963  -0.66365  -0.61758  -0.60013
 Alpha  occ. eigenvalues --   -0.58849  -0.53283  -0.51918  -0.50218  -0.46021
 Alpha  occ. eigenvalues --   -0.43954  -0.43227  -0.41019  -0.38809  -0.38717
 Alpha  occ. eigenvalues --   -0.36586  -0.34464  -0.33386  -0.32633  -0.31030
 Alpha  occ. eigenvalues --   -0.30175  -0.29568  -0.28418  -0.27762  -0.26445
 Alpha  occ. eigenvalues --   -0.25864  -0.24785  -0.24199  -0.23224  -0.21535
 Alpha  occ. eigenvalues --   -0.20517  -0.18324  -0.17345  -0.15426  -0.12500
 Alpha  occ. eigenvalues --   -0.10076  -0.09904  -0.08987   0.01664
 Alpha virt. eigenvalues --    0.07749   0.08074   0.08746   0.09577   0.09730
 Alpha virt. eigenvalues --    0.09937   0.10421   0.11399   0.12608   0.12860
 Alpha virt. eigenvalues --    0.13268   0.13791   0.14086   0.14688   0.15050

  Beta  occ. eigenvalues --  -88.75690 -19.00241 -18.92874 -14.24463 -14.19851
  Beta  occ. eigenvalues --  -10.17474 -10.09357 -10.08287 -10.07966 -10.07684
  Beta  occ. eigenvalues --  -10.06657 -10.05529 -10.04774 -10.04599 -10.04540
  Beta  occ. eigenvalues --  -10.03761 -10.02999  -7.84265  -5.80567  -5.80196
  Beta  occ. eigenvalues --   -5.79861  -0.94850  -0.86199  -0.83746  -0.79539
  Beta  occ. eigenvalues --   -0.76318  -0.71708  -0.65981  -0.61483  -0.59811
  Beta  occ. eigenvalues --   -0.58731  -0.53177  -0.51284  -0.50105  -0.45676
  Beta  occ. eigenvalues --   -0.43795  -0.43148  -0.40852  -0.38749  -0.38588
  Beta  occ. eigenvalues --   -0.36330  -0.34202  -0.33329  -0.32569  -0.30897
  Beta  occ. eigenvalues --   -0.29986  -0.28583  -0.28178  -0.27571  -0.26180
  Beta  occ. eigenvalues --   -0.25443  -0.24479  -0.24092  -0.21400  -0.20962
  Beta  occ. eigenvalues --   -0.19914  -0.17931  -0.17321  -0.14474  -0.11314
  Beta  occ. eigenvalues --   -0.09495  -0.09328  -0.08485
  Beta virt. eigenvalues --    0.07552   0.08081   0.08451   0.08766   0.09567
  Beta virt. eigenvalues --    0.09928   0.09965   0.10433   0.11393   0.12647
  Beta virt. eigenvalues --    0.13264   0.13563   0.13965   0.14104   0.14717

 Mulliken charges and spin densities:
               1          2
     1  C   -0.334492  -0.091479
     2  C    0.127853   0.243433
     3  C   -0.638304  -0.004488
     4  C    0.030650   0.058064
     5  C    0.581070   0.015615
     6  C   -0.123194   0.162323
     7  C   -0.788617  -0.028894
     8  C    0.403521   0.013118
     9  S   -0.619144  -0.007398
    10  C    0.710330   0.200158
    11  C    0.422645   0.032695
    12  C   -1.024974   0.162917
    13  O   -0.425954   0.234925
    14  N   -0.421044   0.021649
    15  N   -0.193768  -0.006418
    16  C    0.012130   0.005025
    17  O   -0.367154   0.002867
    18  H    0.072139   0.005552
    19  H    0.122490  -0.017190
    20  H    0.239102   0.001527
    21  H    0.247139  -0.012012
    22  H    0.302663  -0.003769
    23  H    0.237124  -0.000116
    24  H    0.285520   0.010640
    25  H    0.142270   0.001256
 Sum of Mulliken charges =  -1.00000   1.00000

 Dipole moment (field-independent basis, Debye):
    X=              0.7682    Y=             -3.3331    Z=              1.1434  Tot=              3.6065
 Quadrupole moment (field-independent basis, Debye-Ang):
   XX=           -172.6142   YY=           -121.2334   ZZ=           -112.5527
   XY=             -4.2866   XZ=             -6.8535   YZ=              0.1793

 Summary of Natural Population Analysis:

                                       Natural Population
                Natural  -----------------------------------------------
    Atom  No    Charge         Core      Valence    Rydberg      Total
 -----------------------------------------------------------------------
      C    1   -0.14704      0.99955     2.13821    0.00928     3.14704
      C    2   -0.04178      0.99955     2.03421    0.00803     3.04178
      C    3    0.02644      0.99945     1.96341    0.01070     2.97356
      C    4    0.11741      0.99935     1.87210    0.01113     2.88259
      C    5   -0.06966      0.99938     2.06168    0.00860     3.06966
      C    6    0.04627      0.99937     1.94607    0.00829     2.95373
      C    7   -0.02873      0.99947     2.01976    0.00950     3.02873
      C    8   -0.20072      0.99947     2.19121    0.01004     3.20072
      S    9    0.16329      4.99950     2.81239    0.02482     7.83671
      C   10   -0.12707      0.99947     2.11706    0.01053     3.12707
      C   11   -0.06620      0.99943     2.05623    0.01054     3.06620
      C   12    0.29498      0.99955     1.68481    0.02065     2.70502
      O   13   -0.24269      0.99988     3.23620    0.00661     4.24269
      N   14   -0.39254      0.99968     2.88437    0.00849     3.89254
      N   15   -0.32214      0.99968     2.81007    0.01239     3.82214
      C   16    0.27230      0.99975     1.70469    0.02326     2.72770
      O   17   -0.32099      0.99988     3.31368    0.00743     4.32099
      H   18    0.09471      0.00000     0.40366    0.00163     0.40529
      H   19    0.09049      0.00000     0.40848    0.00103     0.40951
      H   20    0.10361      0.00000     0.39535    0.00105     0.39639
      H   21    0.10625      0.00000     0.39259    0.00116     0.39375
      H   22    0.20941      0.00000     0.28860    0.00199     0.29059
      H   23    0.18428      0.00000     0.31431    0.00142     0.31572
      H   24    0.19179      0.00000     0.30635    0.00186     0.30821
      H   25    0.05835      0.00000     0.44000    0.00166     0.44165
 =======================================================================
   * Total *    0.00003     20.99240    41.79550    0.21208    62.99997

 Normal termination of Gaussian 16 at Fri Dec 11 12:22:25 2020.
