 Gaussian 16, Revision A.03,

 -----------------------------------------------------------
 # opt freq B3LYP/6-31G(d) empiricaldispersion=gd3bj scf=xqc
 -----------------------------------------------------------

 -------------------------------
 CID_151622372_JID_1450_neutraal
 -------------------------------
 Symbolic Z-matrix:
 Charge =  0 Multiplicity = 1

 SCF Done:  E(RB3LYP) =  -478.104092204     A.U. after   15 cycles
 SCF Done:  E(RB3LYP) =  -478.105142622     A.U. after   14 cycles
 SCF Done:  E(RB3LYP) =  -478.107173553     A.U. after   14 cycles
 SCF Done:  E(RB3LYP) =  -478.107582007     A.U. after   12 cycles
 SCF Done:  E(RB3LYP) =  -478.107698417     A.U. after   13 cycles
 SCF Done:  E(RB3LYP) =  -478.107815437     A.U. after   12 cycles
 SCF Done:  E(RB3LYP) =  -478.107861794     A.U. after   11 cycles
 SCF Done:  E(RB3LYP) =  -478.107873746     A.U. after   11 cycles
 SCF Done:  E(RB3LYP) =  -478.107880348     A.U. after   10 cycles
 SCF Done:  E(RB3LYP) =  -478.107883044     A.U. after    8 cycles
 SCF Done:  E(RB3LYP) =  -478.107885193     A.U. after    9 cycles
 SCF Done:  E(RB3LYP) =  -478.107886299     A.U. after    9 cycles
 SCF Done:  E(RB3LYP) =  -478.107886982     A.U. after    9 cycles
 SCF Done:  E(RB3LYP) =  -478.107887086     A.U. after    7 cycles
 Optimization completed.
    -- Stationary point found.

 1\1\GINC-NODE116\FOpt\RB3LYP\6-31G(d)\C8H15N3\VSC10255\08-Dec-2020\0\\
 # opt freq B3LYP/6-31G(d) empiricaldispersion=gd3bj scf=xqc\\CID_15162
 2372_JID_1450_neutraal\\0,1\C,1.0601443752,-0.2674766763,0.0517023754\
 C,0.4056819414,-0.4134223323,1.4346772019\C,0.9562103024,0.5322431123,
 2.4795004947\C,0.1477305644,1.4180941036,3.0791813463\C,0.4848818677,2
 .3906302463,4.1798316623\C,-0.2257472186,3.7356634095,3.9669988897\C,0
 .0886742759,1.8071226505,5.5533633571\N,0.8987535308,0.6309229231,5.93
 20749204\N,0.5461848678,-0.4585241541,5.4720082252\N,0.3306098518,-1.5

 Normal termination of Gaussian 16 at Tue Dec  8 20:05:42 2020.

 --------------------------------------------------------------------
 #N Geom=AllCheck Guess=TCheck SCRF=Check GenChk RB3LYP/6-31G(d) Freq
 --------------------------------------------------------------------

 Structure from the checkpoint file:  "JID_1450.chk"
 -------------------------------
 CID_151622372_JID_1450_neutraal
 -------------------------------
 Charge =  0 Multiplicity = 1

 SCF Done:  E(RB3LYP) =  -478.107887086     A.U. after    1 cycles

  Exact polarizability: 119.846 -19.853 104.246  -1.498   1.535  86.252
 Approx polarizability: 174.855 -51.234 163.360 -14.265  14.109 140.183

                      1                      2                      3
                      A                      A                      A
 Frequencies --     42.5389                53.8727                67.9206
 Red. masses --      3.2430                 3.4861                 3.8732
 Frc consts  --      0.0035                 0.0060                 0.0105
 IR Inten    --      0.4679                 0.4884                 0.1202

                      4                      5                      6
                      A                      A                      A
 Frequencies --     78.4517               115.2920               143.6800
 Red. masses --      2.5565                 2.4977                 1.6503
 Frc consts  --      0.0093                 0.0196                 0.0201
 IR Inten    --      0.7806                 0.4093                 0.2896

                      7                      8                      9
                      A                      A                      A
 Frequencies --    189.1933               204.9896               232.0171
 Red. masses --      2.2177                 1.5437                 1.1823
 Frc consts  --      0.0468                 0.0382                 0.0375
 IR Inten    --      0.0620                 0.2945                 0.8655

                     10                     11                     12
                      A                      A                      A
 Frequencies --    249.0266               269.8097               287.3043
 Red. masses --      2.5741                 2.1182                 1.9604
 Frc consts  --      0.0941                 0.0909                 0.0953
 IR Inten    --      4.0182                 1.7788                 0.0295

                     13                     14                     15
                      A                      A                      A
 Frequencies --    342.7404               402.2313               452.8352
 Red. masses --      4.0813                 2.5068                 2.6213
 Frc consts  --      0.2825                 0.2390                 0.3167
 IR Inten    --      1.4741                 0.4568                 0.7896

                     16                     17                     18
                      A                      A                      A
 Frequencies --    478.3156               507.7295               565.1339
 Red. masses --      3.2386                 2.5082                 3.2440
 Frc consts  --      0.4365                 0.3810                 0.6104
 IR Inten    --      2.1307                 1.3248                20.0121

                     19                     20                     21
                      A                      A                      A
 Frequencies --    570.1321               675.9431               798.4355
 Red. masses --      5.7509                 5.5139                 1.1702
 Frc consts  --      1.1014                 1.4843                 0.4395
 IR Inten    --      5.6495                 9.7061                 1.8174

                     22                     23                     24
                      A                      A                      A
 Frequencies --    803.5340               864.4660               885.3469
 Red. masses --      2.8465                 2.0957                 1.4835
 Frc consts  --      1.0829                 0.9227                 0.6851
 IR Inten    --      0.3846                 3.3659                17.3492

                     25                     26                     27
                      A                      A                      A
 Frequencies --    926.2084               941.3936               966.5864
 Red. masses --      2.6617                 1.9085                 2.1074
 Frc consts  --      1.3453                 0.9965                 1.1600
 IR Inten    --      7.6706                 3.5741                10.8451

                     28                     29                     30
                      A                      A                      A
 Frequencies --    992.3166              1025.7955              1057.1202
 Red. masses --      1.6752                 1.7228                 1.4673
 Frc consts  --      0.9719                 1.0681                 0.9661
 IR Inten    --      2.7488                 1.7772                 0.4824

                     31                     32                     33
                      A                      A                      A
 Frequencies --   1088.0385              1112.8461              1126.2026
 Red. masses --      2.7345                 1.8254                 1.8210
 Frc consts  --      1.9073                 1.3319                 1.3608
 IR Inten    --      0.5330                 7.0117                 1.1492

                     34                     35                     36
                      A                      A                      A
 Frequencies --   1141.0165              1181.6896              1231.0847
 Red. masses --      1.7424                 1.9736                 1.6358
 Frc consts  --      1.3365                 1.6237                 1.4607
 IR Inten    --      3.0548                 1.3515                 1.7416

                     37                     38                     39
                      A                      A                      A
 Frequencies --   1269.4353              1301.3321              1321.6117
 Red. masses --      1.5887                 1.1686                 1.6766
 Frc consts  --      1.5084                 1.1660                 1.7254
 IR Inten    --      1.8731                 0.4507                49.6827

                     40                     41                     42
                      A                      A                      A
 Frequencies --   1344.5456              1371.5504              1375.2574
 Red. masses --      1.7841                 1.4162                 1.6952
 Frc consts  --      1.9003                 1.5696                 1.8891
 IR Inten    --     25.0229                20.1506                29.3964

                     43                     44                     45
                      A                      A                      A
 Frequencies --   1391.4107              1425.0292              1435.8411
 Red. masses --      1.4739                 1.3613                 1.2342
 Frc consts  --      1.6812                 1.6287                 1.4992
 IR Inten    --      6.7967                 1.0083                 0.7682

                     46                     47                     48
                      A                      A                      A
 Frequencies --   1439.5924              1449.1003              1506.8610
 Red. masses --      1.2312                 1.3259                 1.0620
 Frc consts  --      1.5034                 1.6404                 1.4207
 IR Inten    --      1.5494                 8.5363                 2.3320

                     49                     50                     51
                      A                      A                      A
 Frequencies --   1515.3988              1517.2838              1524.8969
 Red. masses --      1.0597                 1.0796                 1.0576
 Frc consts  --      1.4337                 1.4644                 1.4489
 IR Inten    --      7.9058                 4.1581                12.8838

                     52                     53                     54
                      A                      A                      A
 Frequencies --   1528.0262              1531.2111              1533.0965
 Red. masses --      1.0518                 1.0554                 1.0475
 Frc consts  --      1.4469                 1.4580                 1.4505
 IR Inten    --      4.8296                 2.5054                 7.2602

                     55                     56                     57
                      A                      A                      A
 Frequencies --   1539.5845              1749.2786              2257.5616
 Red. masses --      1.0633                 6.8452                13.6355
 Frc consts  --      1.4850                12.3412                40.9448
 IR Inten    --      1.6787                 5.7793               395.6023

                     58                     59                     60
                      A                      A                      A
 Frequencies --   3021.3097              3035.3933              3042.2681
 Red. masses --      1.0661                 1.0653                 1.0419
 Frc consts  --      5.7338                 5.7830                 5.6817
 IR Inten    --     20.7870                25.3999                22.2021

                     61                     62                     63
                      A                      A                      A
 Frequencies --   3044.8568              3051.8741              3074.9968
 Red. masses --      1.0382                 1.0356                 1.0834
 Frc consts  --      5.6712                 5.6828                 6.0358
 IR Inten    --     34.7427                32.5718                11.6692

                     64                     65                     66
                      A                      A                      A
 Frequencies --   3075.7385              3087.6169              3107.8025
 Red. masses --      1.0962                 1.0989                 1.1004
 Frc consts  --      6.1100                 6.1721                 6.2618
 IR Inten    --     12.7435                20.8703                12.9803

                     67                     68                     69
                      A                      A                      A
 Frequencies --   3119.0366              3119.4347              3121.9532
 Red. masses --      1.1029                 1.0969                 1.0930
 Frc consts  --      6.3217                 6.2889                 6.2765
 IR Inten    --     37.7907                20.7318                16.2890

                     70                     71                     72
                      A                      A                      A
 Frequencies --   3124.9128              3126.5260              3158.4161
 Red. masses --      1.0985                 1.1019                 1.0955
 Frc consts  --      6.3201                 6.3461                 6.4388
 IR Inten    --     76.7260                27.9236                19.1974

 - Thermochemistry -
 -------------------
 Temperature   298.150 Kelvin.  Pressure   1.00000 Atm.
 Atom     1 has atomic number  6 and mass  12.00000

 Molecular mass:   153.12660 amu.
 Principal axes and moments of inertia in atomic units:
                           1         2         3
     Eigenvalues --  1389.302232226.761413106.95418
           X            0.99803  -0.06260   0.00504
           Y            0.06267   0.99788  -0.01761
           Z           -0.00393   0.01789   0.99983
 This molecule is an asymmetric top.
 Rotational symmetry number  1.
 Warning -- assumption of classical behavior for rotation
           may cause significant error
 Rotational temperatures (Kelvin)      0.06234     0.03890     0.02788
 Rotational constants (GHZ):           1.29903     0.81048     0.58087
 Zero-point vibrational energy     596405.9 (Joules/Mol)
                                  142.54443 (Kcal/Mol)
 Warning -- explicit consideration of  19 degrees of freedom as
           vibrations may cause significant error
 Vibrational temperatures:     61.20    77.51    97.72   112.87   165.88
          (Kelvin)            206.72   272.21   294.93   333.82   358.29
                              388.20   413.37   493.13   578.72   651.53
                              688.19   730.51   813.10   820.29   972.53
                             1148.77  1156.11  1243.77  1273.82  1332.61
                             1354.46  1390.70  1427.72  1475.89  1520.96
                             1565.44  1601.14  1620.35  1641.67  1700.19
                             1771.26  1826.43  1872.33  1901.50  1934.50
                             1973.36  1978.69  2001.93  2050.30  2065.86
                             2071.25  2084.93  2168.04  2180.32  2183.03
                             2193.99  2198.49  2203.07  2205.78  2215.12
                             2516.82  3248.13  4346.99  4367.25  4377.15
                             4380.87  4390.97  4424.23  4425.30  4442.39
                             4471.43  4487.60  4488.17  4491.79  4496.05
                             4498.37  4544.26

 Zero-point correction=                           0.227159 (Hartree/Particle)
 Thermal correction to Energy=                    0.240277
 Thermal correction to Enthalpy=                  0.241221
 Thermal correction to Gibbs Free Energy=         0.186995
 Sum of electronic and zero-point Energies=           -477.880728
 Sum of electronic and thermal Energies=              -477.867610
 Sum of electronic and thermal Enthalpies=            -477.866666
 Sum of electronic and thermal Free Energies=         -477.920892

                     E (Thermal)             CV                S
                      KCal/Mol        Cal/Mol-Kelvin    Cal/Mol-Kelvin
 Total                  150.776             46.480            114.129
 Electronic               0.000              0.000              0.000
 Translational            0.889              2.981             40.988
 Rotational               0.889              2.981             30.642
 Vibrational            148.999             40.519             42.499
 Vibration     1          0.595              1.980              5.137
 Vibration     2          0.596              1.976              4.670
 Vibration     3          0.598              1.970              4.213
 Vibration     4          0.600              1.964              3.929
 Vibration     5          0.608              1.937              3.178
 Vibration     6          0.616              1.909              2.754
 Vibration     7          0.633              1.855              2.236
 Vibration     8          0.640              1.833              2.088
 Vibration     9          0.653              1.792              1.863
 Vibration    10          0.662              1.764              1.737
 Vibration    11          0.674              1.729              1.597
 Vibration    12          0.684              1.697              1.490
 Vibration    13          0.722              1.590              1.199
 Vibration    14          0.768              1.465              0.954
 Vibration    15          0.811              1.355              0.787
 Vibration    16          0.835              1.298              0.715
 Vibration    17          0.863              1.233              0.639
 Vibration    18          0.921              1.107              0.514
 Vibration    19          0.926              1.096              0.504

 Optimization completed.
    -- Stationary point found.

 1\1\GINC-NODE116\Freq\RB3LYP\6-31G(d)\C8H15N3\VSC10255\08-Dec-2020\0\\
 #N Geom=AllCheck Guess=TCheck SCRF=Check GenChk RB3LYP/6-31G(d) Freq\\
 CID_151622372_JID_1450_neutraal\\0,1\C,1.0601443752,-0.2674766763,0.05
 17023754\C,0.4056819414,-0.4134223323,1.4346772019\C,0.9562103024,0.53
 22431123,2.4795004947\C,0.1477305644,1.4180941036,3.0791813463\C,0.484
 8818677,2.3906302463,4.1798316623\C,-0.2257472186,3.7356634095,3.96699
 88897\C,0.0886742759,1.8071226505,5.5533633571\N,0.8987535308,0.630922
 9231,5.9320749204\N,0.5461848678,-0.4585241541,5.4720082252\N,0.330609

 Normal termination of Gaussian 16 at Tue Dec  8 20:11:35 2020.

 ----------------------------------------------------------------------
 # B3LYP/6-311++G(d,p) empiricaldispersion=gd3bj scf=xqc pop=npa geom=c
 heck
 ----------------------------------------------------------------------

 ---------------------------------------
 CID_151622372_JID_1450_Energie_neutraal
 ---------------------------------------
 Structure from the checkpoint file:  "JID_1450.chk"
 Charge =  0 Multiplicity = 1

 SCF Done:  E(RB3LYP) =  -478.240720901     A.U. after   15 cycles
 Normal termination of Gaussian 16 at Tue Dec  8 20:15:22 2020.

 ----------------------------------------------------------------------
 # B3LYP/6-311++G(d,p) empiricaldispersion=gd3bj scf=xqc pop=npa geom=c
 heck
 ----------------------------------------------------------------------

 -------------------------------------
 CID_151622372_JID_1450_Energie_kation
 -------------------------------------
 Structure from the checkpoint file:  "JID_1450.chk"
 Charge =  1 Multiplicity = 2

 SCF Done:  E(UB3LYP) =  -477.930549097     A.U. after   23 cycles
 Normal termination of Gaussian 16 at Tue Dec  8 20:21:42 2020.
 Gaussian 16:  ES64L-G16RevA.03 25-Dec-2016

 ------------------------------------
 CID_151622372_JID_1450_Energie_anion
 ------------------------------------
 Structure from the checkpoint file:  "JID_1450.chk"
 Charge = -1 Multiplicity = 2

                         Standard orientation:
 ---------------------------------------------------------------------
 Center     Atomic      Atomic             Coordinates (Angstroms)
 Number     Number       Type             X           Y           Z
 ---------------------------------------------------------------------
      1          6           0        3.645380    0.490815   -0.176294
      2          6           0        2.344876   -0.133760   -0.706233
      3          6           0        1.124459    0.181876    0.130412
      4          6           0        0.086551    0.835099   -0.411841
      5          6           0       -1.232729    1.182353    0.228348
      6          6           0       -1.707319    2.577933   -0.203540
      7          6           0       -2.303326    0.133400   -0.142557
      8          7           0       -2.027852   -1.197171    0.437780
      9          7           0       -1.240046   -1.920195   -0.178222
     10          7           0       -0.552265   -2.705189   -0.644558
     11          6           0        1.162911   -0.325478    1.549931
     12          1           0        3.554053    1.580904   -0.109347
     13          1           0        4.483891    0.260344   -0.842381
     14          1           0        3.901366    0.113062    0.819183
     15          1           0        2.175791    0.202463   -1.735902
     16          1           0        2.465264   -1.226629   -0.749998
     17          1           0        0.164384    1.123739   -1.462297
     18          1           0       -1.140178    1.170356    1.319474
     19          1           0       -1.839696    2.629386   -1.291551
     20          1           0       -2.663662    2.836805    0.265150
     21          1           0       -0.971713    3.338100    0.077701
     22          1           0       -3.272631    0.427910    0.268830
     23          1           0       -2.405419    0.066940   -1.234537
     24          1           0        1.394544   -1.398824    1.554423
     25          1           0        1.952403    0.169508    2.129037
     26          1           0        0.217932   -0.189613    2.077848
 ---------------------------------------------------------------------

 SCF Done:  E(UB3LYP) =  -478.229311792     A.U. after   33 cycles
 SCF Done:  E(UB3LYP) =  -478.229311792     a.u. after    1 cycles

 The electronic state is 2-A.
 Alpha  occ. eigenvalues --  -14.33873 -14.23847 -14.22773 -10.09666 -10.07046
 Alpha  occ. eigenvalues --  -10.06809 -10.06417 -10.05836 -10.05515 -10.05393
 Alpha  occ. eigenvalues --  -10.05150  -1.00421  -0.84754  -0.72173  -0.68775
 Alpha  occ. eigenvalues --   -0.62855  -0.60112  -0.57920  -0.53018  -0.47979
 Alpha  occ. eigenvalues --   -0.42348  -0.41568  -0.38920  -0.37896  -0.36590
 Alpha  occ. eigenvalues --   -0.34734  -0.32952  -0.32403  -0.31283  -0.30636
 Alpha  occ. eigenvalues --   -0.29301  -0.28444  -0.27643  -0.26599  -0.25861
 Alpha  occ. eigenvalues --   -0.25750  -0.23753  -0.23227  -0.21066  -0.17674
 Alpha  occ. eigenvalues --   -0.13950  -0.12125   0.04718
 Alpha virt. eigenvalues --    0.06781   0.07657   0.08287   0.09128   0.09483
 Alpha virt. eigenvalues --    0.09961   0.10438   0.11325   0.11693   0.12376
 Alpha virt. eigenvalues --    0.12493   0.12717   0.13189   0.13543   0.14154

  Beta  occ. eigenvalues --  -14.33684 -14.23564 -14.22820 -10.09582 -10.07036
  Beta  occ. eigenvalues --  -10.06804 -10.06413 -10.05802 -10.05478 -10.05367
  Beta  occ. eigenvalues --  -10.05132  -1.00033  -0.84553  -0.72132  -0.68722
  Beta  occ. eigenvalues --   -0.62806  -0.59953  -0.57866  -0.52948  -0.47893
  Beta  occ. eigenvalues --   -0.42268  -0.41468  -0.38347  -0.37675  -0.36454
  Beta  occ. eigenvalues --   -0.34644  -0.32777  -0.32021  -0.31065  -0.30590
  Beta  occ. eigenvalues --   -0.29133  -0.28336  -0.27595  -0.26523  -0.25818
  Beta  occ. eigenvalues --   -0.25710  -0.23692  -0.23194  -0.21015  -0.17238
  Beta  occ. eigenvalues --   -0.13869  -0.12036
  Beta virt. eigenvalues --    0.07004   0.07790   0.08605   0.08896   0.09915
  Beta virt. eigenvalues --    0.10280   0.10364   0.10882   0.11638   0.12178
  Beta virt. eigenvalues --    0.12671   0.12749   0.12950   0.13523   0.13748

 Mulliken charges and spin densities:
               1          2
     1  C    0.574703  -1.245255
     2  C   -1.341949   0.994951
     3  C    1.306050  -0.093580
     4  C   -0.018498  -0.750540
     5  C   -2.072652   2.480542
     6  C    1.025998  -1.683855
     7  C    1.077290  -1.779979
     8  N   -0.714908   0.312777
     9  N    0.624412   0.083412
    10  N   -0.163792  -0.057853
    11  C    0.463294  -1.317796
    12  H   -0.073233   0.216388
    13  H   -0.294421   0.430318
    14  H   -0.131984   0.277699
    15  H    0.002756   0.136874
    16  H    0.169789  -0.033043
    17  H    0.090147   0.085219
    18  H   -0.144156   0.333242
    19  H   -0.091690   0.226292
    20  H   -0.449796   0.595618
    21  H   -0.182700   0.324008
    22  H   -0.350686   0.550318
    23  H   -0.127053   0.285730
    24  H   -0.105579   0.273710
    25  H   -0.021836   0.153701
    26  H   -0.049508   0.201101
 Sum of Mulliken charges =  -1.00000   1.00000

 Dipole moment (field-independent basis, Debye):
    X=              1.2051    Y=             -0.8646    Z=             -1.1100  Tot=              1.8525
 Quadrupole moment (field-independent basis, Debye-Ang):
   XX=           -129.3209   YY=           -113.1388   ZZ=            -94.8492
   XY=              3.0399   XZ=              3.1499   YZ=             -0.9095

 Summary of Natural Population Analysis:

                                       Natural Population
                Natural  -----------------------------------------------
    Atom  No    Charge         Core      Valence    Rydberg      Total
 -----------------------------------------------------------------------
      C    1   -0.28119      0.99966     2.27746    0.00406     3.28119
      C    2   -0.19997      0.99959     2.19063    0.00975     3.19997
      C    3    0.00305      0.99948     1.98588    0.01159     2.99695
      C    4   -0.09954      0.99943     2.08896    0.01114     3.09954
      C    5   -0.13480      0.99958     2.12404    0.01118     3.13480
      C    6   -0.28086      0.99965     2.27509    0.00611     3.28086
      C    7   -0.08164      0.99955     2.07014    0.01195     3.08164
      N    8   -0.20207      0.99970     2.68786    0.01451     3.70207
      N    9    0.13131      0.99970     2.35329    0.01571     3.36869
      N   10   -0.02855      0.99982     2.51588    0.01286     3.52855
      C   11   -0.30599      0.99961     2.29969    0.00669     3.30599
      H   12    0.09715      0.00000     0.40152    0.00133     0.40285
      H   13    0.09686      0.00000     0.40192    0.00122     0.40314
      H   14    0.09585      0.00000     0.40287    0.00128     0.40415
      H   15    0.09650      0.00000     0.40233    0.00117     0.40350
      H   16    0.09965      0.00000     0.39901    0.00134     0.40035
      H   17    0.09180      0.00000     0.40687    0.00132     0.40820
      H   18    0.10217      0.00000     0.39557    0.00227     0.39783
      H   19    0.09583      0.00000     0.40297    0.00120     0.40417
      H   20    0.10061      0.00000     0.39811    0.00129     0.39939
      H   21    0.10232      0.00000     0.39647    0.00121     0.39768
      H   22    0.10012      0.00000     0.39759    0.00228     0.39988
      H   23    0.08783      0.00000     0.41070    0.00148     0.41217
      H   24    0.10503      0.00000     0.39379    0.00119     0.39497
      H   25    0.10158      0.00000     0.39739    0.00102     0.39842
      H   26    0.10694      0.00000     0.39168    0.00138     0.39306
 =======================================================================
   * Total *   -0.00000     10.99578    30.86771    0.13651    42.00000

 Normal termination of Gaussian 16 at Tue Dec  8 20:31:42 2020.
