 Gaussian 16, Revision A.03,

 -----------------------------------------------------------
 # opt freq B3LYP/6-31G(d) empiricaldispersion=gd3bj scf=xqc
 -----------------------------------------------------------

 ------------------------------
 CID_62452321_JID_6047_neutraal
 ------------------------------
 Symbolic Z-matrix:
 Charge =  0 Multiplicity = 1

 SCF Done:  E(RB3LYP) =  -677.370697434     A.U. after   13 cycles
 SCF Done:  E(RB3LYP) =  -677.373128488     A.U. after   12 cycles
 SCF Done:  E(RB3LYP) =  -677.371948971     A.U. after   12 cycles
 SCF Done:  E(RB3LYP) =  -677.372940620     A.U. after   11 cycles
 SCF Done:  E(RB3LYP) =  -677.373772772     A.U. after    8 cycles
 SCF Done:  E(RB3LYP) =  -677.374296748     A.U. after   11 cycles
 SCF Done:  E(RB3LYP) =  -677.374508384     A.U. after   11 cycles
 SCF Done:  E(RB3LYP) =  -677.374651116     A.U. after   11 cycles
 SCF Done:  E(RB3LYP) =  -677.374677256     A.U. after   10 cycles
 SCF Done:  E(RB3LYP) =  -677.374713895     A.U. after    9 cycles
 SCF Done:  E(RB3LYP) =  -677.374990334     A.U. after   10 cycles
 SCF Done:  E(RB3LYP) =  -677.374987488     A.U. after    9 cycles
 SCF Done:  E(RB3LYP) =  -677.374990177     A.U. after    9 cycles
 SCF Done:  E(RB3LYP) =  -677.374990336     A.U. after    7 cycles
 SCF Done:  E(RB3LYP) =  -677.374990342     A.U. after    6 cycles
 Optimization completed.
    -- Stationary point found.
 Normal termination of Gaussian 16 at Thu Dec 10 21:23:07 2020.

 --------------------------------------------------------------------
 #N Geom=AllCheck Guess=TCheck SCRF=Check GenChk RB3LYP/6-31G(d) Freq
 --------------------------------------------------------------------

 Structure from the checkpoint file:  "JID_6047.chk"
 ------------------------------
 CID_62452321_JID_6047_neutraal
 ------------------------------
 Charge =  0 Multiplicity = 1

 SCF Done:  E(RB3LYP) =  -677.374990342     A.U. after    1 cycles

  Exact polarizability: 194.895 -13.862 154.236 -17.833 -11.122 122.010
 Approx polarizability: 250.449 -20.839 231.446 -36.056 -28.413 188.225

                      1                      2                      3
                      A                      A                      A
 Frequencies --      8.2193                27.5338                31.1861
 Red. masses --      3.9478                 2.7636                 3.0486
 Frc consts  --      0.0002                 0.0012                 0.0017
 IR Inten    --      0.2776                 0.0943                 0.0508

                      4                      5                      6
                      A                      A                      A
 Frequencies --     47.6943                81.3804                98.3273
 Red. masses --      3.6045                 3.2714                 1.9937
 Frc consts  --      0.0048                 0.0128                 0.0114
 IR Inten    --      0.7526                 0.4692                 3.3561

                      7                      8                      9
                      A                      A                      A
 Frequencies --    128.9899               148.7123               168.5708
 Red. masses --      3.2539                 3.5809                 2.0834
 Frc consts  --      0.0319                 0.0467                 0.0349
 IR Inten    --      0.7761                 0.4229                 0.1998

                     10                     11                     12
                      A                      A                      A
 Frequencies --    186.6851               208.0171               215.0705
 Red. masses --      1.7370                 1.5265                 1.7990
 Frc consts  --      0.0357                 0.0389                 0.0490
 IR Inten    --      0.2240                 0.6020                 0.0633

                     13                     14                     15
                      A                      A                      A
 Frequencies --    249.8862               257.8320               274.8702
 Red. masses --      1.6837                 1.5937                 2.1576
 Frc consts  --      0.0619                 0.0624                 0.0960
 IR Inten    --      0.2800                 1.0094                 2.2929

                     16                     17                     18
                      A                      A                      A
 Frequencies --    305.0988               314.3376               332.1117
 Red. masses --      2.1317                 2.9671                 2.4833
 Frc consts  --      0.1169                 0.1727                 0.1614
 IR Inten    --      2.7074                 0.6607                 0.2115

                     19                     20                     21
                      A                      A                      A
 Frequencies --    385.1754               422.4201               460.1508
 Red. masses --      2.7241                 2.5156                 2.6742
 Frc consts  --      0.2381                 0.2645                 0.3336
 IR Inten    --      2.8944                 2.3127                 2.8869

                     22                     23                     24
                      A                      A                      A
 Frequencies --    474.2709               488.3855               532.5777
 Red. masses --      3.2962                 3.6463                 4.0924
 Frc consts  --      0.4368                 0.5124                 0.6839
 IR Inten    --      1.0150                 1.5819                 0.4170

                     25                     26                     27
                      A                      A                      A
 Frequencies --    561.3081               618.6283               655.4614
 Red. masses --      2.9241                 3.6660                 4.0896
 Frc consts  --      0.5428                 0.8266                 1.0352
 IR Inten    --      1.6775                 1.2033                 2.0963

                     28                     29                     30
                      A                      A                      A
 Frequencies --    715.1589               732.2683               749.1370
 Red. masses --      2.2047                 3.9879                 1.9430
 Frc consts  --      0.6644                 1.2599                 0.6425
 IR Inten    --     10.0697                 8.8957                 7.4637

                     31                     32                     33
                      A                      A                      A
 Frequencies --    784.6070               790.6028               802.5367
 Red. masses --      1.4863                 1.4253                 1.1852
 Frc consts  --      0.5391                 0.5249                 0.4498
 IR Inten    --     73.5025                20.2569                 2.3523

                     34                     35                     36
                      A                      A                      A
 Frequencies --    830.4670               872.5410               880.1349
 Red. masses --      1.8757                 2.3968                 1.3696
 Frc consts  --      0.7622                 1.0751                 0.6251
 IR Inten    --     18.6912                 2.2131                 0.3784

                     37                     38                     39
                      A                      A                      A
 Frequencies --    894.4286               924.8337               931.3368
 Red. masses --      1.4711                 2.0856                 1.5722
 Frc consts  --      0.6934                 1.0510                 0.8035
 IR Inten    --     14.8898                10.1902                 0.7120

                     40                     41                     42
                      A                      A                      A
 Frequencies --    960.4789               966.2618              1000.0071
 Red. masses --      1.2574                 1.9863                 2.0211
 Frc consts  --      0.6835                 1.0926                 1.1908
 IR Inten    --      0.2692                12.6994                 5.1481

                     43                     44                     45
                      A                      A                      A
 Frequencies --   1016.2519              1021.1396              1043.1236
 Red. masses --      2.2388                 3.3690                 1.6003
 Frc consts  --      1.3623                 2.0697                 1.0260
 IR Inten    --     20.8002                12.7398                26.7977

                     46                     47                     48
                      A                      A                      A
 Frequencies --   1074.9580              1088.4536              1097.6562
 Red. masses --      2.2981                 1.7861                 1.6542
 Frc consts  --      1.5646                 1.2467                 1.1743
 IR Inten    --     18.0993                17.3551                 2.4614

                     49                     50                     51
                      A                      A                      A
 Frequencies --   1108.1264              1125.0494              1137.0623
 Red. masses --      1.6555                 1.8380                 1.4971
 Frc consts  --      1.1978                 1.3707                 1.1404
 IR Inten    --      0.4020                14.5023                 4.2718

                     52                     53                     54
                      A                      A                      A
 Frequencies --   1157.5426              1161.6749              1181.0430
 Red. masses --      2.0425                 2.6193                 1.6200
 Frc consts  --      1.6124                 2.0826                 1.3313
 IR Inten    --     55.9331                17.3954                28.7946

                     55                     56                     57
                      A                      A                      A
 Frequencies --   1195.6988              1206.6884              1210.7532
 Red. masses --      1.7076                 1.7927                 1.3720
 Frc consts  --      1.4384                 1.5380                 1.1850
 IR Inten    --     76.4963                 7.5070                 8.8511

                     58                     59                     60
                      A                      A                      A
 Frequencies --   1251.6689              1281.0224              1287.3248
 Red. masses --      1.3626                 1.7649                 1.5017
 Frc consts  --      1.2577                 1.7064                 1.4662
 IR Inten    --     26.1648                39.8120                22.8776

                     61                     62                     63
                      A                      A                      A
 Frequencies --   1301.7587              1334.8361              1342.4669
 Red. masses --      1.9624                 1.2584                 1.2977
 Frc consts  --      1.9592                 1.3211                 1.3780
 IR Inten    --    148.4501                 2.5587                 6.0063

                     64                     65                     66
                      A                      A                      A
 Frequencies --   1358.7671              1366.9883              1373.1410
 Red. masses --      1.2353                 3.6745                 1.5893
 Frc consts  --      1.3437                 4.0455                 1.7656
 IR Inten    --      4.3097                 9.7746                17.7373

                     67                     68                     69
                      A                      A                      A
 Frequencies --   1407.6252              1409.0945              1432.0078
 Red. masses --      1.3594                 1.4621                 1.4276
 Frc consts  --      1.5870                 1.7105                 1.7249
 IR Inten    --      5.5128                 7.7507                 1.4693

                     70                     71                     72
                      A                      A                      A
 Frequencies --   1434.7392              1436.8855              1443.5851
 Red. masses --      1.2214                 1.2503                 1.2522
 Frc consts  --      1.4813                 1.5209                 1.5375
 IR Inten    --      0.6773                14.8758                 9.7540

                     73                     74                     75
                      A                      A                      A
 Frequencies --   1484.2574              1496.0530              1503.4261
 Red. masses --      1.1816                 2.9316                 1.1837
 Frc consts  --      1.5337                 3.8659                 1.5763
 IR Inten    --      3.8162                44.5264                18.4855

                     76                     77                     78
                      A                      A                      A
 Frequencies --   1514.3567              1518.4125              1519.2775
 Red. masses --      1.1023                 1.0767                 1.0658
 Frc consts  --      1.4894                 1.4626                 1.4494
 IR Inten    --      5.6761                 1.6122                 7.2513

                     79                     80                     81
                      A                      A                      A
 Frequencies --   1522.6921              1525.7336              1526.6423
 Red. masses --      1.0771                 1.0409                 1.0714
 Frc consts  --      1.4714                 1.4276                 1.4712
 IR Inten    --      2.4494                 7.0507                 2.1476

                     82                     83                     84
                      A                      A                      A
 Frequencies --   1530.5014              1538.4072              1543.1178
 Red. masses --      1.1181                 1.1817                 1.8728
 Frc consts  --      1.5431                 1.6478                 2.6275
 IR Inten    --      8.5874                15.5558                46.6445

                     85                     86                     87
                      A                      A                      A
 Frequencies --   1545.5671              1555.4756              1641.6074
 Red. masses --      1.0617                 1.0786                 5.7215
 Frc consts  --      1.4943                 1.5376                 9.0844
 IR Inten    --     26.3865                 3.0678                64.3663

                     88                     89                     90
                      A                      A                      A
 Frequencies --   1669.8272              2946.8521              2952.1229
 Red. masses --      6.1418                 1.0654                 1.0691
 Frc consts  --     10.0899                 5.4512                 5.4896
 IR Inten    --     87.2183                44.2934               113.7298

                     91                     92                     93
                      A                      A                      A
 Frequencies --   3044.9620              3045.8570              3048.6287
 Red. masses --      1.0703                 1.0598                 1.0346
 Frc consts  --      5.8468                 5.7931                 5.6653
 IR Inten    --     15.6158                29.1548                36.8877

                     94                     95                     96
                      A                      A                      A
 Frequencies --   3051.2650              3058.2510              3063.2544
 Red. masses --      1.0780                 1.0757                 1.0475
 Frc consts  --      5.9133                 5.9278                 5.7913
 IR Inten    --     19.3284                18.0326                39.4274

                     97                     98                     99
                      A                      A                      A
 Frequencies --   3065.7741              3071.4823              3080.7445
 Red. masses --      1.0690                 1.0723                 1.1038
 Frc consts  --      5.9200                 5.9600                 6.1724
 IR Inten    --     29.3991                58.2729                10.1522

                    100                    101                    102
                      A                      A                      A
 Frequencies --   3101.2031              3106.9930              3117.9374
 Red. masses --      1.0945                 1.1011                 1.1025
 Frc consts  --      6.2017                 6.2628                 6.3149
 IR Inten    --     24.2669                47.6124                34.4175

                    103                    104                    105
                      A                      A                      A
 Frequencies --   3118.5132              3123.8296              3128.5243
 Red. masses --      1.1027                 1.1035                 1.0998
 Frc consts  --      6.3184                 6.3446                 6.3422
 IR Inten    --     49.3210                34.3595                39.2283

                    106                    107                    108
                      A                      A                      A
 Frequencies --   3147.8601              3179.5409              3195.6753
 Red. masses --      1.1023                 1.0865                 1.0913
 Frc consts  --      6.4353                 6.4715                 6.5660
 IR Inten    --     30.7017                 7.4527                26.5147

                    109                    110                    111
                      A                      A                      A
 Frequencies --   3198.0613              3259.6917              3491.6348
 Red. masses --      1.0933                 1.0902                 1.0733
 Frc consts  --      6.5884                 6.8251                 7.7095
 IR Inten    --      8.3803                11.6280                 2.8731

 - Thermochemistry -
 -------------------
 Temperature   298.150 Kelvin.  Pressure   1.00000 Atm.
 Atom     1 has atomic number  6 and mass  12.00000

 Molecular mass:   221.17796 amu.
 Principal axes and moments of inertia in atomic units:
                           1         2         3
     Eigenvalues --  2158.880467210.447228189.07351
           X            0.99998  -0.00596  -0.00001
           Y            0.00596   0.99994  -0.00910
           Z            0.00007   0.00910   0.99996
 This molecule is an asymmetric top.
 Rotational symmetry number  1.
 Warning -- assumption of classical behavior for rotation
           may cause significant error
 Rotational temperatures (Kelvin)      0.04012     0.01201     0.01058
 Rotational constants (GHZ):           0.83596     0.25030     0.22038
 Zero-point vibrational energy     921356.9 (Joules/Mol)
                                  220.20959 (Kcal/Mol)
 Warning -- explicit consideration of  26 degrees of freedom as
           vibrations may cause significant error
 Vibrational temperatures:     11.83    39.61    44.87    68.62   117.09
          (Kelvin)            141.47   185.59   213.96   242.54   268.60
                              299.29   309.44   359.53   370.96   395.48
                              438.97   452.26   477.83   554.18   607.77
                              662.05   682.37   702.68   766.26   807.60
                              890.07   943.06  1028.95  1053.57  1077.84
                             1128.87  1137.50  1154.67  1194.86  1255.39
                             1266.32  1286.88  1330.63  1339.99  1381.91
                             1390.24  1438.79  1462.16  1469.19  1500.82
                             1546.62  1566.04  1579.28  1594.35  1618.70
                             1635.98  1665.45  1671.39  1699.26  1720.34
                             1736.16  1742.00  1800.87  1843.11  1852.17
                             1872.94  1920.53  1931.51  1954.96  1966.79
                             1975.64  2025.26  2027.37  2060.34  2064.27
                             2067.36  2077.00  2135.52  2152.49  2163.09
                             2178.82  2184.66  2185.90  2190.81  2195.19
                             2196.50  2202.05  2213.42  2220.20  2223.73
                             2237.98  2361.91  2402.51  4239.86  4247.45
                             4381.02  4382.31  4386.30  4390.09  4400.14
                             4407.34  4410.97  4419.18  4432.50  4461.94
                             4470.27  4486.02  4486.84  4494.49  4501.25
                             4529.07  4574.65  4597.86  4601.30  4689.97
                             5023.68

 Zero-point correction=                           0.350926 (Hartree/Particle)
 Thermal correction to Energy=                    0.368579
 Thermal correction to Enthalpy=                  0.369523
 Thermal correction to Gibbs Free Energy=         0.302501
 Sum of electronic and zero-point Energies=           -677.024064
 Sum of electronic and thermal Energies=              -677.006412
 Sum of electronic and thermal Enthalpies=            -677.005468
 Sum of electronic and thermal Free Energies=         -677.072489

                     E (Thermal)             CV                S
                      KCal/Mol        Cal/Mol-Kelvin    Cal/Mol-Kelvin
 Total                  231.287             65.714            141.059
 Electronic               0.000              0.000              0.000
 Translational            0.889              2.981             42.084
 Rotational               0.889              2.981             33.210
 Vibrational            229.509             59.752             65.764
 Vibration     1          0.593              1.987              8.401
 Vibration     2          0.593              1.984              6.000
 Vibration     3          0.594              1.983              5.753
 Vibration     4          0.595              1.978              4.911
 Vibration     5          0.600              1.962              3.857
 Vibration     6          0.604              1.950              3.487
 Vibration     7          0.611              1.924              2.961
 Vibration     8          0.618              1.904              2.689
 Vibration     9          0.625              1.881              2.451
 Vibration    10          0.632              1.858              2.260
 Vibration    11          0.641              1.828              2.061
 Vibration    12          0.645              1.818              2.000
 Vibration    13          0.663              1.763              1.731
 Vibration    14          0.667              1.750              1.676
 Vibration    15          0.677              1.720              1.565
 Vibration    16          0.696              1.664              1.389
 Vibration    17          0.702              1.646              1.339
 Vibration    18          0.714              1.611              1.250
 Vibration    19          0.754              1.502              1.019
 Vibration    20          0.785              1.421              0.884
 Vibration    21          0.818              1.338              0.766
 Vibration    22          0.831              1.307              0.726
 Vibration    23          0.844              1.276              0.688
 Vibration    24          0.888              1.178              0.581
 Vibration    25          0.917              1.115              0.521
 Vibration    26          0.978              0.993              0.419

                           ! Non-Optimized Parameters !
 Normal termination of Gaussian 16 at Thu Dec 10 21:35:39 2020.

 ----------------------------------------------------------------------
 # B3LYP/6-311++G(d,p) empiricaldispersion=gd3bj scf=xqc pop=npa geom=c
 heck
 ----------------------------------------------------------------------

 --------------------------------------
 CID_62452321_JID_6047_Energie_neutraal
 --------------------------------------
 Structure from the checkpoint file:  "JID_6047.chk"
 Charge =  0 Multiplicity = 1

 SCF Done:  E(RB3LYP) =  -677.563457164     A.U. after   14 cycles
 Normal termination of Gaussian 16 at Thu Dec 10 21:41:23 2020.

 ----------------------------------------------------------------------
 # B3LYP/6-311++G(d,p) empiricaldispersion=gd3bj scf=xqc pop=npa geom=c
 heck
 ----------------------------------------------------------------------

 ------------------------------------
 CID_62452321_JID_6047_Energie_kation
 ------------------------------------
 Structure from the checkpoint file:  "JID_6047.chk"
 Charge =  1 Multiplicity = 2

 SCF Done:  E(UB3LYP) =  -677.284172823     A.U. after   23 cycles
 Normal termination of Gaussian 16 at Thu Dec 10 21:55:26 2020.
 Gaussian 16:  ES64L-G16RevA.03 25-Dec-2016

 ----------------------------------------------------------------------
 # B3LYP/6-311++G(d,p) empiricaldispersion=gd3bj scf=xqc pop=npa geom=c
 heck
 ----------------------------------------------------------------------

 -----------------------------------
 CID_62452321_JID_6047_Energie_anion
 -----------------------------------
 Structure from the checkpoint file:  "JID_6047.chk"
 Charge = -1 Multiplicity = 2

                         Standard orientation:
 ---------------------------------------------------------------------
 Center     Atomic      Atomic             Coordinates (Angstroms)
 Number     Number       Type             X           Y           Z
 ---------------------------------------------------------------------
      1          6           0        4.814945   -1.587278    1.066294
      2          6           0        3.831848   -1.775504   -0.100323
      3          6           0        2.901640   -0.594277   -0.257448
      4          6           0        1.674535   -0.568497    0.402795
      5          6           0        0.818698    0.538566    0.312642
      6          6           0        1.203206    1.642505   -0.457280
      7          6           0        2.429033    1.612918   -1.126853
      8          6           0        3.274820    0.512598   -1.033400
      9          8           0       -0.335058    0.422137    1.036421
     10          6           0       -1.520295    1.200210    0.774264
     11          6           0       -1.432764    2.613118    1.352909
     12          6           0       -1.973287    1.154360   -0.690704
     13          6           0       -1.972591   -0.249482   -1.315706
     14          6           0       -2.730808   -1.312813   -0.518900
     15          7           0       -4.144883   -0.978234   -0.361804
     16          6           0       -4.882872   -2.000836    0.368758
     17          1           0        5.433771   -0.696196    0.913495
     18          1           0        5.479304   -2.453184    1.165877
     19          1           0        4.275182   -1.458116    2.010822
     20          1           0        4.395872   -1.924863   -1.029432
     21          1           0        3.245814   -2.688183    0.062640
     22          1           0        1.349426   -1.412958    1.003950
     23          1           0        0.573065    2.516670   -0.538740
     24          1           0        2.719888    2.469925   -1.728613
     25          1           0        4.224942    0.505445   -1.561145
     26          1           0       -2.261863    0.656171    1.369935
     27          1           0       -0.782841    3.271657    0.771158
     28          1           0       -2.431692    3.063748    1.372597
     29          1           0       -1.052938    2.573681    2.378204
     30          1           0       -2.985085    1.580806   -0.723909
     31          1           0       -1.354472    1.815564   -1.305406
     32          1           0       -2.411793   -0.180092   -2.317709
     33          1           0       -0.937281   -0.585822   -1.438637
     34          1           0       -2.679285   -2.263157   -1.066025
     35          1           0       -2.221100   -1.486683    0.447500
     36          1           0       -4.224502   -0.097369    0.142479
     37          1           0       -4.449407   -2.258215    1.353967
     38          1           0       -5.915486   -1.670833    0.522950
     39          1           0       -4.911524   -2.920970   -0.226991
 ---------------------------------------------------------------------

 SCF Done:  E(UB3LYP) =  -677.550646223     A.U. after   33 cycles
 SCF Done:  E(UB3LYP) =  -677.550646223     a.u. after    1 cycles

 The electronic state is 2-A.
 Alpha  occ. eigenvalues --  -19.05191 -14.20564 -10.14189 -10.13959 -10.09696
 Alpha  occ. eigenvalues --  -10.09557 -10.08942 -10.08532 -10.08305 -10.07974
 Alpha  occ. eigenvalues --  -10.07800 -10.07466 -10.07404 -10.07402 -10.07319
 Alpha  occ. eigenvalues --  -10.07122  -0.96703  -0.81331  -0.76699  -0.71537
 Alpha  occ. eigenvalues --   -0.69651  -0.66879  -0.64145  -0.63375  -0.60060
 Alpha  occ. eigenvalues --   -0.56069  -0.55013  -0.54106  -0.50997  -0.49598
 Alpha  occ. eigenvalues --   -0.46472  -0.41643  -0.41193  -0.39691  -0.38841
 Alpha  occ. eigenvalues --   -0.38362  -0.36208  -0.35760  -0.35552  -0.34427
 Alpha  occ. eigenvalues --   -0.33730  -0.33060  -0.32420  -0.31611  -0.30781
 Alpha  occ. eigenvalues --   -0.29981  -0.29386  -0.28632  -0.28105  -0.27637
 Alpha  occ. eigenvalues --   -0.27300  -0.26230  -0.25252  -0.24781  -0.24377
 Alpha  occ. eigenvalues --   -0.23643  -0.22203  -0.21439  -0.15804  -0.13870
 Alpha  occ. eigenvalues --   -0.13131   0.03997
 Alpha virt. eigenvalues --    0.05307   0.06283   0.06911   0.07517   0.07943
 Alpha virt. eigenvalues --    0.08021   0.08151   0.08620   0.09017   0.09268
 Alpha virt. eigenvalues --    0.09984   0.10161   0.10411   0.11170   0.11615

  Beta  occ. eigenvalues --  -19.05193 -14.20544 -10.14186 -10.13945 -10.09690
  Beta  occ. eigenvalues --  -10.09531 -10.08930 -10.08528 -10.08292 -10.07962
  Beta  occ. eigenvalues --  -10.07776 -10.07461 -10.07394 -10.07386 -10.07292
  Beta  occ. eigenvalues --  -10.07085  -0.96700  -0.81303  -0.76670  -0.71510
  Beta  occ. eigenvalues --   -0.69614  -0.66853  -0.64112  -0.63334  -0.60017
  Beta  occ. eigenvalues --   -0.56007  -0.54960  -0.54060  -0.50968  -0.49567
  Beta  occ. eigenvalues --   -0.46432  -0.41604  -0.41159  -0.39661  -0.38814
  Beta  occ. eigenvalues --   -0.38330  -0.36163  -0.35727  -0.35515  -0.34396
  Beta  occ. eigenvalues --   -0.33693  -0.33037  -0.32385  -0.31577  -0.30749
  Beta  occ. eigenvalues --   -0.29954  -0.29345  -0.28597  -0.28081  -0.27602
  Beta  occ. eigenvalues --   -0.27268  -0.26202  -0.25227  -0.24758  -0.24351
  Beta  occ. eigenvalues --   -0.23620  -0.22178  -0.21413  -0.15736  -0.13837
  Beta  occ. eigenvalues --   -0.13082
  Beta virt. eigenvalues --    0.05881   0.06373   0.06730   0.07334   0.07701
  Beta virt. eigenvalues --    0.08148   0.08331   0.08379   0.08850   0.09252
  Beta virt. eigenvalues --    0.09500   0.10349   0.10446   0.10695   0.11314

 Mulliken charges and spin densities:
               1          2
     1  C    0.649646  -1.304510
     2  C    0.421595  -0.780067
     3  C   -0.111291   0.954894
     4  C   -0.118077  -0.328074
     5  C   -0.137053  -0.130238
     6  C    1.118034  -0.893650
     7  C    0.442328  -0.883654
     8  C   -1.591622   1.313614
     9  O   -0.037644   0.014173
    10  C   -0.814013   0.668965
    11  C    0.942323  -1.461039
    12  C    0.392880  -0.482567
    13  C   -0.533664   0.013651
    14  C   -0.268865  -0.211610
    15  N   -0.125074   0.054422
    16  C    0.391607  -0.716836
    17  H   -0.012030   0.153365
    18  H   -0.264125   0.393560
    19  H   -0.000787   0.139565
    20  H   -0.250251   0.401778
    21  H   -0.123615   0.267623
    22  H    0.001048   0.185871
    23  H    0.435497  -0.337341
    24  H   -0.257443   0.440547
    25  H   -0.190138   0.340407
    26  H   -0.322633   0.553277
    27  H   -0.294077   0.439407
    28  H   -0.520903   0.690347
    29  H    0.018486   0.146471
    30  H   -0.012011   0.212759
    31  H   -0.037391   0.157266
    32  H    0.131653   0.040281
    33  H    0.188763  -0.052386
    34  H    0.011120   0.146803
    35  H    0.257174  -0.097459
    36  H    0.018068   0.182767
    37  H   -0.105603   0.219490
    38  H   -0.286267   0.420272
    39  H   -0.005644   0.127857
 Sum of Mulliken charges =  -1.00000   1.00000

 Dipole moment (field-independent basis, Debye):
    X=              1.1309    Y=             -0.2680    Z=             -2.0589  Tot=              2.3643
 Quadrupole moment (field-independent basis, Debye-Ang):
   XX=           -215.0350   YY=           -148.0370   ZZ=           -135.9384
   XY=             14.0568   XZ=              7.7663   YZ=             -2.1988

 Summary of Natural Population Analysis:

                                       Natural Population
                Natural  -----------------------------------------------
    Atom  No    Charge         Core      Valence    Rydberg      Total
 -----------------------------------------------------------------------
      C    1   -0.28034      0.99966     2.27572    0.00496     3.28034
      C    2   -0.19796      0.99961     2.18902    0.00933     3.19796
      C    3   -0.00517      0.99951     1.99537    0.01029     3.00517
      C    4   -0.12026      0.99947     2.11224    0.00856     3.12026
      C    5    0.16480      0.99937     1.82192    0.01391     2.83520
      C    6   -0.14388      0.99951     2.13632    0.00805     3.14388
      C    7   -0.09057      0.99958     2.08072    0.01027     3.09057
      C    8   -0.11837      0.99951     2.10946    0.00940     3.11837
      O    9   -0.28603      0.99986     3.27595    0.01022     4.28603
      C   10    0.06313      0.99953     1.92125    0.01609     2.93687
      C   11   -0.29387      0.99964     2.28863    0.00560     3.29387
      C   12   -0.20705      0.99960     2.19901    0.00845     3.20705
      C   13   -0.19308      0.99962     2.18526    0.00820     3.19308
      C   14   -0.08767      0.99963     2.07867    0.00937     3.08767
      N   15   -0.33932      0.99975     2.82819    0.01138     3.83932
      C   16   -0.17850      0.99967     2.16964    0.00919     3.17850
      H   17    0.09748      0.00000     0.40154    0.00098     0.40252
      H   18    0.09821      0.00000     0.40050    0.00129     0.40179
      H   19    0.09766      0.00000     0.40139    0.00095     0.40234
      H   20    0.09998      0.00000     0.39871    0.00131     0.40002
      H   21    0.09936      0.00000     0.39949    0.00115     0.40064
      H   22    0.10458      0.00000     0.39374    0.00167     0.39542
      H   23    0.10320      0.00000     0.39514    0.00166     0.39680
      H   24    0.09939      0.00000     0.39977    0.00084     0.40061
      H   25    0.10009      0.00000     0.39890    0.00101     0.39991
      H   26    0.09265      0.00000     0.40498    0.00238     0.40735
      H   27    0.09605      0.00000     0.40262    0.00133     0.40395
      H   28    0.10603      0.00000     0.39206    0.00191     0.39397
      H   29    0.10525      0.00000     0.39385    0.00090     0.39475
      H   30    0.10396      0.00000     0.39473    0.00131     0.39604
      H   31    0.10144      0.00000     0.39718    0.00138     0.39856
      H   32    0.09875      0.00000     0.40013    0.00112     0.40125
      H   33    0.10349      0.00000     0.39537    0.00114     0.39651
      H   34    0.09034      0.00000     0.40836    0.00130     0.40966
      H   35    0.08294      0.00000     0.41526    0.00180     0.41706
      H   36    0.17082      0.00000     0.32460    0.00458     0.32918
      H   37    0.07929      0.00000     0.41917    0.00154     0.42071
      H   38    0.09534      0.00000     0.40369    0.00097     0.40466
      H   39    0.08786      0.00000     0.41094    0.00121     0.41214
 =======================================================================
   * Total *    0.00000     15.99349    44.81948    0.18703    61.00000

 Normal termination of Gaussian 16 at Thu Dec 10 22:15:59 2020.
