 Gaussian 16, Revision A.03,

 -----------------------------------------------------------
 # opt freq B3LYP/6-31G(d) empiricaldispersion=gd3bj scf=xqc
 -----------------------------------------------------------

 ------------------------------
 CID_80340550_JID_5904_neutraal
 ------------------------------
 Symbolic Z-matrix:
 Charge =  0 Multiplicity = 1

 SCF Done:  E(RB3LYP) =  -977.070643500     A.U. after   14 cycles
 SCF Done:  E(RB3LYP) =  -977.073883653     A.U. after   13 cycles
 SCF Done:  E(RB3LYP) =  -977.074817958     A.U. after   12 cycles
 SCF Done:  E(RB3LYP) =  -977.074050857     A.U. after   13 cycles
 SCF Done:  E(RB3LYP) =  -977.075576858     A.U. after   11 cycles
 SCF Done:  E(RB3LYP) =  -977.075703569     A.U. after   13 cycles
 SCF Done:  E(RB3LYP) =  -977.075924699     A.U. after   12 cycles
 SCF Done:  E(RB3LYP) =  -977.075962875     A.U. after   11 cycles
 SCF Done:  E(RB3LYP) =  -977.075982419     A.U. after   11 cycles
 SCF Done:  E(RB3LYP) =  -977.075998453     A.U. after   11 cycles
 SCF Done:  E(RB3LYP) =  -977.077728248     A.U. after    9 cycles
 SCF Done:  E(RB3LYP) =  -977.077729539     A.U. after    8 cycles
 SCF Done:  E(RB3LYP) =  -977.077730552     A.U. after    8 cycles
 SCF Done:  E(RB3LYP) =  -977.077730910     A.U. after    8 cycles
 SCF Done:  E(RB3LYP) =  -977.077731057     A.U. after    8 cycles
 Optimization completed.
    -- Stationary point found.
 Normal termination of Gaussian 16 at Thu Dec 10 17:52:59 2020.

 --------------------------------------------------------------------
 #N Geom=AllCheck Guess=TCheck SCRF=Check GenChk RB3LYP/6-31G(d) Freq
 --------------------------------------------------------------------

 Structure from the checkpoint file:  "JID_5904.chk"
 ------------------------------
 CID_80340550_JID_5904_neutraal
 ------------------------------
 Charge =  0 Multiplicity = 1

 SCF Done:  E(RB3LYP) =  -977.077731057     A.U. after    1 cycles

  Exact polarizability: 209.444  -8.681 160.107 -14.285   4.584 107.038
 Approx polarizability: 274.844  -7.131 252.881 -30.006  12.078 164.202

                      1                      2                      3
                      A                      A                      A
 Frequencies --     13.9777                34.5870                42.9999
 Red. masses --      3.7141                 3.3019                 3.4037
 Frc consts  --      0.0004                 0.0023                 0.0037
 IR Inten    --      0.0371                 0.8626                 0.4597

                      4                      5                      6
                      A                      A                      A
 Frequencies --     71.0998                84.3837                96.5857
 Red. masses --      3.2829                 2.6930                 3.2288
 Frc consts  --      0.0098                 0.0113                 0.0177
 IR Inten    --      0.0254                 0.2726                 0.1538

                      7                      8                      9
                      A                      A                      A
 Frequencies --    136.0603               153.4992               195.5783
 Red. masses --      2.7265                 2.7707                 3.8330
 Frc consts  --      0.0297                 0.0385                 0.0864
 IR Inten    --      0.0905                 0.6146                 0.4606

                     10                     11                     12
                      A                      A                      A
 Frequencies --    200.3074               214.7707               254.7901
 Red. masses --      1.4480                 1.7475                 1.6008
 Frc consts  --      0.0342                 0.0475                 0.0612
 IR Inten    --      0.9966                 0.8270                 0.3464

                     13                     14                     15
                      A                      A                      A
 Frequencies --    272.9177               286.1098               288.9921
 Red. masses --      2.1736                 1.9377                 1.6022
 Frc consts  --      0.0954                 0.0935                 0.0788
 IR Inten    --      1.7375                 0.1928                 1.2181

                     16                     17                     18
                      A                      A                      A
 Frequencies --    315.6228               336.6200               391.0784
 Red. masses --      2.2809                 2.6594                 3.9600
 Frc consts  --      0.1339                 0.1775                 0.3568
 IR Inten    --      2.1993                 0.5440                 1.7083

                     19                     20                     21
                      A                      A                      A
 Frequencies --    393.9672               425.6649               442.4157
 Red. masses --      3.0613                 3.3044                 3.0226
 Frc consts  --      0.2799                 0.3528                 0.3486
 IR Inten    --      0.4628                 0.2099                 3.3811

                     22                     23                     24
                      A                      A                      A
 Frequencies --    484.4886               493.9270               571.9016
 Red. masses --      3.3430                 3.0717                 3.5669
 Frc consts  --      0.4623                 0.4415                 0.6874
 IR Inten    --      6.4207                 0.4414                 7.2678

                     25                     26                     27
                      A                      A                      A
 Frequencies --    653.5445               669.7254               734.5301
 Red. masses --      4.6259                 4.4590                 3.9389
 Frc consts  --      1.1641                 1.1784                 1.2521
 IR Inten    --      4.5690                 1.6156                 4.3911

                     28                     29                     30
                      A                      A                      A
 Frequencies --    751.7163               758.2352               781.0559
 Red. masses --      2.0496                 2.9354                 1.2124
 Frc consts  --      0.6824                 0.9943                 0.4358
 IR Inten    --     42.0626                 6.0124                12.2082

                     31                     32                     33
                      A                      A                      A
 Frequencies --    790.1205               845.5974               866.9099
 Red. masses --      1.1769                 2.5636                 1.5822
 Frc consts  --      0.4329                 1.0800                 0.7006
 IR Inten    --     33.7524                26.3586                18.7259

                     34                     35                     36
                      A                      A                      A
 Frequencies --    890.5080               900.6589               912.1385
 Red. masses --      1.3013                 2.2282                 1.7282
 Frc consts  --      0.6080                 1.0649                 0.8472
 IR Inten    --      0.4203                 5.9227                 4.2681

                     37                     38                     39
                      A                      A                      A
 Frequencies --    936.3492               988.1447               989.5362
 Red. masses --      1.3432                 1.3583                 1.9336
 Frc consts  --      0.6939                 0.7814                 1.1155
 IR Inten    --     11.2773                 0.6506                 4.7839

                     40                     41                     42
                      A                      A                      A
 Frequencies --   1009.9808              1026.8166              1056.8938
 Red. masses --      7.0240                 1.6861                 2.0370
 Frc consts  --      4.2214                 1.0474                 1.3406
 IR Inten    --      3.5023                 7.1860                 4.2475

                     43                     44                     45
                      A                      A                      A
 Frequencies --   1070.6906              1085.8745              1090.3743
 Red. masses --      1.3692                 1.8546                 2.1592
 Frc consts  --      0.9248                 1.2884                 1.5125
 IR Inten    --      2.4068                 6.0354                 5.1386

                     46                     47                     48
                      A                      A                      A
 Frequencies --   1098.6926              1127.6870              1151.8795
 Red. masses --      2.0355                 1.5966                 1.8610
 Frc consts  --      1.4477                 1.1963                 1.4548
 IR Inten    --      2.1040                 2.8678                10.7250

                     49                     50                     51
                      A                      A                      A
 Frequencies --   1165.7660              1170.6150              1202.3438
 Red. masses --      2.3156                 2.0883                 2.3674
 Frc consts  --      1.8541                 1.6861                 2.0164
 IR Inten    --     13.5909                91.9737                12.3509

                     52                     53                     54
                      A                      A                      A
 Frequencies --   1239.4638              1284.1738              1291.7771
 Red. masses --      2.3914                 1.4200                 1.2215
 Frc consts  --      2.1646                 1.3797                 1.2010
 IR Inten    --     35.2906                 1.4113                 0.7364

                     55                     56                     57
                      A                      A                      A
 Frequencies --   1304.0786              1312.9026              1321.4142
 Red. masses --      3.6559                 1.2271                 1.4052
 Frc consts  --      3.6631                 1.2463                 1.4457
 IR Inten    --     13.0700                 5.3114                25.3747

                     58                     59                     60
                      A                      A                      A
 Frequencies --   1338.7222              1357.5029              1369.2610
 Red. masses --      1.4623                 1.5456                 1.2413
 Frc consts  --      1.5441                 1.6781                 1.3712
 IR Inten    --      0.7385                56.4921                 7.8750

                     61                     62                     63
                      A                      A                      A
 Frequencies --   1394.7722              1413.4267              1423.4140
 Red. masses --      1.3663                 1.9741                 1.4925
 Frc consts  --      1.5660                 2.3237                 1.7816
 IR Inten    --      5.2542                30.9357                 7.5088

                     64                     65                     66
                      A                      A                      A
 Frequencies --   1437.4317              1440.9030              1444.7507
 Red. masses --      1.3240                 1.2260                 1.2750
 Frc consts  --      1.6118                 1.4997                 1.5680
 IR Inten    --     27.4151                 5.8274                13.1449

                     67                     68                     69
                      A                      A                      A
 Frequencies --   1504.6264              1506.1936              1512.5004
 Red. masses --      1.2298                 1.1402                 1.1158
 Frc consts  --      1.6403                 1.5241                 1.5040
 IR Inten    --     19.7867                15.9672                15.7240

                     70                     71                     72
                      A                      A                      A
 Frequencies --   1517.9503              1521.6400              1523.5279
 Red. masses --      1.6772                 1.0524                 1.0848
 Frc consts  --      2.2769                 1.4356                 1.4835
 IR Inten    --     24.8585                 9.9703                 1.7192

                     73                     74                     75
                      A                      A                      A
 Frequencies --   1529.1875              1533.5514              1538.8012
 Red. masses --      1.0581                 1.0470                 1.0672
 Frc consts  --      1.4578                 1.4508                 1.4889
 IR Inten    --     13.8439                 2.3879                 7.1154

                     76                     77                     78
                      A                      A                      A
 Frequencies --   1542.5486              1547.2701              1604.9746
 Red. masses --      1.0792                 1.0631                 7.7792
 Frc consts  --      1.5130                 1.4995                11.8066
 IR Inten    --     23.9989                 3.7328                76.1521

                     79                     80                     81
                      A                      A                      A
 Frequencies --   1643.2142              2946.0790              3009.1265
 Red. masses --      5.2048                 1.0722                 1.0826
 Frc consts  --      8.2802                 5.4828                 5.7757
 IR Inten    --    127.9170                71.6093                15.2864

                     82                     83                     84
                      A                      A                      A
 Frequencies --   3042.2232              3043.5516              3050.9668
 Red. masses --      1.0506                 1.0506                 1.0379
 Frc consts  --      5.7290                 5.7339                 5.6923
 IR Inten    --     18.2275                27.5213                13.8722

                     85                     86                     87
                      A                      A                      A
 Frequencies --   3053.4883              3061.5937              3070.2214
 Red. masses --      1.0392                 1.0853                 1.0605
 Frc consts  --      5.7085                 5.9939                 5.8900
 IR Inten    --     28.7035                50.0983                16.4346

                     88                     89                     90
                      A                      A                      A
 Frequencies --   3082.7555              3110.3472              3110.6684
 Red. masses --      1.1011                 1.1043                 1.1022
 Frc consts  --      6.1651                 6.2944                 6.2840
 IR Inten    --      9.8456                 3.2774                55.9703

                     91                     92                     93
                      A                      A                      A
 Frequencies --   3116.9969              3117.5462              3122.5576
 Red. masses --      1.1018                 1.1014                 1.0974
 Frc consts  --      6.3069                 6.3068                 6.3046
 IR Inten    --     47.2020                31.8676                27.5138

                     94                     95                     96
                      A                      A                      A
 Frequencies --   3134.4823              3144.3613              3173.7958
 Red. masses --      1.0999                 1.1038                 1.0900
 Frc consts  --      6.3670                 6.4299                 6.4692
 IR Inten    --     35.1386                27.2781                36.8807

                     97                     98                     99
                      A                      A                      A
 Frequencies --   3239.3988              3257.2288              3495.7627
 Red. masses --      1.0923                 1.0884                 1.0733
 Frc consts  --      6.7532                 6.8034                 7.7279
 IR Inten    --      3.9617                 5.0230                 0.1437

 - Thermochemistry -
 -------------------
 Temperature   298.150 Kelvin.  Pressure   1.00000 Atm.
 Atom     1 has atomic number  6 and mass  12.00000

 Molecular mass:   224.13472 amu.
 Principal axes and moments of inertia in atomic units:
                           1         2         3
     Eigenvalues --  1715.026727952.647039027.27353
           X            0.99985  -0.01537   0.00806
           Y            0.01541   0.99987  -0.00425
           Z           -0.00799   0.00438   0.99996
 This molecule is an asymmetric top.
 Rotational symmetry number  1.
 Warning -- assumption of classical behavior for rotation
           may cause significant error
 Rotational temperatures (Kelvin)      0.05050     0.01089     0.00959
 Rotational constants (GHZ):           1.05231     0.22694     0.19992
 Zero-point vibrational energy     805755.9 (Joules/Mol)
                                  192.58028 (Kcal/Mol)
 Warning -- explicit consideration of  24 degrees of freedom as
           vibrations may cause significant error
 Vibrational temperatures:     20.11    49.76    61.87   102.30   121.41
          (Kelvin)            138.97   195.76   220.85   281.39   288.20
                              309.01   366.59   392.67   411.65   415.80
                              454.11   484.32   562.67   566.83   612.44
                              636.54   697.07   710.65   822.84   940.30
                              963.59  1056.83  1081.55  1090.93  1123.77
                             1136.81  1216.63  1247.29  1281.24  1295.85
                             1312.36  1347.20  1421.72  1423.72  1453.14
                             1477.36  1520.63  1540.48  1562.33  1568.81
                             1580.77  1622.49  1657.30  1677.28  1684.25
                             1729.90  1783.31  1847.64  1858.58  1876.28
                             1888.97  1901.22  1926.12  1953.14  1970.06
                             2006.77  2033.61  2047.98  2068.14  2073.14
                             2078.67  2164.82  2167.08  2176.15  2183.99
                             2189.30  2192.02  2200.16  2206.44  2213.99
                             2219.38  2226.18  2309.20  2364.22  4238.75
                             4329.46  4377.08  4378.99  4389.66  4393.29
                             4404.95  4417.36  4435.40  4475.10  4475.56
                             4484.66  4485.45  4492.66  4509.82  4524.03
                             4566.38  4660.77  4686.43  5029.62

 Zero-point correction=                           0.306896 (Hartree/Particle)
 Thermal correction to Energy=                    0.323654
 Thermal correction to Enthalpy=                  0.324598
 Thermal correction to Gibbs Free Energy=         0.260415
 Sum of electronic and zero-point Energies=           -976.770835
 Sum of electronic and thermal Energies=              -976.754077
 Sum of electronic and thermal Enthalpies=            -976.753133
 Sum of electronic and thermal Free Energies=         -976.817316

                     E (Thermal)             CV                S
                      KCal/Mol        Cal/Mol-Kelvin    Cal/Mol-Kelvin
 Total                  203.096             61.939            135.085
 Electronic               0.000              0.000              0.000
 Translational            0.889              2.981             42.124
 Rotational               0.889              2.981             33.176
 Vibrational            201.318             55.977             59.785
 Vibration     1          0.593              1.986              7.346
 Vibration     2          0.594              1.983              5.547
 Vibration     3          0.595              1.980              5.116
 Vibration     4          0.598              1.968              4.123
 Vibration     5          0.601              1.960              3.786
 Vibration     6          0.603              1.952              3.522
 Vibration     7          0.614              1.917              2.859
 Vibration     8          0.619              1.899              2.628
 Vibration     9          0.636              1.846              2.174
 Vibration    10          0.638              1.839              2.130
 Vibration    11          0.645              1.818              2.003
 Vibration    12          0.665              1.755              1.697
 Vibration    13          0.676              1.723              1.578
 Vibration    14          0.684              1.699              1.497
 Vibration    15          0.686              1.694              1.480
 Vibration    16          0.703              1.644              1.333
 Vibration    17          0.717              1.602              1.228
 Vibration    18          0.759              1.489              0.996
 Vibration    19          0.761              1.483              0.985
 Vibration    20          0.787              1.414              0.873
 Vibration    21          0.802              1.378              0.819
 Vibration    22          0.841              1.284              0.698
 Vibration    23          0.850              1.263              0.673
 Vibration    24          0.928              1.092              0.501

 Optimization completed.
    -- Stationary point found.
 Normal termination of Gaussian 16 at Thu Dec 10 18:04:37 2020.

 ----------------------------------------------------------------------
 # B3LYP/6-311++G(d,p) empiricaldispersion=gd3bj scf=xqc pop=npa geom=c
 heck
 ----------------------------------------------------------------------

 --------------------------------------
 CID_80340550_JID_5904_Energie_neutraal
 --------------------------------------
 Structure from the checkpoint file:  "JID_5904.chk"
 Charge =  0 Multiplicity = 1

 SCF Done:  E(RB3LYP) =  -977.262688757     A.U. after   15 cycles
 Normal termination of Gaussian 16 at Thu Dec 10 18:10:55 2020.

 ----------------------------------------------------------------------
 # B3LYP/6-311++G(d,p) empiricaldispersion=gd3bj scf=xqc pop=npa geom=c
 heck
 ----------------------------------------------------------------------

 ------------------------------------
 CID_80340550_JID_5904_Energie_kation
 ------------------------------------
 Structure from the checkpoint file:  "JID_5904.chk"
 Charge =  1 Multiplicity = 2

 SCF Done:  E(UB3LYP) =  -976.981521103     A.U. after   24 cycles
 Normal termination of Gaussian 16 at Thu Dec 10 18:25:06 2020.
 Gaussian 16:  ES64L-G16RevA.03 25-Dec-2016

 ----------------------------------------------------------------------
 # B3LYP/6-311++G(d,p) empiricaldispersion=gd3bj scf=xqc pop=npa geom=c
 heck
 ----------------------------------------------------------------------

 -----------------------------------
 CID_80340550_JID_5904_Energie_anion
 -----------------------------------
 Structure from the checkpoint file:  "JID_5904.chk"
 Charge = -1 Multiplicity = 2

                         Standard orientation:
 ---------------------------------------------------------------------
 Center     Atomic      Atomic             Coordinates (Angstroms)
 Number     Number       Type             X           Y           Z
 ---------------------------------------------------------------------
      1          6           0       -5.211087    0.382745   -1.326087
      2          6           0       -5.049854    0.022312    0.153827
      3          6           0       -3.817071   -0.837996    0.442436
      4          7           0       -2.586280   -0.121058    0.121632
      5          6           0       -1.342507   -0.745118    0.583685
      6          6           0       -1.054013   -2.120931   -0.037955
      7          6           0       -0.204331    0.257691    0.409551
      8          6           0        1.074846   -0.119365   -0.000117
      9          6           0        2.074310    0.859854   -0.103934
     10          7           0        1.863168    2.152672    0.158908
     11          6           0        0.629950    2.505957    0.539834
     12          6           0       -0.426405    1.613281    0.684168
     13         16           0        3.746092    0.541130   -0.639977
     14          6           0        3.858442   -1.288778   -0.668072
     15          6           0        3.892222   -1.937938    0.714543
     16          1           0       -4.388993    1.017435   -1.676390
     17          1           0       -6.141226    0.934496   -1.498866
     18          1           0       -5.236262   -0.517707   -1.953098
     19          1           0       -4.984325    0.938616    0.752798
     20          1           0       -5.938323   -0.525159    0.494684
     21          1           0       -3.783934   -1.077593    1.513152
     22          1           0       -3.919725   -1.801217   -0.091434
     23          1           0       -2.522839    0.039939   -0.881969
     24          1           0       -1.471235   -0.892649    1.667011
     25          1           0       -0.862683   -2.032896   -1.114290
     26          1           0       -0.187410   -2.604228    0.425575
     27          1           0       -1.910278   -2.786472    0.102223
     28          1           0        1.290764   -1.150032   -0.242098
     29          1           0        0.485545    3.565943    0.741412
     30          1           0       -1.411615    1.949001    0.984253
     31          1           0        3.055263   -1.694980   -1.291689
     32          1           0        4.794199   -1.478740   -1.203759
     33          1           0        2.982893   -1.719605    1.282236
     34          1           0        3.984190   -3.027090    0.621996
     35          1           0        4.743305   -1.566721    1.292830
 ---------------------------------------------------------------------

 SCF Done:  E(UB3LYP) =  -977.254847925     A.U. after   33 cycles
 SCF Done:  E(UB3LYP) =  -977.254847925     a.u. after    1 cycles

 The electronic state is 2-A.
 Alpha  occ. eigenvalues --  -88.74956 -14.19872 -14.19703 -10.13146 -10.11157
 Alpha  occ. eigenvalues --  -10.10736 -10.09917 -10.09346 -10.08246 -10.07498
 Alpha  occ. eigenvalues --  -10.07335 -10.07266 -10.07022 -10.06504 -10.06026
 Alpha  occ. eigenvalues --   -7.83588  -5.79976  -5.79578  -5.78994  -0.84329
 Alpha  occ. eigenvalues --   -0.81474  -0.71800  -0.71469  -0.67826  -0.66233
 Alpha  occ. eigenvalues --   -0.63346  -0.60403  -0.58240  -0.54579  -0.53407
 Alpha  occ. eigenvalues --   -0.50086  -0.48710  -0.47168  -0.41354  -0.39219
 Alpha  occ. eigenvalues --   -0.39011  -0.36980  -0.36693  -0.35791  -0.34347
 Alpha  occ. eigenvalues --   -0.33498  -0.32656  -0.32137  -0.31233  -0.30887
 Alpha  occ. eigenvalues --   -0.30042  -0.29799  -0.28868  -0.27115  -0.26980
 Alpha  occ. eigenvalues --   -0.26029  -0.25103  -0.24713  -0.24571  -0.23997
 Alpha  occ. eigenvalues --   -0.21967  -0.19015  -0.17595  -0.15778  -0.13096
 Alpha  occ. eigenvalues --   -0.11895   0.04013
 Alpha virt. eigenvalues --    0.05869   0.06340   0.07243   0.07556   0.07806
 Alpha virt. eigenvalues --    0.08201   0.08947   0.09138   0.09568   0.10314
 Alpha virt. eigenvalues --    0.10506   0.10609   0.11408   0.12042   0.12343

  Beta  occ. eigenvalues --  -88.74954 -14.19851 -14.19562 -10.13139 -10.11144
  Beta  occ. eigenvalues --  -10.10738 -10.09883 -10.09320 -10.08091 -10.07468
  Beta  occ. eigenvalues --  -10.07323 -10.07237 -10.06998 -10.06515 -10.05988
  Beta  occ. eigenvalues --   -7.83586  -5.79974  -5.79577  -5.78988  -0.84140
  Beta  occ. eigenvalues --   -0.81418  -0.71763  -0.71287  -0.67752  -0.66157
  Beta  occ. eigenvalues --   -0.63282  -0.60347  -0.58166  -0.54436  -0.53332
  Beta  occ. eigenvalues --   -0.50018  -0.48638  -0.47050  -0.41303  -0.39149
  Beta  occ. eigenvalues --   -0.38942  -0.36907  -0.36662  -0.35725  -0.34283
  Beta  occ. eigenvalues --   -0.33429  -0.32612  -0.32077  -0.31188  -0.30835
  Beta  occ. eigenvalues --   -0.29779  -0.29697  -0.28807  -0.27071  -0.26900
  Beta  occ. eigenvalues --   -0.25938  -0.25060  -0.24657  -0.24515  -0.23944
  Beta  occ. eigenvalues --   -0.21924  -0.18793  -0.16990  -0.15619  -0.13053
  Beta  occ. eigenvalues --   -0.11727
  Beta virt. eigenvalues --    0.06168   0.06503   0.07406   0.07872   0.07947
  Beta virt. eigenvalues --    0.08008   0.08273   0.09213   0.09295   0.09934
  Beta virt. eigenvalues --    0.10495   0.10698   0.10882   0.11517   0.12207

 Mulliken charges and spin densities:
               1          2
     1  C    0.244364  -0.773166
     2  C   -0.177176  -0.062226
     3  C    0.177951  -0.391554
     4  N    0.110355   0.059563
     5  C   -0.257489  -0.164954
     6  C    0.887259  -1.481348
     7  C    0.556415   0.343525
     8  C   -0.372650   0.197393
     9  C   -0.781161   0.330147
    10  N    0.052085   0.058660
    11  C   -0.166422   0.054756
    12  C   -0.419047  -0.050505
    13  S   -0.183957   0.004887
    14  C   -0.270174   0.072133
    15  C    0.196869  -0.740341
    16  H    0.010159   0.125231
    17  H   -0.128860   0.271407
    18  H   -0.100509   0.240824
    19  H    0.108203   0.027418
    20  H   -0.215030   0.344511
    21  H   -0.204832   0.349701
    22  H    0.038952   0.083956
    23  H    0.209380  -0.049504
    24  H   -0.078335   0.273324
    25  H   -0.174322   0.340344
    26  H   -0.280743   0.419970
    27  H   -0.387725   0.552350
    28  H    0.782602  -0.755325
    29  H    0.152743   0.016837
    30  H    0.119304   0.050034
    31  H   -0.028407   0.217547
    32  H   -0.132238   0.356661
    33  H   -0.132220   0.274620
    34  H   -0.228628   0.346977
    35  H    0.073284   0.056146
 Sum of Mulliken charges =  -1.00000   1.00000

 Dipole moment (field-independent basis, Debye):
    X=              1.5884    Y=              2.8179    Z=             -0.3417  Tot=              3.2527
 Quadrupole moment (field-independent basis, Debye-Ang):
   XX=           -193.3956   YY=           -148.4238   ZZ=           -128.6006
   XY=             -8.1354   XZ=             -1.4247   YZ=              3.0655

 Summary of Natural Population Analysis:

                                       Natural Population
                Natural  -----------------------------------------------
    Atom  No    Charge         Core      Valence    Rydberg      Total
 -----------------------------------------------------------------------
      C    1   -0.28769      0.99967     2.28367    0.00435     3.28769
      C    2   -0.19226      0.99964     2.18384    0.00877     3.19226
      C    3   -0.08446      0.99962     2.07361    0.01123     3.08446
      N    4   -0.34173      0.99974     2.83082    0.01117     3.84173
      C    5   -0.01813      0.99957     2.00585    0.01272     3.01813
      C    6   -0.29662      0.99966     2.29063    0.00634     3.29662
      C    7    0.03478      0.99950     1.95535    0.01038     2.96522
      C    8   -0.13990      0.99943     2.13239    0.00808     3.13990
      C    9    0.03936      0.99948     1.94424    0.01693     2.96064
      N   10   -0.23453      0.99966     2.72284    0.01203     3.73453
      C   11    0.03424      0.99959     1.95156    0.01461     2.96576
      C   12   -0.13013      0.99951     2.12265    0.00797     3.13013
      S   13    0.12584      4.99953     2.85328    0.02134     7.87416
      C   14   -0.26052      0.99961     2.24922    0.01168     3.26052
      C   15   -0.29270      0.99965     2.28644    0.00661     3.29270
      H   16    0.09568      0.00000     0.40325    0.00107     0.40432
      H   17    0.09827      0.00000     0.40074    0.00100     0.40173
      H   18    0.09658      0.00000     0.40216    0.00127     0.40342
      H   19    0.09526      0.00000     0.40355    0.00119     0.40474
      H   20    0.09526      0.00000     0.40355    0.00118     0.40474
      H   21    0.09388      0.00000     0.40459    0.00153     0.40612
      H   22    0.07897      0.00000     0.41932    0.00171     0.42103
      H   23    0.17167      0.00000     0.32533    0.00299     0.32833
      H   24    0.10009      0.00000     0.39770    0.00221     0.39991
      H   25    0.09764      0.00000     0.40113    0.00123     0.40236
      H   26    0.10253      0.00000     0.39601    0.00146     0.39747
      H   27    0.10416      0.00000     0.39462    0.00122     0.39584
      H   28    0.10522      0.00000     0.39244    0.00233     0.39478
      H   29    0.08584      0.00000     0.41306    0.00110     0.41416
      H   30    0.11203      0.00000     0.38674    0.00123     0.38797
      H   31    0.10189      0.00000     0.39678    0.00133     0.39811
      H   32    0.10553      0.00000     0.39345    0.00102     0.39447
      H   33    0.10461      0.00000     0.39419    0.00120     0.39539
      H   34    0.10034      0.00000     0.39817    0.00149     0.39966
      H   35    0.09898      0.00000     0.39990    0.00112     0.40102
 =======================================================================
   * Total *   -0.00000     18.99385    41.81306    0.19309    61.00000

 Normal termination of Gaussian 16 at Thu Dec 10 18:43:55 2020.
