 Gaussian 16, Revision A.03,

 -----------------------------------------------------------
 # opt freq B3LYP/6-31G(d) empiricaldispersion=gd3bj scf=xqc
 -----------------------------------------------------------

 ------------------------------
 CID_58061799_JID_6773_neutraal
 ------------------------------
 Symbolic Z-matrix:
 Charge =  0 Multiplicity = 1

 SCF Done:  E(RB3LYP) =  -750.426271087     A.U. after   14 cycles
 SCF Done:  E(RB3LYP) =  -750.431096518     A.U. after   12 cycles
 SCF Done:  E(RB3LYP) =  -750.431429524     A.U. after   11 cycles
 SCF Done:  E(RB3LYP) =  -750.431803550     A.U. after   11 cycles
 SCF Done:  E(RB3LYP) =  -750.432073680     A.U. after   10 cycles
 SCF Done:  E(RB3LYP) =  -750.432154382     A.U. after   10 cycles
 SCF Done:  E(RB3LYP) =  -750.432189733     A.U. after   10 cycles
 SCF Done:  E(RB3LYP) =  -750.432211503     A.U. after   10 cycles
 SCF Done:  E(RB3LYP) =  -750.432230943     A.U. after    9 cycles
 SCF Done:  E(RB3LYP) =  -750.432245764     A.U. after   10 cycles
 SCF Done:  E(RB3LYP) =  -750.432256046     A.U. after    8 cycles
 SCF Done:  E(RB3LYP) =  -750.432256793     A.U. after    8 cycles
 SCF Done:  E(RB3LYP) =  -750.432257438     A.U. after    8 cycles
 SCF Done:  E(RB3LYP) =  -750.432257553     A.U. after    7 cycles
 SCF Done:  E(RB3LYP) =  -750.432257592     A.U. after    6 cycles
 Optimization completed.
    -- Stationary point found.
 Normal termination of Gaussian 16 at Fri Dec 11 00:31:39 2020.

 --------------------------------------------------------------------
 #N Geom=AllCheck Guess=TCheck SCRF=Check GenChk RB3LYP/6-31G(d) Freq
 --------------------------------------------------------------------

 Structure from the checkpoint file:  "JID_6773.chk"
 ------------------------------
 CID_58061799_JID_6773_neutraal
 ------------------------------
 Charge =  0 Multiplicity = 1

 SCF Done:  E(RB3LYP) =  -750.432257592     A.U. after    1 cycles

  Exact polarizability: 165.042  -0.115 134.602  -0.717   1.240 112.779
 Approx polarizability: 199.270  -6.149 193.916   0.965   2.422 174.018

                      1                      2                      3
                      A                      A                      A
 Frequencies --     25.8887                42.3771                62.5122
 Red. masses --      3.4628                 3.6563                 3.4537
 Frc consts  --      0.0014                 0.0039                 0.0080
 IR Inten    --      0.1050                 0.4728                 2.4939

                      4                      5                      6
                      A                      A                      A
 Frequencies --     93.5699               117.4709               128.2458
 Red. masses --      2.2271                 3.7972                 3.2108
 Frc consts  --      0.0115                 0.0309                 0.0311
 IR Inten    --      0.9246                 0.1795                 0.4439

                      7                      8                      9
                      A                      A                      A
 Frequencies --    147.5591               179.6832               222.2794
 Red. masses --      3.0480                 3.2793                 2.8473
 Frc consts  --      0.0391                 0.0624                 0.0829
 IR Inten    --      1.3609                 5.0182                 0.9051

                     10                     11                     12
                      A                      A                      A
 Frequencies --    234.2800               244.9734               248.4916
 Red. masses --      1.1874                 1.0696                 2.4538
 Frc consts  --      0.0384                 0.0378                 0.0893
 IR Inten    --      0.1663                 0.4339                12.8363

                     13                     14                     15
                      A                      A                      A
 Frequencies --    266.6848               281.4617               290.9132
 Red. masses --      1.2265                 4.5101                 3.2994
 Frc consts  --      0.0514                 0.2105                 0.1645
 IR Inten    --     77.1183                20.5491                 9.9577

                     16                     17                     18
                      A                      A                      A
 Frequencies --    364.9972               378.6263               398.6486
 Red. masses --      3.3359                 2.7607                 2.7782
 Frc consts  --      0.2618                 0.2332                 0.2601
 IR Inten    --      1.8046                12.8498                 3.7009

                     19                     20                     21
                      A                      A                      A
 Frequencies --    417.2236               429.4565               451.0360
 Red. masses --      3.4647                 3.1907                 3.0281
 Frc consts  --      0.3553                 0.3467                 0.3630
 IR Inten    --      4.9521                 4.4086                 1.3192

                     22                     23                     24
                      A                      A                      A
 Frequencies --    498.5491               560.3120               581.5639
 Red. masses --      2.6887                 3.8607                 4.5557
 Frc consts  --      0.3937                 0.7141                 0.9078
 IR Inten    --      1.1187                 7.6148                10.0697

                     25                     26                     27
                      A                      A                      A
 Frequencies --    623.6819               704.5196               709.4540
 Red. masses --      2.5007                 3.5127                 2.2015
 Frc consts  --      0.5731                 1.0272                 0.6529
 IR Inten    --      0.1094                 2.4631                 3.8507

                     28                     29                     30
                      A                      A                      A
 Frequencies --    766.6808               779.0563               809.7365
 Red. masses --     10.3951                 1.2576                 2.7101
 Frc consts  --      3.6001                 0.4497                 1.0470
 IR Inten    --     20.9198                 1.5262                 0.2302

                     31                     32                     33
                      A                      A                      A
 Frequencies --    818.7434               865.4448               887.1314
 Red. masses --      4.8162                 2.8860                 2.9088
 Frc consts  --      1.9022                 1.2736                 1.3488
 IR Inten    --      2.4976                 6.3190                13.1812

                     34                     35                     36
                      A                      A                      A
 Frequencies --    909.2186               922.0471               947.4280
 Red. masses --      2.8473                 2.7138                 1.6514
 Frc consts  --      1.3868                 1.3594                 0.8734
 IR Inten    --     16.3944                 3.8847                 0.5857

                     37                     38                     39
                      A                      A                      A
 Frequencies --    947.7082               956.3933               959.5721
 Red. masses --      1.2574                 1.3981                 2.8286
 Frc consts  --      0.6654                 0.7535                 1.5345
 IR Inten    --      2.6378                 0.2916                28.8708

                     40                     41                     42
                      A                      A                      A
 Frequencies --    993.3043               994.1478              1024.7354
 Red. masses --      1.4117                 2.1265                 2.9406
 Frc consts  --      0.8207                 1.2383                 1.8193
 IR Inten    --      6.8127                 5.2698                 3.7750

                     43                     44                     45
                      A                      A                      A
 Frequencies --   1051.5037              1070.4570              1101.7883
 Red. masses --      1.6694                 2.1028                 3.0135
 Frc consts  --      1.0875                 1.4197                 2.1554
 IR Inten    --      9.9776                21.4441                25.9455

                     46                     47                     48
                      A                      A                      A
 Frequencies --   1118.6082              1128.3038              1150.3264
 Red. masses --      2.2832                 2.8141                 2.1811
 Frc consts  --      1.6832                 2.1108                 1.7004
 IR Inten    --      7.5158                24.2414                28.8763

                     49                     50                     51
                      A                      A                      A
 Frequencies --   1172.8380              1187.8847              1197.6729
 Red. masses --      2.1367                 2.5641                 1.4099
 Frc consts  --      1.7317                 2.1317                 1.1915
 IR Inten    --      8.4216               378.6557                41.8924

                     52                     53                     54
                      A                      A                      A
 Frequencies --   1201.4592              1215.8142              1222.9167
 Red. masses --      1.4607                 1.9548                 2.0390
 Frc consts  --      1.2423                 1.7025                 1.7966
 IR Inten    --      8.5680                 9.8895                23.4960

                     55                     56                     57
                      A                      A                      A
 Frequencies --   1244.5738              1260.2855              1278.7035
 Red. masses --      1.5652                 1.5691                 1.2973
 Frc consts  --      1.4284                 1.4683                 1.2498
 IR Inten    --    226.4624                55.2362                 4.2122

                     58                     59                     60
                      A                      A                      A
 Frequencies --   1290.5124              1301.9966              1319.6584
 Red. masses --      1.4003                 1.3669                 1.3599
 Frc consts  --      1.3741                 1.3652                 1.3954
 IR Inten    --     36.5599                 3.2636                79.2644

                     61                     62                     63
                      A                      A                      A
 Frequencies --   1332.7113              1346.5569              1351.7069
 Red. masses --      1.3723                 1.3915                 1.3243
 Frc consts  --      1.4360                 1.4866                 1.4256
 IR Inten    --     16.3672                 0.4096                 9.4063

                     64                     65                     66
                      A                      A                      A
 Frequencies --   1374.2963              1388.6983              1390.7101
 Red. masses --      1.4128                 1.8714                 1.2988
 Frc consts  --      1.5721                 2.1263                 1.4800
 IR Inten    --     28.5319               159.5087                 2.7315

                     67                     68                     69
                      A                      A                      A
 Frequencies --   1401.4245              1408.0771              1418.3205
 Red. masses --      1.4718                 1.4318                 1.2510
 Frc consts  --      1.7031                 1.6726                 1.4828
 IR Inten    --     36.6440                20.5446                12.4567

                     70                     71                     72
                      A                      A                      A
 Frequencies --   1426.6635              1432.5659              1440.8240
 Red. masses --      1.3570                 1.6214                 1.2475
 Frc consts  --      1.6273                 1.9606                 1.5259
 IR Inten    --     20.7522                43.3534                20.8370

                     73                     74                     75
                      A                      A                      A
 Frequencies --   1448.4818              1456.1053              1501.3692
 Red. masses --      1.2519                 1.8855                 1.0969
 Frc consts  --      1.5476                 2.3554                 1.4568
 IR Inten    --     29.1357               162.7341                 6.8766

                     76                     77                     78
                      A                      A                      A
 Frequencies --   1509.1264              1518.9619              1520.5253
 Red. masses --      1.0468                 1.0813                 1.0517
 Frc consts  --      1.4047                 1.4699                 1.4326
 IR Inten    --      0.0448                 1.3089                22.0460

                     79                     80                     81
                      A                      A                      A
 Frequencies --   1527.0761              1531.1681              1535.4022
 Red. masses --      1.0860                 1.0491                 1.0909
 Frc consts  --      1.4922                 1.4492                 1.5153
 IR Inten    --      3.1394                 0.0299                 3.8143

                     82                     83                     84
                      A                      A                      A
 Frequencies --   1546.7532              1550.9834              1789.0498
 Red. masses --      1.1014                 1.0571                10.6711
 Frc consts  --      1.5525                 1.4983                20.1235
 IR Inten    --      1.1373                12.0658               306.9033

                     85                     86                     87
                      A                      A                      A
 Frequencies --   2915.8667              2967.9593              3025.4444
 Red. masses --      1.0803                 1.0751                 1.0832
 Frc consts  --      5.4118                 5.5798                 5.8418
 IR Inten    --     54.4439                61.0745                15.7459

                     88                     89                     90
                      A                      A                      A
 Frequencies --   3055.9858              3059.3950              3062.6612
 Red. masses --      1.0628                 1.0385                 1.0435
 Frc consts  --      5.8479                 5.7273                 5.7671
 IR Inten    --     19.4224                24.0322                12.2961

                     91                     92                     93
                      A                      A                      A
 Frequencies --   3066.2715              3077.1353              3077.6897
 Red. masses --      1.0611                 1.0622                 1.0806
 Frc consts  --      5.8780                 5.9258                 6.0306
 IR Inten    --     25.3233                65.4652                24.5853

                     94                     95                     96
                      A                      A                      A
 Frequencies --   3082.3036              3083.6458              3101.1584
 Red. masses --      1.0810                 1.0805                 1.1015
 Frc consts  --      6.0511                 6.0535                 6.2413
 IR Inten    --     40.4616                27.8826                10.0553

                     97                     98                     99
                      A                      A                      A
 Frequencies --   3105.5744              3121.5317              3121.9565
 Red. masses --      1.1034                 1.1019                 1.1041
 Frc consts  --      6.2702                 6.3258                 6.3402
 IR Inten    --     28.5821                 8.5940                57.2509

                    100                    101                    102
                      A                      A                      A
 Frequencies --   3124.5495              3171.6216              3175.5563
 Red. masses --      1.1019                 1.1001                 1.0994
 Frc consts  --      6.3383                 6.5199                 6.5323
 IR Inten    --     45.0690                 1.2749                17.6929

                    103                    104                    105
                      A                      A                      A
 Frequencies --   3177.0697              3191.6691              3741.7645
 Red. masses --      1.0960                 1.0878                 1.0653
 Frc consts  --      6.5179                 6.5290                 8.7881
 IR Inten    --     14.8086                 4.2786                 5.2496

 - Thermochemistry -
 -------------------
 Temperature   298.150 Kelvin.  Pressure   1.00000 Atm.
 Atom     1 has atomic number  6 and mass  12.00000

 Molecular mass:   227.15214 amu.
 Principal axes and moments of inertia in atomic units:
                           1         2         3
     Eigenvalues --  1848.217485689.584856822.36955
           X            0.99996   0.00881  -0.00292
           Y           -0.00880   0.99996   0.00337
           Z            0.00295  -0.00334   0.99999
 This molecule is an asymmetric top.
 Rotational symmetry number  1.
 Warning -- assumption of classical behavior for rotation
           may cause significant error
 Rotational temperatures (Kelvin)      0.04686     0.01522     0.01270
 Rotational constants (GHZ):           0.97648     0.31720     0.26453
 Zero-point vibrational energy     864035.6 (Joules/Mol)
                                  206.50947 (Kcal/Mol)
 Warning -- explicit consideration of  24 degrees of freedom as
           vibrations may cause significant error
 Vibrational temperatures:     37.25    60.97    89.94   134.63   169.01
          (Kelvin)            184.52   212.30   258.52   319.81   337.08
                              352.46   357.52   383.70   404.96   418.56
                              525.15   544.76   573.57   600.29   617.89
                              648.94   717.30   806.16   836.74   897.34
                             1013.65  1020.75  1103.08  1120.89  1165.03
                             1177.99  1245.18  1276.38  1308.16  1326.62
                             1363.14  1363.54  1376.04  1380.61  1429.14
                             1430.36  1474.37  1512.88  1540.15  1585.23
                             1609.43  1623.38  1655.06  1687.45  1709.10
                             1723.18  1728.63  1749.29  1759.50  1790.66
                             1813.27  1839.77  1856.76  1873.28  1898.69
                             1917.47  1937.40  1944.80  1977.31  1998.03
                             2000.92  2016.34  2025.91  2040.65  2052.65
                             2061.14  2073.02  2084.04  2095.01  2160.14
                             2171.30  2185.45  2187.70  2197.12  2203.01
                             2209.10  2225.43  2231.52  2574.04  4195.28
                             4270.23  4352.94  4396.88  4401.79  4406.49
                             4411.68  4427.31  4428.11  4434.75  4436.68
                             4461.88  4468.23  4491.19  4491.80  4495.53
                             4563.26  4568.92  4571.09  4592.10  5383.56

 Zero-point correction=                           0.329094 (Hartree/Particle)
 Thermal correction to Energy=                    0.345267
 Thermal correction to Enthalpy=                  0.346211
 Thermal correction to Gibbs Free Energy=         0.285048
 Sum of electronic and zero-point Energies=           -750.103164
 Sum of electronic and thermal Energies=              -750.086991
 Sum of electronic and thermal Enthalpies=            -750.086047
 Sum of electronic and thermal Free Energies=         -750.147209

                     E (Thermal)             CV                S
                      KCal/Mol        Cal/Mol-Kelvin    Cal/Mol-Kelvin
 Total                  216.658             62.031            128.727
 Electronic               0.000              0.000              0.000
 Translational            0.889              2.981             42.164
 Rotational               0.889              2.981             32.639
 Vibrational            214.881             56.069             53.924
 Vibration     1          0.593              1.985              6.122
 Vibration     2          0.595              1.980              5.145
 Vibration     3          0.597              1.972              4.376
 Vibration     4          0.603              1.954              3.584
 Vibration     5          0.608              1.935              3.142
 Vibration     6          0.611              1.925              2.972
 Vibration     7          0.617              1.905              2.703
 Vibration     8          0.629              1.867              2.332
 Vibration     9          0.648              1.807              1.940
 Vibration    10          0.654              1.788              1.846
 Vibration    11          0.660              1.771              1.766
 Vibration    12          0.662              1.765              1.741
 Vibration    13          0.672              1.734              1.618
 Vibration    14          0.681              1.708              1.525
 Vibration    15          0.687              1.691              1.469
 Vibration    16          0.738              1.544              1.101
 Vibration    17          0.749              1.516              1.045
 Vibration    18          0.765              1.473              0.968
 Vibration    19          0.780              1.433              0.901
 Vibration    20          0.791              1.406              0.860
 Vibration    21          0.810              1.359              0.793
 Vibration    22          0.854              1.253              0.662
 Vibration    23          0.916              1.117              0.523
 Vibration    24          0.938              1.071              0.482

 Optimization completed.
    -- Stationary point found.
 Normal termination of Gaussian 16 at Fri Dec 11 00:44:48 2020.

 ----------------------------------------------------------------------
 # B3LYP/6-311++G(d,p) empiricaldispersion=gd3bj scf=xqc pop=npa geom=c
 heck
 ----------------------------------------------------------------------

 --------------------------------------
 CID_58061799_JID_6773_Energie_neutraal
 --------------------------------------
 Structure from the checkpoint file:  "JID_6773.chk"
 Charge =  0 Multiplicity = 1

 SCF Done:  E(RB3LYP) =  -750.651051656     A.U. after   15 cycles
 Normal termination of Gaussian 16 at Fri Dec 11 00:50:42 2020.

 ----------------------------------------------------------------------
 # B3LYP/6-311++G(d,p) empiricaldispersion=gd3bj scf=xqc pop=npa geom=c
 heck
 ----------------------------------------------------------------------

 ------------------------------------
 CID_58061799_JID_6773_Energie_kation
 ------------------------------------
 Structure from the checkpoint file:  "JID_6773.chk"
 Charge =  1 Multiplicity = 2

 SCF Done:  E(UB3LYP) =  -750.335942292     A.U. after   30 cycles
 Normal termination of Gaussian 16 at Fri Dec 11 01:06:29 2020.
 Gaussian 16:  ES64L-G16RevA.03 25-Dec-2016

 ----------------------------------------------------------------------
 # B3LYP/6-311++G(d,p) empiricaldispersion=gd3bj scf=xqc pop=npa geom=c
 heck
 ----------------------------------------------------------------------

 -----------------------------------
 CID_58061799_JID_6773_Energie_anion
 -----------------------------------
 Structure from the checkpoint file:  "JID_6773.chk"
 Charge = -1 Multiplicity = 2

                         Standard orientation:
 ---------------------------------------------------------------------
 Center     Atomic      Atomic             Coordinates (Angstroms)
 Number     Number       Type             X           Y           Z
 ---------------------------------------------------------------------
      1          6           0       -4.107293    0.028156    1.292405
      2          6           0       -3.674686   -0.476390   -0.080800
      3          6           0       -4.073251    0.438303   -1.234711
      4          8           0       -2.254657   -0.799647   -0.113734
      5          6           0       -1.345588    0.195807    0.050619
      6          8           0       -1.638634    1.364506    0.245005
      7          7           0       -0.061337   -0.289133   -0.066430
      8          6           0        0.210096   -1.727327    0.103186
      9          6           0        1.447322   -2.180957   -0.676201
     10          6           0        2.687746   -1.341640   -0.334722
     11          6           0        2.324492    0.128246   -0.538639
     12          6           0        1.088004    0.556176    0.275654
     13          6           0        1.039785    2.064758    0.001208
     14          6           0        2.533669    2.484442    0.065234
     15          6           0        3.366079    1.189409   -0.170247
     16          8           0        3.176961   -1.617350    0.979227
     17          1           0       -3.703470    1.022240    1.489086
     18          1           0       -3.763704   -0.657175    2.074455
     19          1           0       -5.201435    0.072673    1.334993
     20          1           0       -4.116715   -1.464080   -0.246878
     21          1           0       -3.668737    1.441846   -1.095699
     22          1           0       -3.705663    0.034480   -2.183876
     23          1           0       -5.166120    0.498286   -1.289809
     24          1           0       -0.665013   -2.283734   -0.221397
     25          1           0        0.348907   -1.944184    1.177184
     26          1           0        1.642382   -3.235344   -0.451714
     27          1           0        1.242917   -2.097172   -1.750693
     28          1           0        3.516261   -1.621414   -0.993930
     29          1           0        2.043535    0.246954   -1.595127
     30          1           0        1.309377    0.417686    1.352638
     31          1           0        0.407736    2.607685    0.701238
     32          1           0        0.627683    2.229149   -0.999678
     33          1           0        2.769736    2.921967    1.040940
     34          1           0        2.753420    3.252207   -0.682687
     35          1           0        3.888584    0.881200    0.741098
     36          1           0        4.123062    1.306291   -0.951742
     37          1           0        2.499003   -1.339612    1.614705
 ---------------------------------------------------------------------

 SCF Done:  E(UB3LYP) =  -750.637488323     A.U. after   33 cycles
 SCF Done:  E(UB3LYP) =  -750.637488323     a.u. after    1 cycles

 The electronic state is 2-A.
 Alpha  occ. eigenvalues --  -19.05641 -19.03014 -18.99170 -14.24486 -10.21790
 Alpha  occ. eigenvalues --  -10.13531 -10.12944 -10.11740 -10.10808 -10.08072
 Alpha  occ. eigenvalues --  -10.07708 -10.07616 -10.07330 -10.07072 -10.06144
 Alpha  occ. eigenvalues --  -10.06128  -1.00340  -0.93360  -0.91293  -0.84886
 Alpha  occ. eigenvalues --   -0.74806  -0.69807  -0.68761  -0.63400  -0.61935
 Alpha  occ. eigenvalues --   -0.59586  -0.58371  -0.54087  -0.51344  -0.49679
 Alpha  occ. eigenvalues --   -0.47803  -0.44364  -0.41706  -0.40884  -0.39768
 Alpha  occ. eigenvalues --   -0.38189  -0.38017  -0.37335  -0.35952  -0.35369
 Alpha  occ. eigenvalues --   -0.34004  -0.33743  -0.32340  -0.31717  -0.31061
 Alpha  occ. eigenvalues --   -0.29638  -0.29131  -0.28538  -0.27221  -0.26746
 Alpha  occ. eigenvalues --   -0.25975  -0.25866  -0.25127  -0.24496  -0.24186
 Alpha  occ. eigenvalues --   -0.23961  -0.22959  -0.22261  -0.20031  -0.18313
 Alpha  occ. eigenvalues --   -0.17266  -0.14939   0.04269
 Alpha virt. eigenvalues --    0.05996   0.06374   0.07082   0.08219   0.08500
 Alpha virt. eigenvalues --    0.08757   0.09079   0.09418   0.10430   0.10552
 Alpha virt. eigenvalues --    0.11382   0.11520   0.11929   0.12402   0.12757

  Beta  occ. eigenvalues --  -19.05637 -19.02987 -18.99157 -14.24486 -10.21784
  Beta  occ. eigenvalues --  -10.13515 -10.12935 -10.11719 -10.10781 -10.08067
  Beta  occ. eigenvalues --  -10.07693 -10.07607 -10.07317 -10.07066 -10.06118
  Beta  occ. eigenvalues --  -10.06105  -1.00325  -0.93299  -0.91274  -0.84871
  Beta  occ. eigenvalues --   -0.74786  -0.69772  -0.68726  -0.63366  -0.61907
  Beta  occ. eigenvalues --   -0.59536  -0.58333  -0.54052  -0.51298  -0.49644
  Beta  occ. eigenvalues --   -0.47762  -0.44321  -0.41672  -0.40846  -0.39729
  Beta  occ. eigenvalues --   -0.38150  -0.37969  -0.37303  -0.35912  -0.35336
  Beta  occ. eigenvalues --   -0.33973  -0.33715  -0.32311  -0.31690  -0.31031
  Beta  occ. eigenvalues --   -0.29611  -0.29102  -0.28504  -0.27182  -0.26721
  Beta  occ. eigenvalues --   -0.25946  -0.25831  -0.25100  -0.24470  -0.24160
  Beta  occ. eigenvalues --   -0.23927  -0.22935  -0.22236  -0.20001  -0.18285
  Beta  occ. eigenvalues --   -0.17242  -0.14915
  Beta virt. eigenvalues --    0.06241   0.06857   0.07093   0.07526   0.08591
  Beta virt. eigenvalues --    0.09009   0.09167   0.09297   0.09807   0.10799
  Beta virt. eigenvalues --    0.10881   0.11527   0.11699   0.12130   0.12603

 Mulliken charges and spin densities:
               1          2
     1  C    0.786925  -1.232734
     2  C   -0.830820   1.011845
     3  C    0.748169  -1.231799
     4  O    0.014900   0.011562
     5  C    0.464287  -0.504589
     6  O   -0.249482  -0.000461
     7  N   -0.072255   0.128483
     8  C    0.624866  -0.903104
     9  C   -0.220621  -0.286806
    10  C   -0.272766   0.060475
    11  C   -0.199970   1.075543
    12  C   -0.233160  -0.652192
    13  C   -0.009147  -0.417403
    14  C   -0.368525  -0.185480
    15  C    0.645474  -1.262965
    16  O   -0.114730  -0.054745
    17  H    0.085946   0.089428
    18  H   -0.092023   0.224368
    19  H   -0.234350   0.389384
    20  H   -0.671909   0.858676
    21  H    0.058730   0.118353
    22  H   -0.045345   0.178532
    23  H   -0.296483   0.455707
    24  H   -0.128174   0.376323
    25  H   -0.146121   0.307267
    26  H   -0.181445   0.389226
    27  H   -0.008301   0.149123
    28  H   -0.075128   0.296152
    29  H   -0.087086   0.310079
    30  H   -0.280250   0.486409
    31  H    0.220072  -0.014729
    32  H    0.132209   0.047383
    33  H    0.064307   0.066977
    34  H   -0.044353   0.194305
    35  H    0.019341   0.155261
    36  H   -0.040588   0.171470
    37  H    0.037806   0.194679
 Sum of Mulliken charges =  -1.00000   1.00000

 Dipole moment (field-independent basis, Debye):
    X=              4.0067    Y=              3.0006    Z=             -0.6766  Tot=              5.0512
 Quadrupole moment (field-independent basis, Debye-Ang):
   XX=           -191.5952   YY=           -142.2717   ZZ=           -132.8150
   XY=             -2.7864   XZ=             -4.0364   YZ=              2.3638

 Summary of Natural Population Analysis:

                                       Natural Population
                Natural  -----------------------------------------------
    Atom  No    Charge         Core      Valence    Rydberg      Total
 -----------------------------------------------------------------------
      C    1   -0.30075      0.99964     2.29489    0.00623     3.30075
      C    2    0.06734      0.99955     1.91943    0.01369     2.93266
      C    3   -0.30126      0.99964     2.29532    0.00630     3.30126
      O    4   -0.29403      0.99986     3.28467    0.00949     4.29403
      C    5    0.47381      0.99965     1.50063    0.02591     2.52619
      O    6   -0.33472      0.99987     3.32997    0.00488     4.33472
      N    7   -0.26910      0.99962     2.75800    0.01148     3.76910
      C    8   -0.08745      0.99959     2.07614    0.01171     3.08745
      C    9   -0.20344      0.99960     2.19538    0.00846     3.20344
      C   10    0.06778      0.99951     1.91819    0.01452     2.93222
      C   11   -0.12161      0.99954     2.11201    0.01006     3.12161
      C   12    0.00178      0.99953     1.98528    0.01341     2.99822
      C   13   -0.19047      0.99962     2.18273    0.00813     3.19047
      C   14   -0.19136      0.99965     2.18503    0.00668     3.19136
      C   15   -0.19163      0.99962     2.18455    0.00747     3.19163
      O   16   -0.37273      0.99990     3.36635    0.00648     4.37273
      H   17    0.10991      0.00000     0.38908    0.00101     0.39009
      H   18    0.10276      0.00000     0.39609    0.00115     0.39724
      H   19    0.10159      0.00000     0.39738    0.00104     0.39841
      H   20    0.09243      0.00000     0.40489    0.00267     0.40757
      H   21    0.11002      0.00000     0.38901    0.00097     0.38998
      H   22    0.10250      0.00000     0.39645    0.00105     0.39750
      H   23    0.10208      0.00000     0.39683    0.00110     0.39792
      H   24    0.11945      0.00000     0.37874    0.00181     0.38055
      H   25    0.08616      0.00000     0.41191    0.00193     0.41384
      H   26    0.10641      0.00000     0.39252    0.00106     0.39359
      H   27    0.10156      0.00000     0.39708    0.00135     0.39844
      H   28    0.08890      0.00000     0.40940    0.00170     0.41110
      H   29    0.10262      0.00000     0.39566    0.00172     0.39738
      H   30    0.08421      0.00000     0.41396    0.00183     0.41579
      H   31    0.11219      0.00000     0.38674    0.00107     0.38781
      H   32    0.10094      0.00000     0.39769    0.00137     0.39906
      H   33    0.09583      0.00000     0.40292    0.00125     0.40417
      H   34    0.09742      0.00000     0.40144    0.00114     0.40258
      H   35    0.10353      0.00000     0.39487    0.00160     0.39647
      H   36    0.09951      0.00000     0.39931    0.00117     0.40049
      H   37    0.22784      0.00000     0.26848    0.00369     0.27216
 =======================================================================
   * Total *   -0.00000     15.99439    45.80903    0.19658    62.00000

 Normal termination of Gaussian 16 at Fri Dec 11 01:24:06 2020.
