 Gaussian 16, Revision A.03,

 -----------------------------------------------------------
 # opt freq B3LYP/6-31G(d) empiricaldispersion=gd3bj scf=xqc
 -----------------------------------------------------------

 ------------------------------
 CID_146934209_JID_501_neutraal
 ------------------------------
 Symbolic Z-matrix:
 Charge =  0 Multiplicity = 1

 SCF Done:  E(RB3LYP) =  -441.213884311     A.U. after   13 cycles
 SCF Done:  E(RB3LYP) =  -441.224259318     A.U. after   12 cycles
 SCF Done:  E(RB3LYP) =  -441.226375264     A.U. after   11 cycles
 SCF Done:  E(RB3LYP) =  -441.227487553     A.U. after   11 cycles
 SCF Done:  E(RB3LYP) =  -441.227974806     A.U. after   11 cycles
 SCF Done:  E(RB3LYP) =  -441.228063801     A.U. after   10 cycles
 SCF Done:  E(RB3LYP) =  -441.228090386     A.U. after   10 cycles
 SCF Done:  E(RB3LYP) =  -441.228097505     A.U. after    9 cycles
 SCF Done:  E(RB3LYP) =  -441.228101769     A.U. after    9 cycles
 SCF Done:  E(RB3LYP) =  -441.228102460     A.U. after    8 cycles
 SCF Done:  E(RB3LYP) =  -441.228102730     A.U. after    7 cycles
 SCF Done:  E(RB3LYP) =  -441.228102809     A.U. after    7 cycles
 Optimization completed.
    -- Stationary point found.

 1\1\GINC-NODE378\FOpt\RB3LYP\6-31G(d)\C7H17N3\VSC10255\08-Dec-2020\0\\
 # opt freq B3LYP/6-31G(d) empiricaldispersion=gd3bj scf=xqc\\CID_14693
 4209_JID_501_neutraal\\0,1\C,0.9750287228,0.1669393565,-0.0375095543\C
 ,0.4209166812,-0.6804980969,1.1039345292\N,0.6228926026,-0.0089908791,
 2.388596128\C,0.0469854973,-0.706375063,3.5233380855\N,0.7014687725,-1
 .9848302261,3.8216188226\C,0.4820452283,-2.5553135842,5.1770218155\C,-
 1.0087468053,-2.6515134299,5.565765464\C,1.0676461421,-3.9570053665,5.
 1373258246\C,1.8420947974,-4.4921959514,6.0769735796\N,1.1651436212,-1

 Normal termination of Gaussian 16 at Tue Dec  8 12:10:47 2020.

 --------------------------------------------------------------------
 #N Geom=AllCheck Guess=TCheck SCRF=Check GenChk RB3LYP/6-31G(d) Freq
 --------------------------------------------------------------------

 Structure from the checkpoint file:  "JID_501.chk"
 ------------------------------
 CID_146934209_JID_501_neutraal
 ------------------------------
 Charge =  0 Multiplicity = 1

 SCF Done:  E(RB3LYP) =  -441.228102809     A.U. after    1 cycles

  Exact polarizability: 118.476   6.619  88.108   7.357  -1.361  83.295
 Approx polarizability: 141.971  10.202 124.067  15.521  -3.004 123.598

                      1                      2                      3
                      A                      A                      A
 Frequencies --     38.0683                68.8762                80.0059
 Red. masses --      3.2154                 2.3261                 2.2473
 Frc consts  --      0.0027                 0.0065                 0.0085
 IR Inten    --      0.3289                 0.1486                 0.8937

                      4                      5                      6
                      A                      A                      A
 Frequencies --     99.2835               129.0312               195.9088
 Red. masses --      2.9645                 2.5572                 3.1997
 Frc consts  --      0.0172                 0.0251                 0.0724
 IR Inten    --      0.5915                 2.1187                 0.0555

                      7                      8                      9
                      A                      A                      A
 Frequencies --    251.9634               253.3804               285.0914
 Red. masses --      1.2076                 1.1499                 2.6030
 Frc consts  --      0.0452                 0.0435                 0.1246
 IR Inten    --      0.9404                 4.0015                 0.5742

                     10                     11                     12
                      A                      A                      A
 Frequencies --    298.6628               302.9163               338.3316
 Red. masses --      1.4730                 1.8218                 2.2127
 Frc consts  --      0.0774                 0.0985                 0.1492
 IR Inten    --      8.6433                 8.5648                 6.4981

                     13                     14                     15
                      A                      A                      A
 Frequencies --    344.4172               378.7653               452.2450
 Red. masses --      1.5255                 2.3725                 2.5927
 Frc consts  --      0.1066                 0.2005                 0.3124
 IR Inten    --     13.5547                12.2371                 4.7912

                     16                     17                     18
                      A                      A                      A
 Frequencies --    471.6438               526.6994               621.2610
 Red. masses --      2.5574                 2.8218                 2.4733
 Frc consts  --      0.3352                 0.4612                 0.5624
 IR Inten    --     24.7256                 3.7520                 9.3501

                     19                     20                     21
                      A                      A                      A
 Frequencies --    695.5623               747.9264               783.4672
 Red. masses --      1.7884                 1.9545                 1.3882
 Frc consts  --      0.5098                 0.6442                 0.5021
 IR Inten    --      2.7901                72.1283                63.2608

                     22                     23                     24
                      A                      A                      A
 Frequencies --    799.5914               833.1711               867.9095
 Red. masses --      1.8724                 1.1839                 1.8067
 Frc consts  --      0.7053                 0.4842                 0.8019
 IR Inten    --     69.2666                 6.5151                98.1062

                     25                     26                     27
                      A                      A                      A
 Frequencies --    903.5945               936.4383               960.8475
 Red. masses --      1.8789                 1.7472                 1.3756
 Frc consts  --      0.9038                 0.9027                 0.7483
 IR Inten    --     77.0291                21.6669                26.2341

                     28                     29                     30
                      A                      A                      A
 Frequencies --    987.1215              1016.4290              1032.8955
 Red. masses --      1.7149                 1.3949                 1.3636
 Frc consts  --      0.9845                 0.8491                 0.8571
 IR Inten    --      5.0091                29.2663                18.0184

                     31                     32                     33
                      A                      A                      A
 Frequencies --   1039.3363              1056.9509              1077.3209
 Red. masses --      1.3559                 2.5494                 1.7543
 Frc consts  --      0.8630                 1.6780                 1.1997
 IR Inten    --      3.2732                 1.6750                 8.5360

                     34                     35                     36
                      A                      A                      A
 Frequencies --   1085.3372              1141.7285              1166.6699
 Red. masses --      2.5424                 2.1719                 2.3985
 Frc consts  --      1.7645                 1.6681                 1.9235
 IR Inten    --     79.1767                96.0208               110.0270

                     37                     38                     39
                      A                      A                      A
 Frequencies --   1182.8577              1207.5378              1273.2819
 Red. masses --      2.5040                 1.7098                 2.2847
 Frc consts  --      2.0642                 1.4689                 2.1823
 IR Inten    --     34.4010                 3.9247                14.4982

                     40                     41                     42
                      A                      A                      A
 Frequencies --   1302.7709              1338.4104              1349.5332
 Red. masses --      1.2838                 1.3076                 1.5209
 Frc consts  --      1.2838                 1.3801                 1.6320
 IR Inten    --      9.9365                 8.5200                 5.2486

                     43                     44                     45
                      A                      A                      A
 Frequencies --   1360.1473              1400.4308              1422.1023
 Red. masses --      1.3586                 1.2680                 1.2595
 Frc consts  --      1.4809                 1.4652                 1.5007
 IR Inten    --     13.9825                12.8625                 3.0776

                     46                     47                     48
                      A                      A                      A
 Frequencies --   1429.5513              1442.9638              1455.7677
 Red. masses --      1.2362                 1.3270                 1.2215
 Frc consts  --      1.4885                 1.6279                 1.5252
 IR Inten    --      8.1012                 5.1266                 8.6769

                     49                     50                     51
                      A                      A                      A
 Frequencies --   1503.7733              1510.7640              1519.2739
 Red. masses --      1.1911                 1.1057                 1.0532
 Frc consts  --      1.5870                 1.4870                 1.4323
 IR Inten    --     38.5407                10.7794                 0.6537

                     52                     53                     54
                      A                      A                      A
 Frequencies --   1525.2074              1529.2257              1530.7133
 Red. masses --      1.0755                 1.0440                 1.0951
 Frc consts  --      1.4741                 1.4384                 1.5118
 IR Inten    --      2.3081                 6.2449                 0.8535

                     55                     56                     57
                      A                      A                      A
 Frequencies --   1539.8394              1550.2730              1690.1852
 Red. masses --      1.1734                 1.0916                 1.1397
 Frc consts  --      1.6392                 1.5457                 1.9183
 IR Inten    --     54.4003                 2.8792                22.7673

                     58                     59                     60
                      A                      A                      A
 Frequencies --   1737.6190              2949.0330              2991.2477
 Red. masses --      4.2175                 1.0724                 1.0700
 Frc consts  --      7.5026                 5.4948                 5.6409
 IR Inten    --      4.7162                71.5177                53.1592

                     61                     62                     63
                      A                      A                      A
 Frequencies --   3046.9816              3051.4505              3052.0834
 Red. masses --      1.0522                 1.0523                 1.0552
 Frc consts  --      5.7558                 5.7731                 5.7913
 IR Inten    --     15.4487                 6.4407                61.7173

                     64                     65                     66
                      A                      A                      A
 Frequencies --   3083.7813              3112.0083              3116.3535
 Red. masses --      1.0919                 1.1003                 1.1010
 Frc consts  --      6.1179                 6.2783                 6.2999
 IR Inten    --     34.0597                44.3824                30.9867

                     67                     68                     69
                      A                      A                      A
 Frequencies --   3133.5089              3138.4411              3144.1735
 Red. masses --      1.1031                 1.0849                 1.1011
 Frc consts  --      6.3814                 6.2962                 6.4132
 IR Inten    --     29.1874                14.1075                30.5862

                     70                     71                     72
                      A                      A                      A
 Frequencies --   3172.2473              3256.8722              3472.8238
 Red. masses --      1.0654                 1.1158                 1.0728
 Frc consts  --      6.3171                 6.9735                 7.6233
 IR Inten    --     13.0300                 8.2514                 0.8845

                     73                     74                     75
                      A                      A                      A
 Frequencies --   3476.4083              3492.8574              3567.1626
 Red. masses --      1.0492                 1.0732                 1.0928
 Frc consts  --      7.4708                 7.7142                 8.1926
 IR Inten    --      0.9134                 1.5993                 1.3285

 - Thermochemistry -
 -------------------
 Temperature   298.150 Kelvin.  Pressure   1.00000 Atm.
 Atom     1 has atomic number  6 and mass  12.00000

 Molecular mass:   143.14225 amu.
 Principal axes and moments of inertia in atomic units:
                           1         2         3
     Eigenvalues --   669.400443323.140553504.91475
           X            0.99996  -0.00895  -0.00033
           Y            0.00896   0.99976   0.01978
           Z            0.00015  -0.01978   0.99980
 This molecule is an asymmetric top.
 Rotational symmetry number  1.
 Warning -- assumption of classical behavior for rotation
           may cause significant error
 Rotational temperatures (Kelvin)      0.12939     0.02606     0.02471
 Rotational constants (GHZ):           2.69606     0.54308     0.51492
 Zero-point vibrational energy     647948.4 (Joules/Mol)
                                  154.86338 (Kcal/Mol)
 Warning -- explicit consideration of  17 degrees of freedom as
           vibrations may cause significant error
 Vibrational temperatures:     54.77    99.10   115.11   142.85   185.65
          (Kelvin)            281.87   362.52   364.56   410.18   429.71
                              435.83   486.78   495.54   544.96   650.68
                              678.59   757.80   893.86  1000.76  1076.10
                             1127.23  1150.43  1198.75  1248.73  1300.07
                             1347.33  1382.45  1420.25  1462.41  1486.11
                             1495.37  1520.72  1550.02  1561.56  1642.69
                             1678.58  1701.87  1737.38  1831.97  1874.40
                             1925.67  1941.68  1956.95  2014.91  2046.09
                             2056.81  2076.10  2094.53  2163.59  2173.65
                             2185.90  2194.43  2200.21  2202.36  2215.49
                             2230.50  2431.80  2500.05  4243.00  4303.74
                             4383.93  4390.36  4391.27  4436.87  4477.49
                             4483.74  4508.42  4515.52  4523.76  4564.16
                             4685.91  4996.62  5001.78  5025.44  5132.35

 Zero-point correction=                           0.246791 (Hartree/Particle)
 Thermal correction to Energy=                    0.259276
 Thermal correction to Enthalpy=                  0.260221
 Thermal correction to Gibbs Free Energy=         0.208082
 Sum of electronic and zero-point Energies=           -440.981312
 Sum of electronic and thermal Energies=              -440.968826
 Sum of electronic and thermal Enthalpies=            -440.967882
 Sum of electronic and thermal Free Energies=         -441.020021

                     E (Thermal)             CV                S
                      KCal/Mol        Cal/Mol-Kelvin    Cal/Mol-Kelvin
 Total                  162.698             46.139            109.734
 Electronic               0.000              0.000              0.000
 Translational            0.889              2.981             40.787
 Rotational               0.889              2.981             30.434
 Vibrational            160.921             40.177             38.513
 Vibration     1          0.594              1.982              5.357
 Vibration     2          0.598              1.969              4.185
 Vibration     3          0.600              1.963              3.891
 Vibration     4          0.604              1.950              3.468
 Vibration     5          0.612              1.924              2.960
 Vibration     6          0.636              1.846              2.171
 Vibration     7          0.664              1.759              1.717
 Vibration     8          0.665              1.757              1.707
 Vibration     9          0.683              1.701              1.503
 Vibration    10          0.692              1.676              1.424
 Vibration    11          0.694              1.668              1.401
 Vibration    12          0.719              1.599              1.220
 Vibration    13          0.723              1.587              1.192
 Vibration    14          0.749              1.515              1.044
 Vibration    15          0.811              1.356              0.789
 Vibration    16          0.829              1.313              0.733
 Vibration    17          0.882              1.191              0.595

 Optimization completed.
    -- Stationary point found.

 1\1\GINC-NODE378\Freq\RB3LYP\6-31G(d)\C7H17N3\VSC10255\08-Dec-2020\0\\
 #N Geom=AllCheck Guess=TCheck SCRF=Check GenChk RB3LYP/6-31G(d) Freq\\
 CID_146934209_JID_501_neutraal\\0,1\C,0.9750287228,0.1669393565,-0.037
 5095543\C,0.4209166812,-0.6804980969,1.1039345292\N,0.6228926026,-0.00
 89908791,2.388596128\C,0.0469854973,-0.706375063,3.5233380855\N,0.7014
 687725,-1.9848302261,3.8216188226\C,0.4820452283,-2.5553135842,5.17702
 18155\C,-1.0087468053,-2.6515134299,5.565765464\C,1.0676461421,-3.9570
 053665,5.1373258246\C,1.8420947974,-4.4921959514,6.0769735796\N,1.1651

 Normal termination of Gaussian 16 at Tue Dec  8 12:16:17 2020.

 ----------------------------------------------------------------------
 # B3LYP/6-311++G(d,p) empiricaldispersion=gd3bj scf=xqc pop=npa geom=c
 heck
 ----------------------------------------------------------------------

 --------------------------------------
 CID_146934209_JID_501_Energie_neutraal
 --------------------------------------
 Structure from the checkpoint file:  "JID_501.chk"
 Charge =  0 Multiplicity = 1

 SCF Done:  E(RB3LYP) =  -441.371523102     A.U. after   13 cycles
 Normal termination of Gaussian 16 at Tue Dec  8 12:19:08 2020.

 ----------------------------------------------------------------------
 # B3LYP/6-311++G(d,p) empiricaldispersion=gd3bj scf=xqc pop=npa geom=c
 heck
 ----------------------------------------------------------------------

 ------------------------------------
 CID_146934209_JID_501_Energie_kation
 ------------------------------------
 Structure from the checkpoint file:  "JID_501.chk"
 Charge =  1 Multiplicity = 2

 SCF Done:  E(UB3LYP) =  -441.068226704     A.U. after   24 cycles
 Normal termination of Gaussian 16 at Tue Dec  8 12:26:49 2020.
 Gaussian 16:  ES64L-G16RevA.03 25-Dec-2016

 -----------------------------------
 CID_146934209_JID_501_Energie_anion
 -----------------------------------
 Structure from the checkpoint file:  "JID_501.chk"
 Charge = -1 Multiplicity = 2

                         Standard orientation:
 ---------------------------------------------------------------------
 Center     Atomic      Atomic             Coordinates (Angstroms)
 Number     Number       Type             X           Y           Z
 ---------------------------------------------------------------------
      1          6           0       -4.308603    0.702594    0.070100
      2          6           0       -2.908197    0.372586   -0.437880
      3          7           0       -2.201637   -0.480922    0.518346
      4          6           0       -0.890352   -0.915776    0.074400
      5          7           0        0.085493    0.174201   -0.032585
      6          6           0        1.522447   -0.206725   -0.060388
      7          6           0        1.849955   -1.279930   -1.120485
      8          6           0        2.282396    1.064263   -0.401434
      9          6           0        3.386447    1.485636    0.209020
     10          7           0        1.963259   -0.705176    1.237566
     11          1           0       -4.870980   -0.216561    0.261746
     12          1           0       -4.857476    1.309053   -0.658693
     13          1           0       -4.260749    1.271011    1.007292
     14          1           0       -2.978617   -0.182904   -1.382841
     15          1           0       -2.372363    1.313705   -0.661296
     16          1           0       -2.077781    0.040076    1.386738
     17          1           0       -0.504621   -1.627824    0.811829
     18          1           0       -1.035876   -1.469099   -0.867749
     19          1           0       -0.124003    0.733538   -0.857449
     20          1           0        1.574496   -0.927549   -2.120301
     21          1           0        2.920542   -1.501021   -1.111275
     22          1           0        1.300260   -2.208861   -0.927668
     23          1           0        1.870584    1.634958   -1.235053
     24          1           0        3.889508    2.398050   -0.099037
     25          1           0        3.817671    0.920816    1.029449
     26          1           0        1.575756   -0.099082    1.959364
     27          1           0        1.599286   -1.640912    1.401654
 ---------------------------------------------------------------------

 SCF Done:  E(UB3LYP) =  -441.355842935     A.U. after   31 cycles

 The electronic state is 2-A.
 Alpha  occ. eigenvalues --  -14.19175 -14.18969 -14.18876 -10.13379 -10.10886
 Alpha  occ. eigenvalues --  -10.08769 -10.06945 -10.06113 -10.05871 -10.05514
 Alpha  occ. eigenvalues --   -0.83839  -0.80015  -0.73849  -0.66995  -0.64209
 Alpha  occ. eigenvalues --   -0.61417  -0.55381  -0.51220  -0.48961  -0.44828
 Alpha  occ. eigenvalues --   -0.40573  -0.39051  -0.38725  -0.36277  -0.34803
 Alpha  occ. eigenvalues --   -0.33779  -0.32507  -0.31591  -0.30506  -0.28412
 Alpha  occ. eigenvalues --   -0.27898  -0.26753  -0.26312  -0.24859  -0.24617
 Alpha  occ. eigenvalues --   -0.23664  -0.16472  -0.15963  -0.13241  -0.12454
 Alpha  occ. eigenvalues --    0.04702
 Alpha virt. eigenvalues --    0.06977   0.07357   0.07817   0.09159   0.09613
 Alpha virt. eigenvalues --    0.09674   0.10077   0.10366   0.11065   0.11964
 Alpha virt. eigenvalues --    0.12316   0.13112   0.13273   0.14099   0.14718

  Beta  occ. eigenvalues --  -14.19161 -14.18950 -14.18842 -10.13377 -10.10863
  Beta  occ. eigenvalues --  -10.08741 -10.06925 -10.06091 -10.05858 -10.05474
  Beta  occ. eigenvalues --   -0.83807  -0.79979  -0.73800  -0.66956  -0.64170
  Beta  occ. eigenvalues --   -0.61364  -0.55322  -0.51150  -0.48886  -0.44761
  Beta  occ. eigenvalues --   -0.40527  -0.39016  -0.38683  -0.36238  -0.34759
  Beta  occ. eigenvalues --   -0.33742  -0.32471  -0.31535  -0.30470  -0.28368
  Beta  occ. eigenvalues --   -0.27860  -0.26704  -0.26259  -0.24811  -0.24580
  Beta  occ. eigenvalues --   -0.23631  -0.16445  -0.15929  -0.13204  -0.12417
  Beta virt. eigenvalues --    0.06975   0.07539   0.08269   0.08528   0.09597
  Beta virt. eigenvalues --    0.09715   0.10111   0.10269   0.11010   0.11591
  Beta virt. eigenvalues --    0.12325   0.12638   0.13499   0.13543   0.14588

 Mulliken charges and spin densities:
               1          2
     1  C    0.367451  -0.911106
     2  C    0.364725  -0.512205
     3  N   -0.057101   0.078946
     4  C   -0.042276  -0.441204
     5  N   -0.001630   0.014672
     6  C   -0.544437   0.044036
     7  C    1.654904  -2.152393
     8  C   -1.184519   1.457716
     9  C    1.359499  -1.963264
    10  N   -0.391790   0.079986
    11  H    0.017602   0.129310
    12  H   -0.170866   0.297017
    13  H   -0.139648   0.259802
    14  H   -0.304977   0.456819
    15  H   -0.185595   0.292153
    16  H    0.158910   0.039064
    17  H   -0.214938   0.347305
    18  H   -0.125271   0.299161
    19  H    0.253165  -0.070504
    20  H   -0.594518   0.767294
    21  H    0.047098   0.108589
    22  H   -0.137851   0.288265
    23  H   -0.922995   1.101148
    24  H   -0.132514   0.256852
    25  H    0.042702   0.108270
    26  H   -0.129336   0.390032
    27  H    0.014205   0.234238
 Sum of Mulliken charges =  -1.00000   1.00000

 Dipole moment (field-independent basis, Debye):
    X=              0.0422    Y=             -0.4362    Z=              2.9435  Tot=              2.9760
 Quadrupole moment (field-independent basis, Debye-Ang):
   XX=           -124.6277   YY=           -102.7378   ZZ=           -104.4511
   XY=              0.9556   XZ=             -1.1950   YZ=              2.9106

 Summary of Natural Population Analysis:

                                       Natural Population
                Natural  -----------------------------------------------
    Atom  No    Charge         Core      Valence    Rydberg      Total
 -----------------------------------------------------------------------
      C    1   -0.28495      0.99967     2.28054    0.00475     3.28495
      C    2   -0.09011      0.99964     2.07965    0.01081     3.09011
      N    3   -0.33565      0.99974     2.82510    0.01081     3.83565
      C    4    0.00837      0.99963     1.97944    0.01256     2.99163
      N    5   -0.35897      0.99971     2.84721    0.01205     3.85897
      C    6    0.12964      0.99959     1.85438    0.01639     2.87036
      C    7   -0.29350      0.99961     2.28674    0.00714     3.29350
      C    8   -0.08371      0.99952     2.07012    0.01407     3.08371
      C    9   -0.19095      0.99955     2.18487    0.00653     3.19095
      N   10   -0.42660      0.99975     2.91550    0.01136     3.92660
      H   11    0.09776      0.00000     0.40071    0.00152     0.40224
      H   12    0.09830      0.00000     0.40051    0.00119     0.40170
      H   13    0.09307      0.00000     0.40554    0.00139     0.40693
      H   14    0.09057      0.00000     0.40746    0.00196     0.40943
      H   15    0.07989      0.00000     0.41808    0.00203     0.42011
      H   16    0.16811      0.00000     0.32742    0.00446     0.33189
      H   17    0.08744      0.00000     0.41037    0.00219     0.41256
      H   18    0.08010      0.00000     0.41782    0.00208     0.41990
      H   19    0.17646      0.00000     0.31788    0.00566     0.32354
      H   20    0.10480      0.00000     0.39319    0.00201     0.39520
      H   21    0.10548      0.00000     0.39347    0.00105     0.39452
      H   22    0.09935      0.00000     0.39944    0.00121     0.40065
      H   23    0.09655      0.00000     0.40129    0.00215     0.40345
      H   24    0.09197      0.00000     0.40690    0.00113     0.40803
      H   25    0.10035      0.00000     0.39809    0.00156     0.39965
      H   26    0.17944      0.00000     0.31830    0.00227     0.32056
      H   27    0.17678      0.00000     0.32085    0.00237     0.32322
 =======================================================================
   * Total *    0.00000      9.99641    29.86088    0.14271    40.00000

 Normal termination of Gaussian 16 at Tue Dec  8 12:40:03 2020.
