 Gaussian 16, Revision A.03,

 -----------------------------------------------------------
 # opt freq B3LYP/6-31G(d) empiricaldispersion=gd3bj scf=xqc
 -----------------------------------------------------------

 -------------------------------
 CID_141955824_JID_7824_neutraal
 -------------------------------
 Symbolic Z-matrix:
 Charge =  0 Multiplicity = 1

 SCF Done:  E(RB3LYP) =  -714.248002062     A.U. after   14 cycles
 SCF Done:  E(RB3LYP) =  -714.251264815     A.U. after   12 cycles
 SCF Done:  E(RB3LYP) =  -714.251622690     A.U. after   12 cycles
 SCF Done:  E(RB3LYP) =  -714.251890197     A.U. after   11 cycles
 SCF Done:  E(RB3LYP) =  -714.252053879     A.U. after   11 cycles
 SCF Done:  E(RB3LYP) =  -714.252162315     A.U. after   11 cycles
 SCF Done:  E(RB3LYP) =  -714.252238667     A.U. after   10 cycles
 SCF Done:  E(RB3LYP) =  -714.252297938     A.U. after   10 cycles
 SCF Done:  E(RB3LYP) =  -714.252319405     A.U. after   10 cycles
 SCF Done:  E(RB3LYP) =  -714.252336296     A.U. after   10 cycles
 SCF Done:  E(RB3LYP) =  -714.252339731     A.U. after    8 cycles
 SCF Done:  E(RB3LYP) =  -714.252339850     A.U. after    9 cycles
 SCF Done:  E(RB3LYP) =  -714.252339898     A.U. after    6 cycles
 SCF Done:  E(RB3LYP) =  -714.252339909     A.U. after    6 cycles
 SCF Done:  E(RB3LYP) =  -714.252339924     A.U. after    6 cycles
 Optimization completed.
    -- Stationary point found.
 Normal termination of Gaussian 16 at Fri Dec 11 13:15:23 2020.

 --------------------------------------------------------------------
 #N Geom=AllCheck Guess=TCheck SCRF=Check GenChk RB3LYP/6-31G(d) Freq
 --------------------------------------------------------------------

 Structure from the checkpoint file:  "JID_7824.chk"
 -------------------------------
 CID_141955824_JID_7824_neutraal
 -------------------------------
 Charge =  0 Multiplicity = 1

 SCF Done:  E(RB3LYP) =  -714.252339924     A.U. after    1 cycles

  Exact polarizability: 303.651 -14.368 136.547   0.336 -10.239 127.743
 Approx polarizability: 386.456 -27.744 207.353   0.876 -32.630 205.252

                      1                      2                      3
                      A                      A                      A
 Frequencies --     15.7527                29.3723                39.8788
 Red. masses --      4.2783                 3.3510                 3.3747
 Frc consts  --      0.0006                 0.0017                 0.0032
 IR Inten    --      0.6209                 0.6471                 0.2058

                      4                      5                      6
                      A                      A                      A
 Frequencies --     45.1295                83.1902                93.6183
 Red. masses --      2.8959                 3.2883                 2.6680
 Frc consts  --      0.0035                 0.0134                 0.0138
 IR Inten    --      0.4134                 2.1461                 1.4714

                      7                      8                      9
                      A                      A                      A
 Frequencies --    122.7614               127.8277               141.3180
 Red. masses --      1.4858                 2.9293                 1.8516
 Frc consts  --      0.0132                 0.0282                 0.0218
 IR Inten    --      0.1406                 0.2176                 0.4646

                     10                     11                     12
                      A                      A                      A
 Frequencies --    174.5198               195.6560               203.5876
 Red. masses --      2.3066                 1.1269                 3.6349
 Frc consts  --      0.0414                 0.0254                 0.0888
 IR Inten    --      2.5488                 0.0796                 0.3897

                     13                     14                     15
                      A                      A                      A
 Frequencies --    226.8210               235.2595               240.9471
 Red. masses --      1.2532                 1.9359                 1.4788
 Frc consts  --      0.0380                 0.0631                 0.0506
 IR Inten    --      0.0717                 0.4065                 0.7068

                     16                     17                     18
                      A                      A                      A
 Frequencies --    285.4927               307.5673               345.8647
 Red. masses --      2.7836                 2.8449                 3.0715
 Frc consts  --      0.1337                 0.1586                 0.2165
 IR Inten    --      2.8521                 0.7983                12.7310

                     19                     20                     21
                      A                      A                      A
 Frequencies --    366.6189               411.3206               412.2429
 Red. masses --      3.6790                 2.8568                 2.7420
 Frc consts  --      0.2913                 0.2848                 0.2746
 IR Inten    --      1.4950                19.3676                15.0296

                     22                     23                     24
                      A                      A                      A
 Frequencies --    426.8668               449.4329               456.1055
 Red. masses --      3.2796                 3.4201                 2.3767
 Frc consts  --      0.3521                 0.4070                 0.2913
 IR Inten    --      0.8176                24.4249                49.2107

                     25                     26                     27
                      A                      A                      A
 Frequencies --    494.9771               530.3239               545.6876
 Red. masses --      3.0205                 2.5809                 3.5637
 Frc consts  --      0.4360                 0.4277                 0.6252
 IR Inten    --     39.0948                 3.4180                21.9585

                     28                     29                     30
                      A                      A                      A
 Frequencies --    572.4388               596.7325               627.2646
 Red. masses --      2.4483                 2.6860                 3.3465
 Frc consts  --      0.4727                 0.5635                 0.7758
 IR Inten    --     23.8411                38.8632                 7.1120

                     31                     32                     33
                      A                      A                      A
 Frequencies --    663.9334               717.8427               756.1040
 Red. masses --      5.5580                 4.0879                 3.5929
 Frc consts  --      1.4435                 1.2411                 1.2102
 IR Inten    --      2.7436                 4.1882                 4.0868

                     34                     35                     36
                      A                      A                      A
 Frequencies --    790.1708               816.1499               823.0131
 Red. masses --      1.5483                 1.2627                 1.8255
 Frc consts  --      0.5696                 0.4956                 0.7285
 IR Inten    --      0.9532                 1.2770                 9.7581

                     37                     38                     39
                      A                      A                      A
 Frequencies --    837.3828               847.0231               891.1183
 Red. masses --      1.8217                 3.5105                 1.5737
 Frc consts  --      0.7526                 1.4839                 0.7363
 IR Inten    --     53.5646                 4.0476                 9.3019

                     40                     41                     42
                      A                      A                      A
 Frequencies --    893.8202               922.2343               933.0148
 Red. masses --      3.0161                 1.4300                 1.3021
 Frc consts  --      1.4197                 0.7166                 0.6679
 IR Inten    --     46.0395                25.1097                 1.1213

                     43                     44                     45
                      A                      A                      A
 Frequencies --    942.0502               980.8454              1025.6618
 Red. masses --      1.2797                 1.9272                 1.6745
 Frc consts  --      0.6691                 1.0924                 1.0379
 IR Inten    --      0.4986                 3.8600                11.7992

                     46                     47                     48
                      A                      A                      A
 Frequencies --   1030.2406              1039.7647              1060.6638
 Red. masses --      2.6222                 1.7639                 1.4423
 Frc consts  --      1.6398                 1.1236                 0.9560
 IR Inten    --      2.8503                10.1408                 9.7069

                     49                     50                     51
                      A                      A                      A
 Frequencies --   1079.8094              1091.0938              1100.2081
 Red. masses --      1.4921                 2.2975                 1.7796
 Frc consts  --      1.0251                 1.6115                 1.2692
 IR Inten    --     10.1053                 8.2570                24.8253

                     52                     53                     54
                      A                      A                      A
 Frequencies --   1114.0682              1135.3965              1161.3803
 Red. masses --      1.7541                 1.4005                 1.3278
 Frc consts  --      1.2827                 1.0637                 1.0552
 IR Inten    --      3.8362                10.1965                25.4931

                     55                     56                     57
                      A                      A                      A
 Frequencies --   1181.8215              1190.9220              1196.3174
 Red. masses --      2.0873                 1.5471                 1.7120
 Frc consts  --      1.7177                 1.2928                 1.4436
 IR Inten    --     86.6132                11.8511                10.9070

                     58                     59                     60
                      A                      A                      A
 Frequencies --   1209.8240              1245.4398              1262.8483
 Red. masses --      1.7259                 2.4519                 3.0229
 Frc consts  --      1.4883                 2.2407                 2.8404
 IR Inten    --     49.7198               169.5754               460.0004

                     61                     62                     63
                      A                      A                      A
 Frequencies --   1310.1629              1314.9894              1339.7607
 Red. masses --      1.3157                 2.9002                 1.4042
 Frc consts  --      1.3306                 2.9547                 1.4851
 IR Inten    --     10.5033                 4.0511                 4.5599

                     64                     65                     66
                      A                      A                      A
 Frequencies --   1346.0734              1365.7926              1371.8532
 Red. masses --      1.3741                 5.0794                 1.5342
 Frc consts  --      1.4669                 5.5825                 1.7012
 IR Inten    --     19.8665                42.3539                 1.2367

                     67                     68                     69
                      A                      A                      A
 Frequencies --   1421.7101              1437.7210              1442.4669
 Red. masses --      1.5678                 1.3570                 1.2343
 Frc consts  --      1.8670                 1.6526                 1.5132
 IR Inten    --      0.2587                 1.3821                15.6667

                     70                     71                     72
                      A                      A                      A
 Frequencies --   1446.2922              1455.6410              1490.4436
 Red. masses --      1.3332                 2.3428                 1.2217
 Frc consts  --      1.6431                 2.9248                 1.5990
 IR Inten    --     34.9915                 3.1828                12.7460

                     73                     74                     75
                      A                      A                      A
 Frequencies --   1503.4813              1506.9428              1513.0861
 Red. masses --      1.0489                 1.0473                 1.0886
 Frc consts  --      1.3969                 1.4012                 1.4685
 IR Inten    --      4.3118                 6.9728                21.8186

                     76                     77                     78
                      A                      A                      A
 Frequencies --   1517.8261              1520.8251              1526.8493
 Red. masses --      1.0720                 1.0612                 1.0482
 Frc consts  --      1.4550                 1.4461                 1.4398
 IR Inten    --      5.3763                 6.8951                 0.9086

                     79                     80                     81
                      A                      A                      A
 Frequencies --   1528.9389              1532.2031              1542.8306
 Red. masses --      1.0435                 1.5208                 1.0990
 Frc consts  --      1.4372                 2.1035                 1.5413
 IR Inten    --      5.7570                 3.5552                 7.2132

                     82                     83                     84
                      A                      A                      A
 Frequencies --   1554.9935              1567.8208              1644.4567
 Red. masses --      1.1021                 2.5360                 5.3984
 Frc consts  --      1.5701                 3.6728                 8.6012
 IR Inten    --      9.9331               452.5708                 5.4465

                     85                     86                     87
                      A                      A                      A
 Frequencies --   1683.0860              1700.0743              1742.4622
 Red. masses --      6.0206                 7.0030                 6.1391
 Frc consts  --     10.0485                11.9253                10.9819
 IR Inten    --      4.9234                79.4100                54.8688

                     88                     89                     90
                      A                      A                      A
 Frequencies --   2988.0647              3020.8034              3041.5225
 Red. masses --      1.0560                 1.0393                 1.0653
 Frc consts  --      5.5549                 5.5877                 5.8066
 IR Inten    --     97.6203                55.2650                55.3937

                     91                     92                     93
                      A                      A                      A
 Frequencies --   3048.7325              3051.2884              3062.5677
 Red. masses --      1.0352                 1.0412                 1.0986
 Frc consts  --      5.6692                 5.7117                 6.0713
 IR Inten    --     36.0595                24.7973                33.3150

                     94                     95                     96
                      A                      A                      A
 Frequencies --   3079.6371              3086.3505              3102.7801
 Red. masses --      1.0826                 1.0972                 1.0981
 Frc consts  --      6.0494                 6.1579                 6.2288
 IR Inten    --     42.9075                 7.4526                15.9008

                     97                     98                     99
                      A                      A                      A
 Frequencies --   3115.8535              3119.5445              3125.2358
 Red. masses --      1.1020                 1.0990                 1.1033
 Frc consts  --      6.3036                 6.3011                 6.3488
 IR Inten    --     47.7384                15.0619                52.1043

                    100                    101                    102
                      A                      A                      A
 Frequencies --   3137.2492              3155.4279              3167.8180
 Red. masses --      1.0995                 1.0941                 1.0908
 Frc consts  --      6.3760                 6.4184                 6.4493
 IR Inten    --     27.3188                 8.6154                33.0999

                    103                    104                    105
                      A                      A                      A
 Frequencies --   3172.5693              3196.8934              3206.3917
 Red. masses --      1.0885                 1.0874                 1.0885
 Frc consts  --      6.4550                 6.5476                 6.5932
 IR Inten    --     22.4866                15.8935                12.6988

                    106                    107                    108
                      A                      A                      A
 Frequencies --   3207.7458              3223.4061              3590.7672
 Red. masses --      1.0916                 1.0932                 1.0758
 Frc consts  --      6.6179                 6.6924                 8.1723
 IR Inten    --      4.7629                14.3539                 9.4637

 - Thermochemistry -
 -------------------
 Temperature   298.150 Kelvin.  Pressure   1.00000 Atm.
 Atom     1 has atomic number  6 and mass  12.00000

 Molecular mass:   231.16231 amu.
 Principal axes and moments of inertia in atomic units:
                           1         2         3
     Eigenvalues --  1516.06658********************
           X            0.99998  -0.00652   0.00073
           Y            0.00648   0.99910   0.04185
           Z           -0.00100  -0.04184   0.99912
 This molecule is an asymmetric top.
 Rotational symmetry number  1.
 Warning -- assumption of classical behavior for rotation
           may cause significant error
 Rotational temperatures (Kelvin)      0.05713     0.00747     0.00716
 Rotational constants (GHZ):           1.19041     0.15574     0.14911
 Zero-point vibrational energy     867138.1 (Joules/Mol)
                                  207.25099 (Kcal/Mol)
 Warning -- explicit consideration of  29 degrees of freedom as
           vibrations may cause significant error
 Vibrational temperatures:     22.66    42.26    57.38    64.93   119.69
          (Kelvin)            134.70   176.63   183.92   203.33   251.10
                              281.51   292.92   326.34   338.49   346.67
                              410.76   442.52   497.62   527.48   591.80
                              593.13   614.17   646.63   656.23   712.16
                              763.02   785.12   823.61   858.56   902.49
                              955.25  1032.82  1087.86  1136.88  1174.26
                             1184.13  1204.81  1218.68  1282.12  1286.01
                             1326.89  1342.40  1355.40  1411.22  1475.70
                             1482.29  1495.99  1526.06  1553.60  1569.84
                             1582.95  1602.90  1633.58  1670.97  1700.38
                             1713.47  1721.23  1740.67  1791.91  1816.96
                             1885.03  1891.98  1927.62  1936.70  1965.07
                             1973.79  2045.52  2068.56  2075.39  2080.89
                             2094.34  2144.42  2163.17  2168.15  2176.99
                             2183.81  2188.13  2196.80  2199.80  2204.50
                             2219.79  2237.29  2255.74  2366.01  2421.59
                             2446.03  2507.01  4299.16  4346.26  4376.07
                             4386.45  4390.12  4406.35  4430.91  4440.57
                             4464.21  4483.02  4488.33  4496.52  4513.80
                             4539.96  4557.78  4564.62  4599.62  4613.28
                             4615.23  4637.76  5166.31

 Zero-point correction=                           0.330275 (Hartree/Particle)
 Thermal correction to Energy=                    0.348960
 Thermal correction to Enthalpy=                  0.349904
 Thermal correction to Gibbs Free Energy=         0.281442
 Sum of electronic and zero-point Energies=           -713.922064
 Sum of electronic and thermal Energies=              -713.903380
 Sum of electronic and thermal Enthalpies=            -713.902436
 Sum of electronic and thermal Free Energies=         -713.970898

                     E (Thermal)             CV                S
                      KCal/Mol        Cal/Mol-Kelvin    Cal/Mol-Kelvin
 Total                  218.976             69.326            144.091
 Electronic               0.000              0.000              0.000
 Translational            0.889              2.981             42.216
 Rotational               0.889              2.981             33.719
 Vibrational            217.198             63.364             68.156
 Vibration     1          0.593              1.986              7.108
 Vibration     2          0.593              1.984              5.871
 Vibration     3          0.594              1.981              5.265
 Vibration     4          0.595              1.979              5.020
 Vibration     5          0.600              1.961              3.814
 Vibration     6          0.603              1.954              3.583
 Vibration     7          0.610              1.930              3.056
 Vibration     8          0.611              1.925              2.978
 Vibration     9          0.615              1.912              2.786
 Vibration    10          0.627              1.874              2.386
 Vibration    11          0.636              1.846              2.174
 Vibration    12          0.639              1.835              2.100
 Vibration    13          0.650              1.800              1.904
 Vibration    14          0.655              1.787              1.838
 Vibration    15          0.658              1.778              1.796
 Vibration    16          0.683              1.701              1.501
 Vibration    17          0.697              1.659              1.375
 Vibration    18          0.724              1.584              1.185
 Vibration    19          0.740              1.541              1.094
 Vibration    20          0.775              1.446              0.922
 Vibration    21          0.776              1.444              0.919
 Vibration    22          0.789              1.412              0.869
 Vibration    23          0.808              1.362              0.797
 Vibration    24          0.814              1.347              0.778
 Vibration    25          0.851              1.261              0.671
 Vibration    26          0.885              1.183              0.586
 Vibration    27          0.901              1.149              0.553
 Vibration    28          0.929              1.091              0.500
 Vibration    29          0.955              1.039              0.455

 Optimization completed.
    -- Stationary point found.
 Normal termination of Gaussian 16 at Fri Dec 11 13:27:14 2020.

 ----------------------------------------------------------------------
 # B3LYP/6-311++G(d,p) empiricaldispersion=gd3bj scf=xqc pop=npa geom=c
 heck
 ----------------------------------------------------------------------

 ---------------------------------------
 CID_141955824_JID_7824_Energie_neutraal
 ---------------------------------------
 Structure from the checkpoint file:  "JID_7824.chk"
 Charge =  0 Multiplicity = 1

 SCF Done:  E(RB3LYP) =  -714.448368601     A.U. after   15 cycles
 Normal termination of Gaussian 16 at Fri Dec 11 13:33:57 2020.

 ----------------------------------------------------------------------
 # B3LYP/6-311++G(d,p) empiricaldispersion=gd3bj scf=xqc pop=npa geom=c
 heck
 ----------------------------------------------------------------------

 -------------------------------------
 CID_141955824_JID_7824_Energie_kation
 -------------------------------------
 Structure from the checkpoint file:  "JID_7824.chk"
 Charge =  1 Multiplicity = 2

 SCF Done:  E(UB3LYP) =  -714.201211789     A.U. after   22 cycles
 Normal termination of Gaussian 16 at Fri Dec 11 13:47:52 2020.
 Gaussian 16:  ES64L-G16RevA.03 25-Dec-2016

 ----------------------------------------------------------------------
 # B3LYP/6-311++G(d,p) empiricaldispersion=gd3bj scf=xqc pop=npa geom=c
 heck
 ----------------------------------------------------------------------

 ------------------------------------
 CID_141955824_JID_7824_Energie_anion
 ------------------------------------
 Structure from the checkpoint file:  "JID_7824.chk"
 Charge = -1 Multiplicity = 2

                         Standard orientation:
 ---------------------------------------------------------------------
 Center     Atomic      Atomic             Coordinates (Angstroms)
 Number     Number       Type             X           Y           Z
 ---------------------------------------------------------------------
      1          6           0       -4.311142    2.417785    0.391354
      2          6           0       -4.641797    1.002736    0.898406
      3          6           0       -4.453339   -0.048360   -0.173202
      4          6           0       -3.289040   -0.698912   -0.381827
      5          6           0       -2.066060   -0.517960    0.375576
      6          6           0       -0.892698   -1.140353    0.154794
      7          6           0       -0.563294   -2.144558   -0.908614
      8          8           0        0.124837   -0.910344    1.073370
      9          6           0        1.333060   -0.430988    0.594148
     10          6           0        2.497619   -0.853034    1.227748
     11          6           0        3.738571   -0.363674    0.822063
     12          6           0        3.835549    0.558587   -0.233738
     13          6           0        2.647179    0.970423   -0.864671
     14          6           0        1.409807    0.489000   -0.454836
     15          7           0        5.056753    1.099664   -0.642213
     16          6           0        6.304623    0.466049   -0.263217
     17          6           0       -5.648506   -0.300610   -1.053168
     18          1           0       -3.258444    2.483736    0.096936
     19          1           0       -4.499400    3.168935    1.166862
     20          1           0       -4.918435    2.677521   -0.483161
     21          1           0       -4.023237    0.781105    1.774601
     22          1           0       -5.683608    0.980096    1.244855
     23          1           0       -3.259263   -1.417133   -1.199137
     24          1           0       -2.077129    0.175330    1.211690
     25          1           0        0.295501   -1.818744   -1.505912
     26          1           0       -0.288599   -3.100615   -0.445353
     27          1           0       -1.404342   -2.313401   -1.582874
     28          1           0        2.423272   -1.569872    2.039337
     29          1           0        4.631771   -0.709041    1.330308
     30          1           0        2.699155    1.690809   -1.678201
     31          1           0        0.498521    0.826590   -0.938949
     32          1           0        5.042624    1.434691   -1.596356
     33          1           0        6.350038   -0.606066   -0.518401
     34          1           0        7.126561    0.980655   -0.767341
     35          1           0        6.467913    0.562334    0.816176
     36          1           0       -6.492943   -0.694146   -0.469479
     37          1           0       -6.003305    0.629643   -1.519218
     38          1           0       -5.425806   -1.014129   -1.852752
 ---------------------------------------------------------------------

 SCF Done:  E(UB3LYP) =  -714.437731213     A.U. after   33 cycles
 SCF Done:  E(UB3LYP) =  -714.437731213     a.u. after    1 cycles

 The electronic state is 2-A.
 Alpha  occ. eigenvalues --  -19.06202 -14.22976 -10.13731 -10.13456 -10.12150
 Alpha  occ. eigenvalues --  -10.10541 -10.08555 -10.08538 -10.08501 -10.08452
 Alpha  occ. eigenvalues --  -10.08371 -10.08271 -10.08225 -10.07919 -10.07624
 Alpha  occ. eigenvalues --  -10.07440 -10.07395  -0.98064  -0.84302  -0.75845
 Alpha  occ. eigenvalues --   -0.73728  -0.70266  -0.66358  -0.65495  -0.64683
 Alpha  occ. eigenvalues --   -0.63059  -0.59661  -0.57440  -0.54341  -0.53087
 Alpha  occ. eigenvalues --   -0.51448  -0.47225  -0.44002  -0.43083  -0.42010
 Alpha  occ. eigenvalues --   -0.40815  -0.38880  -0.37474  -0.36229  -0.36102
 Alpha  occ. eigenvalues --   -0.35374  -0.34594  -0.33951  -0.33521  -0.32864
 Alpha  occ. eigenvalues --   -0.31984  -0.31167  -0.30918  -0.30176  -0.29546
 Alpha  occ. eigenvalues --   -0.29061  -0.28602  -0.28568  -0.27786  -0.25789
 Alpha  occ. eigenvalues --   -0.25537  -0.24560  -0.23708  -0.21063  -0.18926
 Alpha  occ. eigenvalues --   -0.16943  -0.12042  -0.10345   0.03723
 Alpha virt. eigenvalues --    0.04766   0.05964   0.06484   0.06761   0.06965
 Alpha virt. eigenvalues --    0.07250   0.08018   0.08145   0.08899   0.09206
 Alpha virt. eigenvalues --    0.09614   0.09710   0.10016   0.10429   0.10846

  Beta  occ. eigenvalues --  -19.06203 -14.22951 -10.13663 -10.13448 -10.12151
  Beta  occ. eigenvalues --  -10.10496 -10.08551 -10.08532 -10.08450 -10.08445
  Beta  occ. eigenvalues --  -10.08362 -10.08262 -10.08213 -10.07902 -10.07600
  Beta  occ. eigenvalues --  -10.07423 -10.07385  -0.98042  -0.84263  -0.75820
  Beta  occ. eigenvalues --   -0.73648  -0.70196  -0.66339  -0.65454  -0.64650
  Beta  occ. eigenvalues --   -0.63014  -0.59598  -0.57386  -0.54279  -0.53057
  Beta  occ. eigenvalues --   -0.51409  -0.47181  -0.43947  -0.43024  -0.41934
  Beta  occ. eigenvalues --   -0.40769  -0.38842  -0.37431  -0.36199  -0.36047
  Beta  occ. eigenvalues --   -0.35337  -0.34534  -0.33913  -0.33474  -0.32819
  Beta  occ. eigenvalues --   -0.31950  -0.31131  -0.30884  -0.30158  -0.29499
  Beta  occ. eigenvalues --   -0.29025  -0.28571  -0.28524  -0.27752  -0.25770
  Beta  occ. eigenvalues --   -0.25506  -0.24523  -0.23670  -0.20915  -0.18898
  Beta  occ. eigenvalues --   -0.16930  -0.11795  -0.10301
  Beta virt. eigenvalues --    0.05468   0.06065   0.06273   0.06743   0.07157
  Beta virt. eigenvalues --    0.07303   0.07511   0.08284   0.08463   0.08991
  Beta virt. eigenvalues --    0.09522   0.09819   0.09929   0.10185   0.10606

 Mulliken charges and spin densities:
               1          2
     1  C    0.284078  -0.906855
     2  C   -1.345850   0.961737
     3  C   -0.024115   0.564251
     4  C    0.289584  -0.711233
     5  C    0.029162  -0.066390
     6  C    0.300427  -0.054079
     7  C   -0.288993  -0.291519
     8  O    0.018061  -0.009040
     9  C   -0.148976  -0.414725
    10  C   -0.777013   0.472028
    11  C    1.567364  -1.234771
    12  C    0.026872  -0.543916
    13  C   -1.759795   1.461885
    14  C    0.967455  -0.517623
    15  N   -0.278460   0.197901
    16  C    0.956490  -1.372005
    17  C    0.482240  -1.062235
    18  H    0.026993   0.117222
    19  H   -0.137523   0.263481
    20  H   -0.020042   0.141806
    21  H   -0.093885   0.239931
    22  H   -0.194218   0.354497
    23  H    0.032681   0.002520
    24  H    0.263283  -0.071801
    25  H    0.120118   0.034112
    26  H    0.067973   0.108598
    27  H    0.038747   0.103657
    28  H   -0.031443   0.200281
    29  H    0.166438  -0.013243
    30  H   -0.352421   0.514556
    31  H    0.256610  -0.047103
    32  H   -0.152326   0.404002
    33  H   -0.135840   0.284850
    34  H   -0.845081   1.004047
    35  H   -0.119549   0.263091
    36  H   -0.152866   0.305112
    37  H    0.033305   0.105835
    38  H   -0.069485   0.211141
 Sum of Mulliken charges =  -1.00000   1.00000

 Dipole moment (field-independent basis, Debye):
    X=             -4.0250    Y=             -2.9747    Z=              0.9643  Tot=              5.0970
 Quadrupole moment (field-independent basis, Debye-Ang):
   XX=           -272.7429   YY=           -141.5936   ZZ=           -134.9771
   XY=            -11.4802   XZ=             19.1482   YZ=              1.8619

 Summary of Natural Population Analysis:

                                       Natural Population
                Natural  -----------------------------------------------
    Atom  No    Charge         Core      Valence    Rydberg      Total
 -----------------------------------------------------------------------
      C    1   -0.27961      0.99966     2.27558    0.00437     3.27961
      C    2   -0.20697      0.99960     2.19850    0.00888     3.20697
      C    3    0.01091      0.99951     1.97847    0.01111     2.98909
      C    4   -0.11275      0.99945     2.10543    0.00787     3.11275
      C    5   -0.13727      0.99945     2.12966    0.00816     3.13727
      C    6    0.17514      0.99940     1.81278    0.01267     2.82486
      C    7   -0.31581      0.99961     2.31197    0.00424     3.31581
      O    8   -0.27928      0.99984     3.26955    0.00990     4.27928
      C    9    0.13443      0.99934     1.85356    0.01267     2.86557
      C   10   -0.11139      0.99952     2.10263    0.00924     3.11139
      C   11   -0.12551      0.99953     2.11828    0.00770     3.12551
      C   12    0.08063      0.99949     1.90826    0.01162     2.91937
      C   13   -0.11235      0.99954     2.10273    0.01008     3.11235
      C   14   -0.12489      0.99952     2.11671    0.00867     3.12489
      N   15   -0.31258      0.99969     2.80063    0.01226     3.81258
      C   16   -0.18011      0.99966     2.17132    0.00914     3.18011
      C   17   -0.29363      0.99962     2.28910    0.00490     3.29363
      H   18    0.09877      0.00000     0.40004    0.00119     0.40123
      H   19    0.09702      0.00000     0.40176    0.00122     0.40298
      H   20    0.09461      0.00000     0.40417    0.00122     0.40539
      H   21    0.10082      0.00000     0.39787    0.00131     0.39918
      H   22    0.09883      0.00000     0.39959    0.00158     0.40117
      H   23    0.09184      0.00000     0.40659    0.00157     0.40816
      H   24    0.10383      0.00000     0.39441    0.00175     0.39617
      H   25    0.10947      0.00000     0.38930    0.00123     0.39053
      H   26    0.10644      0.00000     0.39210    0.00146     0.39356
      H   27    0.10496      0.00000     0.39424    0.00080     0.39504
      H   28    0.10446      0.00000     0.39446    0.00108     0.39554
      H   29    0.10347      0.00000     0.39550    0.00103     0.39653
      H   30    0.10124      0.00000     0.39768    0.00108     0.39876
      H   31    0.10810      0.00000     0.39021    0.00169     0.39190
      H   32    0.18615      0.00000     0.30905    0.00480     0.31385
      H   33    0.08559      0.00000     0.41263    0.00178     0.41441
      H   34    0.10359      0.00000     0.39377    0.00264     0.39641
      H   35    0.09117      0.00000     0.40735    0.00148     0.40883
      H   36    0.10177      0.00000     0.39626    0.00197     0.39823
      H   37    0.09911      0.00000     0.39940    0.00149     0.40089
      H   38    0.09981      0.00000     0.39928    0.00090     0.40019
 =======================================================================
   * Total *   -0.00000     16.99242    45.82083    0.18675    63.00000

 Normal termination of Gaussian 16 at Fri Dec 11 14:07:44 2020.
