 Gaussian 16, Revision A.03,

 -----------------------------------------------------------
 # opt freq B3LYP/6-31G(d) empiricaldispersion=gd3bj scf=xqc
 -----------------------------------------------------------

 ------------------------------
 CID_132189596_JID_100_neutraal
 ------------------------------
 Symbolic Z-matrix:
 Charge =  0 Multiplicity = 1

 SCF Done:  E(RB3LYP) =  -836.058695771     A.U. after   14 cycles
 SCF Done:  E(RB3LYP) =  -836.060860427     A.U. after   13 cycles
 SCF Done:  E(RB3LYP) =  -836.065007389     A.U. after   13 cycles
 SCF Done:  E(RB3LYP) =  -836.058714964     A.U. after   14 cycles
 SCF Done:  E(RB3LYP) =  -836.069773794     A.U. after   12 cycles
 SCF Done:  E(RB3LYP) =  -836.067774249     A.U. after   15 cycles
 SCF Done:  E(RB3LYP) =  -836.070645297     A.U. after   12 cycles
 SCF Done:  E(RB3LYP) =  -836.070922859     A.U. after   11 cycles
 SCF Done:  E(RB3LYP) =  -836.070996360     A.U. after   11 cycles
 SCF Done:  E(RB3LYP) =  -836.071031674     A.U. after   10 cycles
 SCF Done:  E(RB3LYP) =  -836.071056287     A.U. after   10 cycles
 SCF Done:  E(RB3LYP) =  -836.071076169     A.U. after   11 cycles
 SCF Done:  E(RB3LYP) =  -836.071083592     A.U. after   10 cycles
 SCF Done:  E(RB3LYP) =  -836.071086745     A.U. after    9 cycles
 SCF Done:  E(RB3LYP) =  -836.071086977     A.U. after    8 cycles
 Optimization completed.
    -- Stationary point found.
 Normal termination of Gaussian 16 at Tue Dec  8 10:18:39 2020.

 --------------------------------------------------------------------
 #N Geom=AllCheck Guess=TCheck SCRF=Check GenChk RB3LYP/6-31G(d) Freq
 --------------------------------------------------------------------

 Structure from the checkpoint file:  "JID_100.chk"
 ------------------------------
 CID_132189596_JID_100_neutraal
 ------------------------------
 Charge =  0 Multiplicity = 1

 SCF Done:  E(RB3LYP) =  -836.071086977     A.U. after    1 cycles

  Exact polarizability: 101.325  -6.892 105.938   6.172   1.585  70.059
 Approx polarizability: 133.428 -10.982 152.752  11.983   2.058 109.546

                      1                      2                      3
                      A                      A                      A
 Frequencies --     41.6881                54.8548                74.5450
 Red. masses --      3.6166                 4.7160                 3.4178
 Frc consts  --      0.0037                 0.0084                 0.0112
 IR Inten    --      0.9159                 6.3665                 3.4537

                      4                      5                      6
                      A                      A                      A
 Frequencies --     96.0103               111.6055               167.9086
 Red. masses --      4.2915                 2.6174                 2.7427
 Frc consts  --      0.0233                 0.0192                 0.0456
 IR Inten    --      0.5031                 3.5146                 2.5871

                      7                      8                      9
                      A                      A                      A
 Frequencies --    241.5438               248.6793               273.0099
 Red. masses --      3.6273                 2.4119                 1.9557
 Frc consts  --      0.1247                 0.0879                 0.0859
 IR Inten    --     10.6162                 2.9151                 0.4021

                     10                     11                     12
                      A                      A                      A
 Frequencies --    311.5986               362.7775               393.7630
 Red. masses --      2.0292                 2.1806                 4.4128
 Frc consts  --      0.1161                 0.1691                 0.4031
 IR Inten    --      0.7508                 5.0097                 1.6177

                     13                     14                     15
                      A                      A                      A
 Frequencies --    444.5711               475.5453               528.5284
 Red. masses --      1.1685                 2.1753                 2.7806
 Frc consts  --      0.1361                 0.2898                 0.4576
 IR Inten    --     35.3173                 8.4597                18.4595

                     16                     17                     18
                      A                      A                      A
 Frequencies --    559.4005               613.5471               628.2291
 Red. masses --      4.5517                 1.5150                 2.0979
 Frc consts  --      0.8392                 0.3360                 0.4878
 IR Inten    --     12.2512               101.4546               119.4111

                     19                     20                     21
                      A                      A                      A
 Frequencies --    641.9127               772.0662               820.3546
 Red. masses --      3.8043                 3.7485                 1.2362
 Frc consts  --      0.9236                 1.3165                 0.4902
 IR Inten    --      9.6103                 5.5779                12.1508

                     22                     23                     24
                      A                      A                      A
 Frequencies --    834.2850               847.2062               878.0193
 Red. masses --      2.5275                 1.5218                 1.3761
 Frc consts  --      1.0365                 0.6436                 0.6251
 IR Inten    --    102.9574                17.7611                81.4127

                     25                     26                     27
                      A                      A                      A
 Frequencies --    922.8730               934.5594               988.4260
 Red. masses --      2.1470                 2.2524                 1.9524
 Frc consts  --      1.0774                 1.1591                 1.1238
 IR Inten    --      6.0990                 1.4330                42.7348

                     28                     29                     30
                      A                      A                      A
 Frequencies --   1037.5711              1067.0314              1136.8548
 Red. masses --      2.0463                 3.3418                 1.5141
 Frc consts  --      1.2979                 2.2417                 1.1529
 IR Inten    --     12.0261                 9.1389                37.9152

                     31                     32                     33
                      A                      A                      A
 Frequencies --   1153.1398              1155.2004              1171.3072
 Red. masses --      2.1688                 2.7169                 1.5041
 Frc consts  --      1.6992                 2.1362                 1.2158
 IR Inten    --     25.7714                10.7754                13.6904

                     34                     35                     36
                      A                      A                      A
 Frequencies --   1218.4294              1269.5395              1306.8877
 Red. masses --      1.2229                 1.3754                 1.1568
 Frc consts  --      1.0697                 1.3061                 1.1641
 IR Inten    --     17.5297                27.3100                 1.3928

                     37                     38                     39
                      A                      A                      A
 Frequencies --   1343.6307              1381.7324              1394.1731
 Red. masses --      1.2208                 1.2428                 1.3712
 Frc consts  --      1.2985                 1.3980                 1.5703
 IR Inten    --      7.2807                 4.0085                52.8456

                     40                     41                     42
                      A                      A                      A
 Frequencies --   1442.9074              1446.6650              1449.3778
 Red. masses --      1.2098                 1.4036                 2.0775
 Frc consts  --      1.4840                 1.7308                 2.5713
 IR Inten    --      9.5633                52.1546               141.3319

                     43                     44                     45
                      A                      A                      A
 Frequencies --   1490.0289              1521.9522              1523.2357
 Red. masses --      1.0857                 1.0455                 1.1782
 Frc consts  --      1.4202                 1.4269                 1.6106
 IR Inten    --      7.4120                 0.5637                32.5989

                     46                     47                     48
                      A                      A                      A
 Frequencies --   1532.6761              1540.4641              1550.0239
 Red. masses --      1.0626                 1.1890                 1.1474
 Frc consts  --      1.4707                 1.6624                 1.6242
 IR Inten    --      9.0506                16.8526                 5.7823

                     49                     50                     51
                      A                      A                      A
 Frequencies --   1656.6265              1802.3443              3011.0177
 Red. masses --      1.2073                 5.6199                 1.0712
 Frc consts  --      1.9522                10.7561                 5.7218
 IR Inten    --    144.6427               350.1673                66.4452

                     52                     53                     54
                      A                      A                      A
 Frequencies --   3043.9077              3059.2732              3069.1221
 Red. masses --      1.0412                 1.0608                 1.0602
 Frc consts  --      5.6838                 5.8497                 5.8839
 IR Inten    --     34.1693                10.9709                50.4294

                     55                     56                     57
                      A                      A                      A
 Frequencies --   3101.5611              3106.9298              3116.6066
 Red. masses --      1.0925                 1.1052                 1.0972
 Frc consts  --      6.1922                 6.2860                 6.2792
 IR Inten    --     11.9800                13.2358                26.4960

                     58                     59                     60
                      A                      A                      A
 Frequencies --   3120.2198              3150.9832              3474.6019
 Red. masses --      1.1039                 1.1025                 1.0748
 Frc consts  --      6.3321                 6.4492                 7.6449
 IR Inten    --     31.7690                 6.6275               182.8958

                     61                     62                     63
                      A                      A                      A
 Frequencies --   3510.1497              3558.2628              3668.4327
 Red. masses --      1.0748                 1.0476                 1.0990
 Frc consts  --      7.8026                 7.8152                 8.7141
 IR Inten    --      4.4394                17.7890                21.1516

 - Thermochemistry -
 -------------------
 Temperature   298.150 Kelvin.  Pressure   1.00000 Atm.
 Atom     1 has atomic number  6 and mass  12.00000

 Molecular mass:   163.07793 amu.
 Principal axes and moments of inertia in atomic units:
                           1         2         3
     Eigenvalues --  1397.542932002.969093069.51004
           X            0.98925  -0.14617   0.00534
           Y            0.14616   0.98926   0.00162
           Z           -0.00551  -0.00082   0.99998
 This molecule is an asymmetric top.
 Rotational symmetry number  1.
 Warning -- assumption of classical behavior for rotation
           may cause significant error
 Rotational temperatures (Kelvin)      0.06198     0.04324     0.02822
 Rotational constants (GHZ):           1.29137     0.90103     0.58796
 Zero-point vibrational energy     519480.6 (Joules/Mol)
                                  124.15885 (Kcal/Mol)
 Warning -- explicit consideration of  17 degrees of freedom as
           vibrations may cause significant error
 Vibrational temperatures:     59.98    78.92   107.25   138.14   160.58
          (Kelvin)            241.58   347.53   357.79   392.80   448.32
                              521.96   566.54   639.64   684.20   760.43
                              804.85   882.76   903.88   923.57  1110.83
                             1180.31  1200.35  1218.94  1263.27  1327.81
                             1344.62  1422.12  1492.83  1535.22  1635.68
                             1659.11  1662.08  1685.25  1753.05  1826.58
                             1880.32  1933.18  1988.00  2005.90  2076.02
                             2081.43  2085.33  2143.82  2189.75  2191.60
                             2205.18  2216.38  2230.14  2383.52  2593.17
                             4332.18  4379.50  4401.61  4415.78  4462.45
                             4470.18  4484.10  4489.30  4533.56  4999.18
                             5050.32  5119.55  5278.06

 Zero-point correction=                           0.197860 (Hartree/Particle)
 Thermal correction to Energy=                    0.209809
 Thermal correction to Enthalpy=                  0.210754
 Thermal correction to Gibbs Free Energy=         0.158915
 Sum of electronic and zero-point Energies=           -835.873227
 Sum of electronic and thermal Energies=              -835.861278
 Sum of electronic and thermal Enthalpies=            -835.860333
 Sum of electronic and thermal Free Energies=         -835.912172

                     E (Thermal)             CV                S
                      KCal/Mol        Cal/Mol-Kelvin    Cal/Mol-Kelvin
 Total                  131.657             43.038            109.103
 Electronic               0.000              0.000              0.000
 Translational            0.889              2.981             41.176
 Rotational               0.889              2.981             30.531
 Vibrational            129.880             37.076             37.397
 Vibration     1          0.594              1.981              5.177
 Vibration     2          0.596              1.976              4.634
 Vibration     3          0.599              1.966              4.030
 Vibration     4          0.603              1.952              3.534
 Vibration     5          0.607              1.940              3.241
 Vibration     6          0.625              1.882              2.459
 Vibration     7          0.658              1.777              1.791
 Vibration     8          0.662              1.765              1.740
 Vibration     9          0.676              1.723              1.577
 Vibration    10          0.700              1.652              1.354
 Vibration    11          0.737              1.549              1.110
 Vibration    12          0.761              1.484              0.986
 Vibration    13          0.804              1.373              0.812
 Vibration    14          0.832              1.304              0.722
 Vibration    15          0.883              1.187              0.590
 Vibration    16          0.915              1.119              0.525
 Vibration    17          0.973              1.003              0.427

 Optimization completed.
    -- Stationary point found.
 Normal termination of Gaussian 16 at Tue Dec  8 10:22:44 2020.

 ----------------------------------------------------------------------
 # B3LYP/6-311++G(d,p) empiricaldispersion=gd3bj scf=xqc pop=npa geom=c
 heck
 ----------------------------------------------------------------------

 --------------------------------------
 CID_132189596_JID_100_Energie_neutraal
 --------------------------------------
 Structure from the checkpoint file:  "JID_100.chk"
 Charge =  0 Multiplicity = 1

 SCF Done:  E(RB3LYP) =  -836.242591412     A.U. after   13 cycles
 Normal termination of Gaussian 16 at Tue Dec  8 10:24:07 2020.

 ----------------------------------------------------------------------
 # B3LYP/6-311++G(d,p) empiricaldispersion=gd3bj scf=xqc pop=npa geom=c
 heck
 ----------------------------------------------------------------------

 ------------------------------------
 CID_132189596_JID_100_Energie_kation
 ------------------------------------
 Structure from the checkpoint file:  "JID_100.chk"
 Charge =  1 Multiplicity = 2

 SCF Done:  E(UB3LYP) =  -835.942900097     A.U. after   24 cycles
 Normal termination of Gaussian 16 at Tue Dec  8 10:27:27 2020.
 Gaussian 16:  ES64L-G16RevA.03 25-Dec-2016

 ----------------------------------------------------------------------
 # B3LYP/6-311++G(d,p) empiricaldispersion=gd3bj scf=xqc pop=npa geom=c
 heck
 ----------------------------------------------------------------------

 -----------------------------------
 CID_132189596_JID_100_Energie_anion
 -----------------------------------
 Structure from the checkpoint file:  "JID_100.chk"
 Charge = -1 Multiplicity = 2

                         Standard orientation:
 ---------------------------------------------------------------------
 Center     Atomic      Atomic             Coordinates (Angstroms)
 Number     Number       Type             X           Y           Z
 ---------------------------------------------------------------------
      1          6           0       -1.832420    2.473228   -0.158766
      2          6           0       -1.947970    1.113590    0.522317
      3          7           0       -1.626597    0.047972   -0.445278
      4         16           0       -1.631659   -1.580780    0.191807
      5          6           0        0.154686   -1.839612    0.522731
      6          6           0        1.091430   -1.529879   -0.652044
      7          7           0        1.228437   -0.098770   -0.914185
      8          6           0        1.908872    0.750234   -0.060296
      9          8           0        1.568465    1.915721    0.119196
     10          7           0        3.005699    0.199705    0.598172
     11          1           0       -0.801666    2.642015   -0.482161
     12          1           0       -2.111483    3.268666    0.540757
     13          1           0       -2.502273    2.543947   -1.025720
     14          1           0       -1.210774    1.044498    1.327798
     15          1           0       -2.943146    0.973145    0.971025
     16          1           0       -2.271130    0.065634   -1.233363
     17          1           0        0.461098   -1.261750    1.400310
     18          1           0        0.207676   -2.902621    0.789202
     19          1           0        2.074791   -1.966910   -0.447700
     20          1           0        0.716843   -2.005144   -1.564172
     21          1           0        0.318249    0.307054   -1.131950
     22          1           0        3.535564   -0.505888    0.101641
     23          1           0        3.584711    0.916345    1.017240
 ---------------------------------------------------------------------

 SCF Done:  E(UB3LYP) =  -836.230179269     A.U. after   30 cycles

 The electronic state is 2-A.
 Alpha  occ. eigenvalues --  -88.75918 -18.97204 -14.22825 -14.21111 -14.20906
 Alpha  occ. eigenvalues --  -10.18175 -10.10295 -10.09727 -10.09678 -10.05783
 Alpha  occ. eigenvalues --   -7.84313  -5.80815  -5.80346  -5.79605  -0.93490
 Alpha  occ. eigenvalues --   -0.82163  -0.80969  -0.77532  -0.68293  -0.64009
 Alpha  occ. eigenvalues --   -0.57767  -0.52211  -0.50128  -0.48115  -0.43047
 Alpha  occ. eigenvalues --   -0.39266  -0.38198  -0.37027  -0.35839  -0.33901
 Alpha  occ. eigenvalues --   -0.33109  -0.31254  -0.30983  -0.29226  -0.28121
 Alpha  occ. eigenvalues --   -0.27562  -0.26591  -0.25305  -0.23812  -0.17385
 Alpha  occ. eigenvalues --   -0.16579  -0.15411  -0.14610  -0.11943   0.04625
 Alpha virt. eigenvalues --    0.06357   0.08077   0.08451   0.09425   0.09748
 Alpha virt. eigenvalues --    0.10511   0.10915   0.11984   0.12566   0.12842
 Alpha virt. eigenvalues --    0.13532   0.14233   0.14692   0.15086   0.15814

  Beta  occ. eigenvalues --  -88.75908 -18.97194 -14.22783 -14.21037 -14.20900
  Beta  occ. eigenvalues --  -10.18170 -10.10250 -10.09712 -10.09666 -10.05762
  Beta  occ. eigenvalues --   -7.84304  -5.80789  -5.80338  -5.79597  -0.93469
  Beta  occ. eigenvalues --   -0.82119  -0.80913  -0.77433  -0.68240  -0.63954
  Beta  occ. eigenvalues --   -0.57687  -0.52152  -0.50055  -0.48032  -0.42942
  Beta  occ. eigenvalues --   -0.39211  -0.38147  -0.36964  -0.35774  -0.33854
  Beta  occ. eigenvalues --   -0.33056  -0.31226  -0.30929  -0.29191  -0.28079
  Beta  occ. eigenvalues --   -0.27527  -0.26540  -0.25248  -0.23772  -0.17329
  Beta  occ. eigenvalues --   -0.16526  -0.15366  -0.14591  -0.11909
  Beta virt. eigenvalues --    0.07059   0.07903   0.08732   0.08895   0.09626
  Beta virt. eigenvalues --    0.10426   0.11092   0.11244   0.12180   0.12818
  Beta virt. eigenvalues --    0.13292   0.13853   0.14349   0.14766   0.15415

 Mulliken charges and spin densities:
               1          2
     1  C    0.137036  -0.659208
     2  C   -0.016958  -0.147153
     3  N   -0.354155   0.012639
     4  S    0.239941  -0.202513
     5  C   -0.904358   0.570312
     6  C    1.288034  -1.755048
     7  N   -0.123789   0.072469
     8  C    0.827548  -0.855276
     9  O   -0.391341   0.009516
    10  N   -0.522642   0.175252
    11  H    0.205680  -0.014848
    12  H    0.028049   0.087041
    13  H   -0.203822   0.324812
    14  H    0.121389   0.029895
    15  H   -0.187359   0.321810
    16  H   -0.063192   0.359013
    17  H    0.173005   0.026874
    18  H   -0.279658   0.487322
    19  H   -0.699199   0.835342
    20  H   -0.161207   0.341289
    21  H    0.413462  -0.082790
    22  H   -0.400185   0.656136
    23  H   -0.126280   0.407113
 Sum of Mulliken charges =  -1.00000   1.00000

 Dipole moment (field-independent basis, Debye):
    X=             -4.8003    Y=              1.1481    Z=              0.9627  Tot=              5.0287
 Quadrupole moment (field-independent basis, Debye-Ang):
   XX=           -135.9395   YY=           -111.0064   ZZ=            -93.2626
   XY=              8.7760   XZ=             -3.4372   YZ=             -0.1735

 Summary of Natural Population Analysis:

                                       Natural Population
                Natural  -----------------------------------------------
    Atom  No    Charge         Core      Valence    Rydberg      Total
 -----------------------------------------------------------------------
      C    1   -0.29581      0.99965     2.29000    0.00616     3.29581
      C    2   -0.08677      0.99964     2.07498    0.01216     3.08677
      N    3   -0.41008      0.99976     2.89550    0.01483     3.91008
      S    4    0.16937      4.99962     2.81053    0.02048     7.83063
      C    5   -0.26055      0.99958     2.25033    0.01064     3.26055
      C    6   -0.09563      0.99960     2.08201    0.01402     3.09563
      N    7   -0.34504      0.99968     2.83346    0.01191     3.84504
      C    8    0.40262      0.99972     1.57372    0.02393     2.59738
      O    9   -0.34402      0.99987     3.33840    0.00575     4.34402
      N   10   -0.41867      0.99972     2.90971    0.00925     3.91867
      H   11    0.11600      0.00000     0.38275    0.00125     0.38400
      H   12    0.09816      0.00000     0.40116    0.00067     0.40184
      H   13    0.09367      0.00000     0.40524    0.00109     0.40633
      H   14    0.09591      0.00000     0.40261    0.00149     0.40409
      H   15    0.08175      0.00000     0.41646    0.00179     0.41825
      H   16    0.18649      0.00000     0.30993    0.00358     0.31351
      H   17    0.10340      0.00000     0.39487    0.00173     0.39660
      H   18    0.10896      0.00000     0.38953    0.00151     0.39104
      H   19    0.10528      0.00000     0.38995    0.00478     0.39472
      H   20    0.09843      0.00000     0.40006    0.00151     0.40157
      H   21    0.20749      0.00000     0.28893    0.00358     0.29251
      H   22    0.19593      0.00000     0.29309    0.01098     0.30407
      H   23    0.19312      0.00000     0.30473    0.00215     0.30688
 =======================================================================
   * Total *   -0.00000     13.99684    29.83794    0.16522    44.00000

 Normal termination of Gaussian 16 at Tue Dec  8 10:31:34 2020.
