 Gaussian 16, Revision A.03,

 -----------------------------------------------------------
 # opt freq B3LYP/6-31G(d) empiricaldispersion=gd3bj scf=xqc
 -----------------------------------------------------------

 -------------------------------
 CID_104081212_JID_3804_neutraal
 -------------------------------
 Symbolic Z-matrix:
 Charge =  0 Multiplicity = 1

 SCF Done:  E(RB3LYP) =  -1246.09998985     A.U. after   13 cycles
 SCF Done:  E(RB3LYP) =  -1246.09601725     A.U. after   11 cycles
 SCF Done:  E(RB3LYP) =  -1246.10436738     A.U. after   11 cycles
 SCF Done:  E(RB3LYP) =  -1246.10496056     A.U. after   12 cycles
 SCF Done:  E(RB3LYP) =  -1246.10502366     A.U. after   11 cycles
 SCF Done:  E(RB3LYP) =  -1246.10510380     A.U. after   12 cycles
 SCF Done:  E(RB3LYP) =  -1246.10554214     A.U. after   10 cycles
 SCF Done:  E(RB3LYP) =  -1246.10559653     A.U. after   10 cycles
 SCF Done:  E(RB3LYP) =  -1246.10561166     A.U. after   10 cycles
 SCF Done:  E(RB3LYP) =  -1246.10563099     A.U. after    9 cycles
 SCF Done:  E(RB3LYP) =  -1246.10563567     A.U. after    9 cycles
 SCF Done:  E(RB3LYP) =  -1246.10563769     A.U. after    8 cycles
 SCF Done:  E(RB3LYP) =  -1246.10563826     A.U. after    7 cycles
 SCF Done:  E(RB3LYP) =  -1246.10563835     A.U. after    6 cycles
 Optimization completed.
    -- Stationary point found.
 Normal termination of Gaussian 16 at Sun Dec 13 20:03:32 2020.

 --------------------------------------------------------------------
 #N Geom=AllCheck Guess=TCheck SCRF=Check GenChk RB3LYP/6-31G(d) Freq
 --------------------------------------------------------------------

 Structure from the checkpoint file:  "JID_3804.chk"
 -------------------------------
 CID_104081212_JID_3804_neutraal
 -------------------------------
 Charge =  0 Multiplicity = 1

 SCF Done:  E(RB3LYP) =  -1246.10563835     A.U. after    1 cycles

  Exact polarizability: 171.181  -7.963 151.839   3.487  -2.247 119.045
 Approx polarizability: 216.480 -10.157 211.231   6.052  -6.321 189.838

                      1                      2                      3
                      A                      A                      A
 Frequencies --     18.0253                31.6727                46.7243
 Red. masses --      4.2645                 3.0855                 4.9529
 Frc consts  --      0.0008                 0.0018                 0.0064
 IR Inten    --      0.6773                 0.7890                 0.5531

                      4                      5                      6
                      A                      A                      A
 Frequencies --     64.9950                71.3039                92.4543
 Red. masses --      3.5372                 4.5803                 2.9731
 Frc consts  --      0.0088                 0.0137                 0.0150
 IR Inten    --      0.7509                 1.1014                 0.8068

                      7                      8                      9
                      A                      A                      A
 Frequencies --    103.7085               112.9830               151.8654
 Red. masses --      2.3381                 2.4770                 2.2638
 Frc consts  --      0.0148                 0.0186                 0.0308
 IR Inten    --      1.2878                 0.3197                 0.7577

                     10                     11                     12
                      A                      A                      A
 Frequencies --    164.9153               174.9967               202.8711
 Red. masses --      2.5182                 1.3936                 2.2808
 Frc consts  --      0.0404                 0.0251                 0.0553
 IR Inten    --      0.4245                 0.2793                 1.4340

                     13                     14                     15
                      A                      A                      A
 Frequencies --    229.0083               239.9708               265.0313
 Red. masses --      2.4543                 2.1706                 2.0778
 Frc consts  --      0.0758                 0.0736                 0.0860
 IR Inten    --      0.7308                 0.4669                 1.3254

                     16                     17                     18
                      A                      A                      A
 Frequencies --    276.5032               298.4573               345.4891
 Red. masses --      1.3620                 2.5743                 2.5647
 Frc consts  --      0.0614                 0.1351                 0.1804
 IR Inten    --      0.8847                 1.9339                 5.5449

                     19                     20                     21
                      A                      A                      A
 Frequencies --    357.0234               366.6224               421.7447
 Red. masses --      2.9143                 2.2241                 2.2647
 Frc consts  --      0.2189                 0.1761                 0.2373
 IR Inten    --      1.2862                 0.6312                 1.8408

                     22                     23                     24
                      A                      A                      A
 Frequencies --    482.1657               552.0225               635.0806
 Red. masses --      2.2431                 2.4827                 3.8369
 Frc consts  --      0.3073                 0.4458                 0.9118
 IR Inten    --      0.2232                 2.3768                 2.1596

                     25                     26                     27
                      A                      A                      A
 Frequencies --    679.8717               695.4188               715.4677
 Red. masses --      4.2622                 2.4634                 1.5289
 Frc consts  --      1.1608                 0.7019                 0.4611
 IR Inten    --      1.7983                12.5329                32.1407

                     28                     29                     30
                      A                      A                      A
 Frequencies --    735.5694               758.9326               763.1851
 Red. masses --      1.6833                 2.4604                 1.5093
 Frc consts  --      0.5366                 0.8349                 0.5179
 IR Inten    --     26.7499                 2.4229                 6.3738

                     31                     32                     33
                      A                      A                      A
 Frequencies --    784.1769               812.0405               862.6929
 Red. masses --      1.3539                 1.5406                 2.6228
 Frc consts  --      0.4905                 0.5985                 1.1501
 IR Inten    --     12.8373                 8.7618                 8.7806

                     34                     35                     36
                      A                      A                      A
 Frequencies --    893.2892               918.5785               961.4560
 Red. masses --      2.5315                 1.7266                 1.5377
 Frc consts  --      1.1902                 0.8584                 0.8375
 IR Inten    --      8.6013                 3.4539                 1.2138

                     37                     38                     39
                      A                      A                      A
 Frequencies --    978.7602               989.4293               997.1615
 Red. masses --      1.6277                 1.2167                 1.9907
 Frc consts  --      0.9187                 0.7018                 1.1662
 IR Inten    --      3.3526                 4.5656                 6.8378

                     40                     41                     42
                      A                      A                      A
 Frequencies --   1022.8013              1050.0909              1056.2209
 Red. masses --      1.6487                 1.5304                 1.7284
 Frc consts  --      1.0162                 0.9943                 1.1360
 IR Inten    --      4.4899                10.9717                 4.5144

                     43                     44                     45
                      A                      A                      A
 Frequencies --   1075.5131              1085.8830              1089.8205
 Red. masses --      1.6047                 1.8252                 2.3647
 Frc consts  --      1.0937                 1.2680                 1.6547
 IR Inten    --      1.1729                 1.8725                 4.3842

                     46                     47                     48
                      A                      A                      A
 Frequencies --   1106.2648              1128.8354              1153.9947
 Red. masses --      2.3399                 1.9078                 1.8625
 Frc consts  --      1.6872                 1.4323                 1.4614
 IR Inten    --      0.8929                 0.5047                39.7792

                     49                     50                     51
                      A                      A                      A
 Frequencies --   1191.4282              1197.9347              1224.8211
 Red. masses --      1.4133                 1.1925                 1.2909
 Frc consts  --      1.1820                 1.0082                 1.1410
 IR Inten    --     23.7346                 9.4895                 3.2097

                     52                     53                     54
                      A                      A                      A
 Frequencies --   1270.8403              1292.6150              1301.2998
 Red. masses --      1.3219                 1.2018                 1.2358
 Frc consts  --      1.2579                 1.1831                 1.2329
 IR Inten    --      6.2796                 3.8442                 1.6801

                     55                     56                     57
                      A                      A                      A
 Frequencies --   1308.0978              1318.3724              1336.0660
 Red. masses --      1.2272                 1.2607                 1.1951
 Frc consts  --      1.2372                 1.2910                 1.2569
 IR Inten    --     16.9559                19.6359                 8.0460

                     58                     59                     60
                      A                      A                      A
 Frequencies --   1341.9669              1358.2730              1389.4161
 Red. masses --      1.2042                 1.1683                 1.1949
 Frc consts  --      1.2777                 1.2699                 1.3591
 IR Inten    --      5.6943                 6.2714                 2.7585

                     61                     62                     63
                      A                      A                      A
 Frequencies --   1392.1537              1398.4547              1409.0922
 Red. masses --      1.3274                 1.3782                 1.3937
 Frc consts  --      1.5157                 1.5881                 1.6304
 IR Inten    --      8.3689                12.9027                 6.4162

                     64                     65                     66
                      A                      A                      A
 Frequencies --   1417.4256              1426.7537              1440.8799
 Red. masses --      1.3444                 1.3396                 1.2206
 Frc consts  --      1.5914                 1.6067                 1.4931
 IR Inten    --      7.0440                 0.9330                 4.5501

                     67                     68                     69
                      A                      A                      A
 Frequencies --   1492.2469              1494.8948              1499.4693
 Red. masses --      1.0999                 1.0799                 1.0802
 Frc consts  --      1.4431                 1.4219                 1.4310
 IR Inten    --      6.5368                 3.8554                12.6390

                     70                     71                     72
                      A                      A                      A
 Frequencies --   1501.0954              1501.8129              1509.8637
 Red. masses --      1.0940                 1.0715                 1.0830
 Frc consts  --      1.4524                 1.4239                 1.4546
 IR Inten    --      6.3972                 6.4887                 5.0065

                     73                     74                     75
                      A                      A                      A
 Frequencies --   1515.0349              1516.1483              1520.7823
 Red. masses --      1.0962                 1.0606                 1.1136
 Frc consts  --      1.4825                 1.4364                 1.5175
 IR Inten    --      2.1007                10.8065                 3.0382

                     76                     77                     78
                      A                      A                      A
 Frequencies --   1527.6471              1531.2091              1534.1948
 Red. masses --      1.0919                 1.0687                 1.0605
 Frc consts  --      1.5013                 1.4762                 1.4706
 IR Inten    --     10.6941                 7.5515                 5.8362

                     79                     80                     81
                      A                      A                      A
 Frequencies --   1543.1527              2980.6811              3029.3067
 Red. masses --      1.0994                 1.0713                 1.0628
 Frc consts  --      1.5425                 5.6077                 5.7464
 IR Inten    --     19.3566                39.3714                20.0414

                     82                     83                     84
                      A                      A                      A
 Frequencies --   3038.5292              3042.7869              3048.8943
 Red. masses --      1.0622                 1.0608                 1.0364
 Frc consts  --      5.7781                 5.7866                 5.6761
 IR Inten    --     28.4458                30.4870                 9.4113

                     85                     86                     87
                      A                      A                      A
 Frequencies --   3052.5653              3059.1469              3062.8389
 Red. masses --      1.0627                 1.0418                 1.0690
 Frc consts  --      5.8341                 5.7440                 5.9084
 IR Inten    --     38.8984                 8.5629                18.2384

                     88                     89                     90
                      A                      A                      A
 Frequencies --   3068.8077              3070.3429              3077.4631
 Red. masses --      1.0867                 1.0874                 1.0655
 Frc consts  --      6.0297                 6.0398                 5.9457
 IR Inten    --     16.4199                55.7784                14.5178

                     91                     92                     93
                      A                      A                      A
 Frequencies --   3079.4962              3084.5234              3089.0152
 Red. masses --      1.0626                 1.1021                 1.0973
 Frc consts  --      5.9373                 6.1782                 6.1691
 IR Inten    --     18.0039                60.1480                36.3770

                     94                     95                     96
                      A                      A                      A
 Frequencies --   3098.6626              3108.1649              3117.1697
 Red. masses --      1.0961                 1.0985                 1.1032
 Frc consts  --      6.2008                 6.2525                 6.3160
 IR Inten    --     24.8771                27.0968                43.1167

                     97                     98                     99
                      A                      A                      A
 Frequencies --   3121.9488              3123.9465              3139.6554
 Red. masses --      1.1028                 1.1037                 1.1036
 Frc consts  --      6.3327                 6.3461                 6.4096
 IR Inten    --      6.1793                15.1340                23.5435

                    100                    101                    102
                      A                      A                      A
 Frequencies --   3139.9964              3156.4288              3521.3887
 Red. masses --      1.1057                 1.1039                 1.0732
 Frc consts  --      6.4234                 6.4800                 7.8405
 IR Inten    --     25.4835                 7.8725                 0.3283

 - Thermochemistry -
 -------------------
 Temperature   298.150 Kelvin.  Pressure   1.00000 Atm.
 Atom     1 has atomic number  6 and mass  12.00000

 Molecular mass:   221.12719 amu.
 Principal axes and moments of inertia in atomic units:
                           1         2         3
     Eigenvalues --  2364.070855775.065567430.73587
           X            0.99988  -0.00694   0.01355
           Y            0.00682   0.99994   0.00879
           Z           -0.01361  -0.00869   0.99987
 This molecule is an asymmetric top.
 Rotational symmetry number  1.
 Warning -- assumption of classical behavior for rotation
           may cause significant error
 Rotational temperatures (Kelvin)      0.03664     0.01500     0.01166
 Rotational constants (GHZ):           0.76340     0.31251     0.24288
 Zero-point vibrational energy     855547.0 (Joules/Mol)
                                  204.48065 (Kcal/Mol)
 Warning -- explicit consideration of  23 degrees of freedom as
           vibrations may cause significant error
 Vibrational temperatures:     25.93    45.57    67.23    93.51   102.59
          (Kelvin)            133.02   149.21   162.56   218.50   237.28
                              251.78   291.89   329.49   345.26   381.32
                              397.83   429.41   497.08   513.68   527.49
                              606.80   693.73   794.24   913.74   978.18
                             1000.55  1029.40  1058.32  1091.93  1098.05
                             1128.26  1168.35  1241.22  1285.24  1321.63
                             1383.32  1408.22  1423.57  1434.69  1471.58
                             1510.85  1519.67  1547.42  1562.34  1568.01
                             1591.67  1624.14  1660.34  1714.20  1723.56
                             1762.24  1828.46  1859.78  1872.28  1882.06
                             1896.84  1922.30  1930.79  1954.25  1999.06
                             2003.00  2012.06  2027.37  2039.36  2052.78
                             2073.10  2147.01  2150.82  2157.40  2159.74
                             2160.77  2172.36  2179.80  2181.40  2188.07
                             2197.94  2203.07  2207.36  2220.25  4288.54
                             4358.50  4371.77  4377.89  4386.68  4391.96
                             4401.43  4406.74  4415.33  4417.54  4427.78
                             4430.71  4437.94  4444.40  4458.28  4471.96
                             4484.91  4491.79  4494.66  4517.26  4517.75
                             4541.40  5066.49

 Zero-point correction=                           0.325861 (Hartree/Particle)
 Thermal correction to Energy=                    0.343375
 Thermal correction to Enthalpy=                  0.344319
 Thermal correction to Gibbs Free Energy=         0.278179
 Sum of electronic and zero-point Energies=          -1245.779778
 Sum of electronic and thermal Energies=             -1245.762263
 Sum of electronic and thermal Enthalpies=           -1245.761319
 Sum of electronic and thermal Free Energies=        -1245.827460

                     E (Thermal)             CV                S
                      KCal/Mol        Cal/Mol-Kelvin    Cal/Mol-Kelvin
 Total                  215.471             62.550            139.204
 Electronic               0.000              0.000              0.000
 Translational            0.889              2.981             42.083
 Rotational               0.889              2.981             32.984
 Vibrational            213.694             56.589             64.137
 Vibration     1          0.593              1.986              6.841
 Vibration     2          0.594              1.983              5.722
 Vibration     3          0.595              1.979              4.951
 Vibration     4          0.597              1.971              4.299
 Vibration     5          0.598              1.968              4.117
 Vibration     6          0.602              1.955              3.607
 Vibration     7          0.605              1.946              3.383
 Vibration     8          0.607              1.939              3.217
 Vibration     9          0.619              1.901              2.649
 Vibration    10          0.623              1.886              2.493
 Vibration    11          0.627              1.873              2.381
 Vibration    12          0.639              1.836              2.107
 Vibration    13          0.652              1.797              1.887
 Vibration    14          0.657              1.779              1.803
 Vibration    15          0.671              1.737              1.628
 Vibration    16          0.678              1.717              1.555
 Vibration    17          0.692              1.677              1.426
 Vibration    18          0.724              1.584              1.187
 Vibration    19          0.732              1.561              1.135
 Vibration    20          0.740              1.541              1.094
 Vibration    21          0.784              1.423              0.886
 Vibration    22          0.838              1.290              0.704
 Vibration    23          0.907              1.135              0.540

 Optimization completed.
    -- Stationary point found.
 Normal termination of Gaussian 16 at Sun Dec 13 20:13:44 2020.

 ----------------------------------------------------------------------
 # B3LYP/6-311++G(d,p) empiricaldispersion=gd3bj scf=xqc pop=npa geom=c
 heck
 ----------------------------------------------------------------------

 ---------------------------------------
 CID_104081212_JID_3804_Energie_neutraal
 ---------------------------------------
 Structure from the checkpoint file:  "JID_3804.chk"
 Charge =  0 Multiplicity = 1

 SCF Done:  E(RB3LYP) =  -1246.29118302     A.U. after   13 cycles
 Normal termination of Gaussian 16 at Sun Dec 13 20:19:07 2020.

 ----------------------------------------------------------------------
 # B3LYP/6-311++G(d,p) empiricaldispersion=gd3bj scf=xqc pop=npa geom=c
 heck
 ----------------------------------------------------------------------

 -------------------------------------
 CID_104081212_JID_3804_Energie_kation
 -------------------------------------
 Structure from the checkpoint file:  "JID_3804.chk"
 Charge =  1 Multiplicity = 2

 SCF Done:  E(UB3LYP) =  -1246.01156582     A.U. after   20 cycles
 Normal termination of Gaussian 16 at Sun Dec 13 20:30:49 2020.
 Gaussian 16:  ES64L-G16RevA.03 25-Dec-2016

 ----------------------------------------------------------------------
 # B3LYP/6-311++G(d,p) empiricaldispersion=gd3bj scf=xqc pop=npa geom=c
 heck
 ----------------------------------------------------------------------

 ------------------------------------
 CID_104081212_JID_3804_Energie_anion
 ------------------------------------
 Structure from the checkpoint file:  "JID_3804.chk"
 Charge = -1 Multiplicity = 2

                         Standard orientation:
 ---------------------------------------------------------------------
 Center     Atomic      Atomic             Coordinates (Angstroms)
 Number     Number       Type             X           Y           Z
 ---------------------------------------------------------------------
      1          6           0       -0.602558   -2.183964   -0.865198
      2          6           0       -1.194233   -1.831410    0.496683
      3         16           0       -3.022663   -1.654505    0.542338
      4          6           0       -3.350133   -0.238305   -0.584706
      5          6           0       -3.292661    1.157419    0.043643
      6          6           0       -1.900364    1.641204    0.459964
      7          7           0       -0.977778    1.647204   -0.675498
      8          6           0        0.153765    2.563802   -0.566271
      9          6           0        1.126225    2.348198    0.610454
     10          6           0        1.751167    0.946778    0.678796
     11          6           0        2.575592    0.582048   -0.556888
     12         16           0        3.291719   -1.105571   -0.527506
     13          6           0        4.493824   -0.935247    0.835988
     14          1           0       -1.026234   -3.119157   -1.243427
     15          1           0        0.485202   -2.294633   -0.782466
     16          1           0       -0.801005   -1.407270   -1.612818
     17          1           0       -0.996537   -2.637240    1.211212
     18          1           0       -0.731386   -0.930981    0.908410
     19          1           0       -2.688582   -0.302577   -1.453633
     20          1           0       -4.362735   -0.425982   -0.955514
     21          1           0       -3.686110    1.865831   -0.697656
     22          1           0       -3.956709    1.186726    0.916014
     23          1           0       -1.989952    2.675675    0.813736
     24          1           0       -1.541742    1.053353    1.321656
     25          1           0       -0.643153    0.704961   -0.859067
     26          1           0        0.703355    2.517005   -1.514468
     27          1           0       -0.252264    3.581535   -0.501353
     28          1           0        1.922241    3.103364    0.542370
     29          1           0        0.601178    2.540359    1.555005
     30          1           0        2.385074    0.887780    1.571127
     31          1           0        0.968634    0.192496    0.813956
     32          1           0        1.955446    0.592143   -1.459012
     33          1           0        3.382701    1.307799   -0.716634
     34          1           0        5.192744   -0.116408    0.638452
     35          1           0        4.000934   -0.775042    1.798328
     36          1           0        5.054709   -1.872076    0.882158
 ---------------------------------------------------------------------

 SCF Done:  E(UB3LYP) =  -1246.27800513     A.U. after   31 cycles

 The electronic state is 2-A.
 Alpha  occ. eigenvalues --  -88.75024 -88.74170 -14.20698 -10.11581 -10.11200
 Alpha  occ. eigenvalues --  -10.10266 -10.10156 -10.09715 -10.09164 -10.08446
 Alpha  occ. eigenvalues --  -10.08154 -10.07463 -10.06865  -7.83635  -7.82773
 Alpha  occ. eigenvalues --   -5.80034  -5.79659  -5.79177  -5.79006  -5.78808
 Alpha  occ. eigenvalues --   -5.78135  -0.81709  -0.73033  -0.72016  -0.69081
 Alpha  occ. eigenvalues --   -0.67038  -0.63252  -0.60899  -0.58080  -0.55807
 Alpha  occ. eigenvalues --   -0.52029  -0.50212  -0.47705  -0.46936  -0.41544
 Alpha  occ. eigenvalues --   -0.39358  -0.37667  -0.37627  -0.35896  -0.35511
 Alpha  occ. eigenvalues --   -0.34171  -0.33259  -0.32934  -0.32287  -0.32047
 Alpha  occ. eigenvalues --   -0.30995  -0.30401  -0.29071  -0.28453  -0.27145
 Alpha  occ. eigenvalues --   -0.27114  -0.26269  -0.24975  -0.24792  -0.24326
 Alpha  occ. eigenvalues --   -0.23807  -0.21524  -0.20990  -0.14288  -0.13312
 Alpha  occ. eigenvalues --   -0.12885   0.04269
 Alpha virt. eigenvalues --    0.05891   0.06635   0.07106   0.07509   0.08338
 Alpha virt. eigenvalues --    0.08978   0.09132   0.09437   0.09871   0.10730
 Alpha virt. eigenvalues --    0.10859   0.11556   0.11761   0.11907   0.12180

  Beta  occ. eigenvalues --  -88.75023 -88.74164 -14.20695 -10.11575 -10.11193
  Beta  occ. eigenvalues --  -10.10252 -10.10139 -10.09699 -10.09098 -10.08442
  Beta  occ. eigenvalues --  -10.08141 -10.07445 -10.06841  -7.83634  -7.82767
  Beta  occ. eigenvalues --   -5.80033  -5.79656  -5.79173  -5.79005  -5.78791
  Beta  occ. eigenvalues --   -5.78132  -0.81695  -0.73019  -0.71982  -0.69058
  Beta  occ. eigenvalues --   -0.66993  -0.63221  -0.60848  -0.58051  -0.55755
  Beta  occ. eigenvalues --   -0.51993  -0.50153  -0.47659  -0.46889  -0.41521
  Beta  occ. eigenvalues --   -0.39331  -0.37645  -0.37603  -0.35864  -0.35492
  Beta  occ. eigenvalues --   -0.34126  -0.33237  -0.32881  -0.32239  -0.32015
  Beta  occ. eigenvalues --   -0.30965  -0.30365  -0.29052  -0.28439  -0.27105
  Beta  occ. eigenvalues --   -0.27085  -0.26239  -0.24943  -0.24762  -0.24298
  Beta  occ. eigenvalues --   -0.23770  -0.21510  -0.20935  -0.14279  -0.13301
  Beta  occ. eigenvalues --   -0.12860
  Beta virt. eigenvalues --    0.06172   0.06902   0.07172   0.07439   0.07817
  Beta virt. eigenvalues --    0.09002   0.09217   0.09329   0.09684   0.10368
  Beta virt. eigenvalues --    0.10910   0.11240   0.11740   0.11963   0.12229

 Mulliken charges and spin densities:
               1          2
     1  C   -0.462541  -0.186878
     2  C    0.048430  -0.198917
     3  S    0.131047  -0.132797
     4  C   -0.394345   0.258487
     5  C    0.744729  -1.258303
     6  C   -0.283354  -0.139640
     7  N   -0.107151   0.058855
     8  C   -0.138341  -0.347421
     9  C    0.040325  -0.234032
    10  C    0.226227  -0.424839
    11  C   -0.042292  -0.433871
    12  S   -0.013868   0.296248
    13  C    0.829948  -1.543789
    14  H    0.112351   0.039863
    15  H    0.130252  -0.030776
    16  H    0.048477   0.082088
    17  H    0.122393   0.108766
    18  H   -0.420272   0.493930
    19  H    0.088486   0.040270
    20  H    0.021476   0.239456
    21  H   -0.064027   0.216256
    22  H   -0.073787   0.198876
    23  H   -0.148030   0.330418
    24  H    0.238166  -0.081272
    25  H    0.361704  -0.220246
    26  H   -0.077399   0.235347
    27  H   -0.356504   0.525195
    28  H   -0.676448   0.856123
    29  H   -0.233659   0.394901
    30  H   -0.073428   0.265985
    31  H    0.339570  -0.236171
    32  H    0.156048  -0.004742
    33  H   -0.003130   0.237790
    34  H   -0.394832   0.563083
    35  H   -0.374701   0.560811
    36  H   -0.301519   0.470946
 Sum of Mulliken charges =  -1.00000   1.00000

 Dipole moment (field-independent basis, Debye):
    X=             -6.0098    Y=             -4.1401    Z=             -3.5008  Tot=              8.0940
 Quadrupole moment (field-independent basis, Debye-Ang):
   XX=           -196.9823   YY=           -158.1012   ZZ=           -134.6012
   XY=             -0.0025   XZ=            -10.0407   YZ=             -1.0448

 Summary of Natural Population Analysis:

                                       Natural Population
                Natural  -----------------------------------------------
    Atom  No    Charge         Core      Valence    Rydberg      Total
 -----------------------------------------------------------------------
      C    1   -0.29618      0.99965     2.29102    0.00551     3.29618
      C    2   -0.25520      0.99960     2.24520    0.01041     3.25520
      S    3    0.07846      4.99963     2.90472    0.01720     7.92154
      C    4   -0.25562      0.99957     2.24504    0.01101     3.25562
      C    5   -0.19609      0.99961     2.18599    0.01050     3.19609
      C    6   -0.09148      0.99961     2.08027    0.01160     3.09148
      N    7   -0.34785      0.99974     2.83690    0.01121     3.84785
      C    8   -0.08500      0.99962     2.07317    0.01221     3.08500
      C    9   -0.19900      0.99962     2.18999    0.00939     3.19900
      C   10   -0.20265      0.99960     2.19164    0.01141     3.20265
      C   11   -0.24985      0.99958     2.23841    0.01185     3.24985
      S   12    0.08062      4.99964     2.90070    0.01904     7.91938
      C   13   -0.34882      0.99963     2.34297    0.00623     3.34882
      H   14    0.09964      0.00000     0.39914    0.00123     0.40036
      H   15    0.11107      0.00000     0.38736    0.00157     0.38893
      H   16    0.09318      0.00000     0.40582    0.00100     0.40682
      H   17    0.10576      0.00000     0.39312    0.00112     0.39424
      H   18    0.09962      0.00000     0.39831    0.00207     0.40038
      H   19    0.10332      0.00000     0.39532    0.00136     0.39668
      H   20    0.10641      0.00000     0.39258    0.00101     0.39359
      H   21    0.10036      0.00000     0.39816    0.00148     0.39964
      H   22    0.09848      0.00000     0.40020    0.00133     0.40152
      H   23    0.09778      0.00000     0.40082    0.00140     0.40222
      H   24    0.08221      0.00000     0.41611    0.00168     0.41779
      H   25    0.16986      0.00000     0.32560    0.00454     0.33014
      H   26    0.09058      0.00000     0.40831    0.00110     0.40942
      H   27    0.09509      0.00000     0.40354    0.00137     0.40491
      H   28    0.10160      0.00000     0.39631    0.00209     0.39840
      H   29    0.09929      0.00000     0.39937    0.00134     0.40071
      H   30    0.10393      0.00000     0.39423    0.00184     0.39607
      H   31    0.09237      0.00000     0.40507    0.00256     0.40763
      H   32    0.10042      0.00000     0.39803    0.00155     0.39958
      H   33    0.10228      0.00000     0.39617    0.00155     0.39772
      H   34    0.10402      0.00000     0.39356    0.00243     0.39598
      H   35    0.10373      0.00000     0.39376    0.00250     0.39627
      H   36    0.10769      0.00000     0.39085    0.00147     0.39231
 =======================================================================
   * Total *    0.00000     20.99510    39.81777    0.18713    61.00000

 Normal termination of Gaussian 16 at Sun Dec 13 20:48:15 2020.
