 Gaussian 16, Revision A.03,

 -----------------------------------------------------------
 # opt freq B3LYP/6-31G(d) empiricaldispersion=gd3bj scf=xqc
 -----------------------------------------------------------

 -------------------------------
 CID_116851434_JID_6915_neutraal
 -------------------------------
 Symbolic Z-matrix:
 Charge =  0 Multiplicity = 1

 SCF Done:  E(RB3LYP) =  -712.098820319     A.U. after   15 cycles
 SCF Done:  E(RB3LYP) =  -712.102179323     A.U. after   12 cycles
 SCF Done:  E(RB3LYP) =  -712.101395139     A.U. after   13 cycles
 SCF Done:  E(RB3LYP) =  -712.102438294     A.U. after   12 cycles
 SCF Done:  E(RB3LYP) =  -712.102962917     A.U. after   12 cycles
 SCF Done:  E(RB3LYP) =  -712.103277060     A.U. after   12 cycles
 SCF Done:  E(RB3LYP) =  -712.103683589     A.U. after   14 cycles
 SCF Done:  E(RB3LYP) =  -712.103923768     A.U. after   11 cycles
 SCF Done:  E(RB3LYP) =  -712.104132367     A.U. after   11 cycles
 SCF Done:  E(RB3LYP) =  -712.104205384     A.U. after   11 cycles
 SCF Done:  E(RB3LYP) =  -712.104246633     A.U. after   10 cycles
 SCF Done:  E(RB3LYP) =  -712.104248121     A.U. after    9 cycles
 SCF Done:  E(RB3LYP) =  -712.104248535     A.U. after    8 cycles
 SCF Done:  E(RB3LYP) =  -712.104248609     A.U. after    7 cycles
 SCF Done:  E(RB3LYP) =  -712.104248643     A.U. after    7 cycles
 Optimization completed.
    -- Stationary point found.
 Normal termination of Gaussian 16 at Fri Dec 11 01:12:15 2020.

 --------------------------------------------------------------------
 #N Geom=AllCheck Guess=TCheck SCRF=Check GenChk RB3LYP/6-31G(d) Freq
 --------------------------------------------------------------------

 Structure from the checkpoint file:  "JID_6915.chk"
 -------------------------------
 CID_116851434_JID_6915_neutraal
 -------------------------------
 Charge =  0 Multiplicity = 1

 SCF Done:  E(RB3LYP) =  -712.104248643     A.U. after    1 cycles

  Exact polarizability: 187.578  -2.828 143.625  15.513  -9.224 107.256
 Approx polarizability: 247.191   0.173 226.594  30.970 -22.857 161.489

                      1                      2                      3
                      A                      A                      A
 Frequencies --     23.7702                28.4956                34.0033
 Red. masses --      2.8870                 5.2990                 3.7026
 Frc consts  --      0.0010                 0.0025                 0.0025
 IR Inten    --      0.0263                 1.0900                 0.0593

                      4                      5                      6
                      A                      A                      A
 Frequencies --     53.7752                59.6856                93.5821
 Red. masses --      4.5192                 3.7399                 3.3558
 Frc consts  --      0.0077                 0.0078                 0.0173
 IR Inten    --      0.8326                 0.0296                 0.0832

                      7                      8                      9
                      A                      A                      A
 Frequencies --    105.1909               133.2161               172.7160
 Red. masses --      3.8282                 1.1303                 3.0944
 Frc consts  --      0.0250                 0.0118                 0.0544
 IR Inten    --      0.1193                 0.1467                 1.0441

                     10                     11                     12
                      A                      A                      A
 Frequencies --    193.2514               221.0438               226.9508
 Red. masses --      3.3334                 2.1578                 1.4961
 Frc consts  --      0.0733                 0.0621                 0.0454
 IR Inten    --      0.8398                 0.9845                 2.2658

                     13                     14                     15
                      A                      A                      A
 Frequencies --    253.6995               299.8057               313.1311
 Red. masses --      1.3894                 2.3923                 2.3404
 Frc consts  --      0.0527                 0.1267                 0.1352
 IR Inten    --     30.0811                 2.0471                13.9178

                     16                     17                     18
                      A                      A                      A
 Frequencies --    340.0465               343.7487               361.0259
 Red. masses --      2.4622                 3.6789                 3.9527
 Frc consts  --      0.1677                 0.2561                 0.3035
 IR Inten    --     16.7189                20.9988                 3.6907

                     19                     20                     21
                      A                      A                      A
 Frequencies --    398.1076               409.5931               419.0560
 Red. masses --      2.1363                 3.7618                 3.0843
 Frc consts  --      0.1995                 0.3718                 0.3191
 IR Inten    --      0.0497                 0.7127                 0.0656

                     22                     23                     24
                      A                      A                      A
 Frequencies --    496.5410               537.0571               587.8353
 Red. masses --      3.9583                 3.4283                 2.4497
 Frc consts  --      0.5750                 0.5826                 0.4987
 IR Inten    --      1.2627                 1.8047                15.5822

                     25                     26                     27
                      A                      A                      A
 Frequencies --    660.6531               676.8101               713.0909
 Red. masses --      6.4008                 3.0078                 3.1623
 Frc consts  --      1.6460                 0.8118                 0.9474
 IR Inten    --      0.0581                 7.4193                 7.5231

                     28                     29                     30
                      A                      A                      A
 Frequencies --    754.7961               763.9401               800.2905
 Red. masses --      3.7381                 4.8061                 1.1633
 Frc consts  --      1.2547                 1.6526                 0.4390
 IR Inten    --      1.1683                 6.6022                 0.8014

                     31                     32                     33
                      A                      A                      A
 Frequencies --    816.4889               831.8354               854.8272
 Red. masses --      2.3688                 3.1887                 1.6464
 Frc consts  --      0.9304                 1.3000                 0.7088
 IR Inten    --      4.1288                 2.5055                13.2916

                     34                     35                     36
                      A                      A                      A
 Frequencies --    861.5033               895.0912               951.0880
 Red. masses --      1.3763                 2.4236                 1.8095
 Frc consts  --      0.6018                 1.1441                 0.9644
 IR Inten    --     10.4692                29.5723               129.9142

                     37                     38                     39
                      A                      A                      A
 Frequencies --    961.6129               966.0197               974.0393
 Red. masses --      1.3322                 1.5990                 1.7355
 Frc consts  --      0.7258                 0.8792                 0.9701
 IR Inten    --      3.9079                11.6382                13.5325

                     40                     41                     42
                      A                      A                      A
 Frequencies --    982.1997              1004.0261              1043.7122
 Red. masses --      2.2756                 4.3476                 2.7128
 Frc consts  --      1.2934                 2.5822                 1.7411
 IR Inten    --      3.6307                12.8973                28.0971

                     43                     44                     45
                      A                      A                      A
 Frequencies --   1047.1683              1062.9794              1087.6614
 Red. masses --      2.6464                 1.9530                 1.5386
 Frc consts  --      1.7098                 1.3002                 1.0724
 IR Inten    --      7.2823                22.7890                 9.4598

                     46                     47                     48
                      A                      A                      A
 Frequencies --   1094.2117              1147.2035              1155.3127
 Red. masses --      1.9057                 1.7329                 1.4517
 Frc consts  --      1.3443                 1.3437                 1.1417
 IR Inten    --     10.9420                 8.1496                 6.2039

                     49                     50                     51
                      A                      A                      A
 Frequencies --   1184.6816              1189.0800              1199.5821
 Red. masses --      1.2887                 1.4333                 1.2268
 Frc consts  --      1.0656                 1.1941                 1.0401
 IR Inten    --      1.5626                 0.7043                 0.3687

                     52                     53                     54
                      A                      A                      A
 Frequencies --   1206.7310              1221.5520              1227.9972
 Red. masses --      2.1181                 1.1293                 2.0525
 Frc consts  --      1.8173                 0.9928                 1.8236
 IR Inten    --    127.5843                 1.6189               149.4453

                     55                     56                     57
                      A                      A                      A
 Frequencies --   1238.4620              1244.5969              1287.0035
 Red. masses --      3.5860                 1.9541                 1.3688
 Frc consts  --      3.2406                 1.7835                 1.3359
 IR Inten    --      2.2204                 9.9209                 0.5062

                     58                     59                     60
                      A                      A                      A
 Frequencies --   1300.6506              1358.8040              1368.1331
 Red. masses --      1.4592                 1.6936                 1.5316
 Frc consts  --      1.4544                 1.8424                 1.6891
 IR Inten    --     23.6408                 0.5075                 7.1196

                     61                     62                     63
                      A                      A                      A
 Frequencies --   1369.7522              1373.2179              1383.0872
 Red. masses --      2.0218                 1.5273                 1.5025
 Frc consts  --      2.2350                 1.6968                 1.6935
 IR Inten    --     11.6288                 7.1217                 1.4778

                     64                     65                     66
                      A                      A                      A
 Frequencies --   1395.8210              1435.1244              1436.7468
 Red. masses --      1.3823                 1.2199                 1.3537
 Frc consts  --      1.5868                 1.4804                 1.6463
 IR Inten    --     15.7455                 1.2513                 2.9575

                     67                     68                     69
                      A                      A                      A
 Frequencies --   1471.8431              1490.7260              1512.3887
 Red. masses --      2.5236                 1.2108                 1.0483
 Frc consts  --      3.2210                 1.5854                 1.4127
 IR Inten    --      5.1007                 3.4534                 6.0462

                     70                     71                     72
                      A                      A                      A
 Frequencies --   1515.3659              1518.0250              1522.9785
 Red. masses --      1.0869                 1.0639                 1.0904
 Frc consts  --      1.4705                 1.4445                 1.4901
 IR Inten    --      7.3768                 0.5240                 5.7521

                     73                     74                     75
                      A                      A                      A
 Frequencies --   1524.5937              1525.8285              1538.5042
 Red. masses --      1.0586                 1.0410                 1.0820
 Frc consts  --      1.4497                 1.4280                 1.5089
 IR Inten    --      7.7955                 7.3420                 2.0484

                     76                     77                     78
                      A                      A                      A
 Frequencies --   1568.2960              1633.7098              1678.5616
 Red. masses --      2.4840                 6.0753                 5.8268
 Frc consts  --      3.5996                 9.5537                 9.6729
 IR Inten    --     20.8852                 0.1600                 0.0944

                     79                     80                     81
                      A                      A                      A
 Frequencies --   1708.2104              1816.0350              3042.6625
 Red. masses --      1.0878                10.8907                 1.0647
 Frc consts  --      1.8701                21.1618                 5.8076
 IR Inten    --     23.1957               220.5141                18.9052

                     82                     83                     84
                      A                      A                      A
 Frequencies --   3044.0817              3047.6533              3056.2358
 Red. masses --      1.0598                 1.0346                 1.0626
 Frc consts  --      5.7861                 5.6617                 5.8479
 IR Inten    --     33.0316                37.9585                43.2200

                     85                     86                     87
                      A                      A                      A
 Frequencies --   3078.4022              3078.4394              3092.1846
 Red. masses --      1.0293                 1.1037                 1.0991
 Frc consts  --      5.7472                 6.1629                 6.1920
 IR Inten    --     30.7909                11.1150                 4.1375

                     88                     89                     90
                      A                      A                      A
 Frequencies --   3103.2785              3111.3623              3117.6516
 Red. masses --      1.0887                 1.0971                 1.1028
 Frc consts  --      6.1771                 6.2575                 6.3152
 IR Inten    --     13.2247                34.1680                50.7876

                     91                     92                     93
                      A                      A                      A
 Frequencies --   3122.2423              3154.3699              3166.4876
 Red. masses --      1.1034                 1.1076                 1.0864
 Frc consts  --      6.3378                 6.4932                 6.4178
 IR Inten    --     34.2558                18.9597                14.9106

                     94                     95                     96
                      A                      A                      A
 Frequencies --   3172.2378              3184.6241              3185.2094
 Red. masses --      1.0886                 1.0942                 1.1075
 Frc consts  --      6.4545                 6.5383                 6.6202
 IR Inten    --     19.6752                24.1659                15.2810

                     97                     98                     99
                      A                      A                      A
 Frequencies --   3209.0044              3455.6151              3536.7792
 Red. masses --      1.0921                 1.0500                 1.0912
 Frc consts  --      6.6259                 7.3873                 8.0424
 IR Inten    --      6.9588                 0.8929                 1.6301

 - Thermochemistry -
 -------------------
 Temperature   298.150 Kelvin.  Pressure   1.00000 Atm.
 Atom     1 has atomic number  6 and mass  12.00000

 Molecular mass:   221.14158 amu.
 Principal axes and moments of inertia in atomic units:
                           1         2         3
     Eigenvalues --  1737.537427501.510448238.39978
           X            0.99998  -0.00323   0.00458
           Y            0.00326   0.99998  -0.00540
           Z           -0.00457   0.00541   0.99997
 This molecule is an asymmetric top.
 Rotational symmetry number  1.
 Warning -- assumption of classical behavior for rotation
           may cause significant error
 Rotational temperatures (Kelvin)      0.04985     0.01155     0.01051
 Rotational constants (GHZ):           1.03868     0.24058     0.21906
 Zero-point vibrational energy     799204.2 (Joules/Mol)
                                  191.01438 (Kcal/Mol)
 Warning -- explicit consideration of  24 degrees of freedom as
           vibrations may cause significant error
 Vibrational temperatures:     34.20    41.00    48.92    77.37    85.87
          (Kelvin)            134.64   151.35   191.67   248.50   278.05
                              318.03   326.53   365.02   431.35   450.53
                              489.25   494.58   519.44   572.79   589.31
                              602.93   714.41   772.71   845.76   950.53
                              973.78  1025.98  1085.98  1099.14  1151.44
                             1174.75  1196.83  1229.91  1239.51  1287.84
                             1368.40  1383.55  1389.89  1401.43  1413.17
                             1444.57  1501.67  1506.64  1529.39  1564.90
                             1574.33  1650.57  1662.24  1704.49  1710.82
                             1725.93  1736.22  1757.54  1766.81  1781.87
                             1790.70  1851.71  1871.35  1955.02  1968.44
                             1970.77  1975.75  1989.95  2008.28  2064.82
                             2067.16  2117.65  2144.82  2175.99  2180.27
                             2184.10  2191.23  2193.55  2195.33  2213.56
                             2256.43  2350.54  2415.08  2457.73  2612.87
                             4377.71  4379.75  4384.89  4397.24  4429.13
                             4429.19  4448.96  4464.93  4476.56  4485.61
                             4492.21  4538.43  4555.87  4564.14  4581.96
                             4582.81  4617.04  4971.86  5088.64

 Zero-point correction=                           0.304401 (Hartree/Particle)
 Thermal correction to Energy=                    0.321414
 Thermal correction to Enthalpy=                  0.322358
 Thermal correction to Gibbs Free Energy=         0.257210
 Sum of electronic and zero-point Energies=           -711.799848
 Sum of electronic and thermal Energies=              -711.782834
 Sum of electronic and thermal Enthalpies=            -711.781890
 Sum of electronic and thermal Free Energies=         -711.847039

                     E (Thermal)             CV                S
                      KCal/Mol        Cal/Mol-Kelvin    Cal/Mol-Kelvin
 Total                  201.690             62.270            137.117
 Electronic               0.000              0.000              0.000
 Translational            0.889              2.981             42.084
 Rotational               0.889              2.981             33.040
 Vibrational            199.913             56.308             61.994
 Vibration     1          0.593              1.985              6.291
 Vibration     2          0.593              1.984              5.931
 Vibration     3          0.594              1.983              5.581
 Vibration     4          0.596              1.976              4.673
 Vibration     5          0.597              1.974              4.468
 Vibration     6          0.603              1.954              3.584
 Vibration     7          0.605              1.945              3.356
 Vibration     8          0.613              1.920              2.899
 Vibration     9          0.626              1.876              2.406
 Vibration    10          0.635              1.849              2.196
 Vibration    11          0.648              1.809              1.951
 Vibration    12          0.651              1.800              1.903
 Vibration    13          0.665              1.757              1.705
 Vibration    14          0.692              1.674              1.418
 Vibration    15          0.701              1.649              1.346
 Vibration    16          0.720              1.595              1.212
 Vibration    17          0.722              1.588              1.195
 Vibration    18          0.735              1.553              1.118
 Vibration    19          0.764              1.474              0.970
 Vibration    20          0.774              1.449              0.928
 Vibration    21          0.782              1.429              0.895
 Vibration    22          0.852              1.258              0.667
 Vibration    23          0.892              1.168              0.572
 Vibration    24          0.945              1.058              0.471

 Optimization completed.
    -- Stationary point found.
 Normal termination of Gaussian 16 at Fri Dec 11 01:24:19 2020.

 ----------------------------------------------------------------------
 # B3LYP/6-311++G(d,p) empiricaldispersion=gd3bj scf=xqc pop=npa geom=c
 heck
 ----------------------------------------------------------------------

 ---------------------------------------
 CID_116851434_JID_6915_Energie_neutraal
 ---------------------------------------
 Structure from the checkpoint file:  "JID_6915.chk"
 Charge =  0 Multiplicity = 1

 SCF Done:  E(RB3LYP) =  -712.309324277     A.U. after   15 cycles
 Normal termination of Gaussian 16 at Fri Dec 11 01:30:31 2020.

 ----------------------------------------------------------------------
 # B3LYP/6-311++G(d,p) empiricaldispersion=gd3bj scf=xqc pop=npa geom=c
 heck
 ----------------------------------------------------------------------

 -------------------------------------
 CID_116851434_JID_6915_Energie_kation
 -------------------------------------
 Structure from the checkpoint file:  "JID_6915.chk"
 Charge =  1 Multiplicity = 2

 SCF Done:  E(UB3LYP) =  -712.007601694     A.U. after   26 cycles
 Normal termination of Gaussian 16 at Fri Dec 11 01:45:47 2020.
 Gaussian 16:  ES64L-G16RevA.03 25-Dec-2016

 ----------------------------------------------------------------------
 # B3LYP/6-311++G(d,p) empiricaldispersion=gd3bj scf=xqc pop=npa geom=c
 heck
 ----------------------------------------------------------------------

 ------------------------------------
 CID_116851434_JID_6915_Energie_anion
 ------------------------------------
 Structure from the checkpoint file:  "JID_6915.chk"
 Charge = -1 Multiplicity = 2

                         Standard orientation:
 ---------------------------------------------------------------------
 Center     Atomic      Atomic             Coordinates (Angstroms)
 Number     Number       Type             X           Y           Z
 ---------------------------------------------------------------------
      1          6           0       -5.457142    0.914546    0.016569
      2          6           0       -4.459295    0.347155   -1.006427
      3          6           0       -3.114583    0.044793   -0.386559
      4          6           0       -2.108338    1.015099   -0.336289
      5          6           0       -0.885319    0.755122    0.281591
      6          6           0       -0.628790   -0.488544    0.870408
      7          6           0       -1.635583   -1.460753    0.819496
      8          6           0       -2.856318   -1.199059    0.202412
      9          6           0        0.707239   -0.804351    1.505338
     10          6           0        1.644284   -1.592364    0.569623
     11          6           0        2.112841   -0.828258   -0.685082
     12          6           0        3.053857    0.301420   -0.267503
     13          8           0        4.250628    0.169221   -0.115766
     14          8           0        2.406998    1.470479   -0.058093
     15          6           0        3.233109    2.558946    0.391350
     16          7           0        2.762274   -1.766561   -1.599924
     17          1           0       -5.619832    0.204614    0.835100
     18          1           0       -6.425564    1.126878   -0.450642
     19          1           0       -5.076848    1.843737    0.455259
     20          1           0       -4.875268   -0.566244   -1.449608
     21          1           0       -4.334183    1.064851   -1.826742
     22          1           0       -2.284290    1.988716   -0.788996
     23          1           0       -0.112116    1.517355    0.295710
     24          1           0       -1.458661   -2.435742    1.268827
     25          1           0       -3.622920   -1.970564    0.176881
     26          1           0        1.193718    0.121736    1.829935
     27          1           0        0.548069   -1.407536    2.407484
     28          1           0        2.531648   -1.920763    1.127247
     29          1           0        1.136481   -2.493267    0.209488
     30          1           0        1.239591   -0.396967   -1.182992
     31          1           0        3.714079    2.306992    1.339804
     32          1           0        4.004712    2.782050   -0.349549
     33          1           0        2.559154    3.406799    0.513740
     34          1           0        2.983668   -1.287109   -2.472105
     35          1           0        3.665868   -2.019714   -1.198065
 ---------------------------------------------------------------------

 SCF Done:  E(UB3LYP) =  -712.296232261     A.U. after   33 cycles
 SCF Done:  E(UB3LYP) =  -712.296232261     a.u. after    1 cycles

 The electronic state is 2-A.
 Alpha  occ. eigenvalues --  -19.08450 -19.02902 -14.21437 -10.21234 -10.13006
 Alpha  occ. eigenvalues --  -10.12668 -10.09072 -10.08883 -10.08787 -10.08776
 Alpha  occ. eigenvalues --  -10.08277 -10.08236 -10.08156 -10.07821 -10.07713
 Alpha  occ. eigenvalues --  -10.07201  -1.02319  -0.93674  -0.81283  -0.77185
 Alpha  occ. eigenvalues --   -0.71841  -0.68583  -0.65556  -0.65393  -0.63052
 Alpha  occ. eigenvalues --   -0.58731  -0.54424  -0.52106  -0.51601  -0.48126
 Alpha  occ. eigenvalues --   -0.47202  -0.44184  -0.40959  -0.40389  -0.40120
 Alpha  occ. eigenvalues --   -0.38877  -0.38576  -0.36998  -0.35695  -0.35110
 Alpha  occ. eigenvalues --   -0.33876  -0.33380  -0.32921  -0.32396  -0.30704
 Alpha  occ. eigenvalues --   -0.30156  -0.29800  -0.28382  -0.27818  -0.26733
 Alpha  occ. eigenvalues --   -0.26393  -0.25469  -0.25130  -0.24127  -0.23824
 Alpha  occ. eigenvalues --   -0.22315  -0.20170  -0.17114  -0.16325  -0.14858
 Alpha  occ. eigenvalues --    0.04062
 Alpha virt. eigenvalues --    0.05422   0.06374   0.06772   0.07542   0.07584
 Alpha virt. eigenvalues --    0.07922   0.08018   0.08491   0.08712   0.09459
 Alpha virt. eigenvalues --    0.09638   0.10109   0.10524   0.11275   0.11469

  Beta  occ. eigenvalues --  -19.08445 -19.02892 -14.21421 -10.21234 -10.12946
  Beta  occ. eigenvalues --  -10.12665 -10.09067 -10.08882 -10.08779 -10.08778
  Beta  occ. eigenvalues --  -10.08271 -10.08219 -10.08146 -10.07801 -10.07705
  Beta  occ. eigenvalues --  -10.07174  -1.02306  -0.93658  -0.81258  -0.77170
  Beta  occ. eigenvalues --   -0.71822  -0.68557  -0.65511  -0.65367  -0.63012
  Beta  occ. eigenvalues --   -0.58692  -0.54379  -0.52071  -0.51559  -0.48096
  Beta  occ. eigenvalues --   -0.47168  -0.44171  -0.40931  -0.40367  -0.40083
  Beta  occ. eigenvalues --   -0.38848  -0.38557  -0.36966  -0.35664  -0.35083
  Beta  occ. eigenvalues --   -0.33844  -0.33346  -0.32897  -0.32365  -0.30678
  Beta  occ. eigenvalues --   -0.30133  -0.29773  -0.28352  -0.27781  -0.26710
  Beta  occ. eigenvalues --   -0.26373  -0.25442  -0.25105  -0.24108  -0.23801
  Beta  occ. eigenvalues --   -0.22292  -0.20158  -0.17097  -0.16297  -0.14840
  Beta virt. eigenvalues --    0.05997   0.06209   0.06702   0.07319   0.07627
  Beta virt. eigenvalues --    0.07825   0.08210   0.08501   0.08619   0.08883
  Beta virt. eigenvalues --    0.09766   0.10041   0.10739   0.10941   0.11284

 Mulliken charges and spin densities:
               1          2
     1  C    0.827737  -1.462925
     2  C   -0.386095  -0.061515
     3  C    0.516679   0.327906
     4  C   -0.764337   0.214861
     5  C   -0.062529  -0.410356
     6  C    1.691308  -0.664360
     7  C   -0.605495   0.159152
     8  C   -0.523340  -0.004752
     9  C   -0.137008  -0.319104
    10  C    0.118224  -0.257784
    11  C    0.401201  -1.032634
    12  C   -0.747545   0.548140
    13  O   -0.275724   0.030493
    14  O   -0.128154   0.073406
    15  C    1.110857  -1.377984
    16  N   -0.274865   0.048397
    17  H   -0.063732   0.202391
    18  H   -0.292835   0.420926
    19  H   -0.054425   0.199626
    20  H   -0.178559   0.321845
    21  H   -0.094771   0.245452
    22  H   -0.469962   0.658929
    23  H    0.245550   0.004140
    24  H   -0.104499   0.243870
    25  H   -0.155290   0.323406
    26  H    0.030411   0.132409
    27  H    0.084648   0.101452
    28  H    0.053339   0.091878
    29  H    0.224310  -0.006667
    30  H    0.166683   0.107527
    31  H   -0.257995   0.438649
    32  H   -0.401206   0.582223
    33  H   -0.679793   0.827562
    34  H    0.032759   0.205480
    35  H    0.154452   0.087959
 Sum of Mulliken charges =  -1.00000   1.00000

 Dipole moment (field-independent basis, Debye):
    X=              1.1011    Y=             -5.4311    Z=              1.3797  Tot=              5.7107
 Quadrupole moment (field-independent basis, Debye-Ang):
   XX=           -206.3070   YY=           -151.8091   ZZ=           -128.4428
   XY=             -7.6783   XZ=             -3.2898   YZ=             -3.4380

 Summary of Natural Population Analysis:

                                       Natural Population
                Natural  -----------------------------------------------
    Atom  No    Charge         Core      Valence    Rydberg      Total
 -----------------------------------------------------------------------
      C    1   -0.27836      0.99966     2.27447    0.00423     3.27836
      C    2   -0.19759      0.99961     2.18882    0.00916     3.19759
      C    3   -0.01655      0.99950     2.00710    0.00995     3.01655
      C    4   -0.09538      0.99951     2.08569    0.01018     3.09538
      C    5   -0.09975      0.99951     2.09041    0.00983     3.09975
      C    6   -0.02171      0.99950     2.01124    0.01097     3.02171
      C    7   -0.09932      0.99951     2.09134    0.00847     3.09932
      C    8   -0.09873      0.99951     2.09024    0.00898     3.09873
      C    9   -0.19904      0.99959     2.19054    0.00891     3.19904
      C   10   -0.18209      0.99960     2.17454    0.00795     3.18209
      C   11   -0.06042      0.99955     2.04846    0.01241     3.06042
      C   12    0.40415      0.99966     1.56909    0.02711     2.59585
      O   13   -0.31155      0.99987     3.30563    0.00605     4.31155
      O   14   -0.27847      0.99986     3.26895    0.00966     4.27847
      C   15   -0.10540      0.99959     2.09643    0.00938     3.10540
      N   16   -0.41396      0.99978     2.90449    0.00969     3.91396
      H   17    0.09622      0.00000     0.40236    0.00142     0.40378
      H   18    0.09768      0.00000     0.40081    0.00151     0.40232
      H   19    0.09785      0.00000     0.40085    0.00130     0.40215
      H   20    0.09862      0.00000     0.40009    0.00129     0.40138
      H   21    0.10035      0.00000     0.39832    0.00133     0.39965
      H   22    0.10171      0.00000     0.39706    0.00123     0.39829
      H   23    0.10875      0.00000     0.38910    0.00215     0.39125
      H   24    0.09687      0.00000     0.40185    0.00129     0.40313
      H   25    0.09916      0.00000     0.39983    0.00102     0.40084
      H   26    0.10500      0.00000     0.39335    0.00164     0.39500
      H   27    0.10148      0.00000     0.39749    0.00103     0.39852
      H   28    0.09828      0.00000     0.40069    0.00103     0.40172
      H   29    0.10602      0.00000     0.39253    0.00144     0.39398
      H   30    0.10967      0.00000     0.38812    0.00221     0.39033
      H   31    0.09149      0.00000     0.40702    0.00149     0.40851
      H   32    0.09413      0.00000     0.40393    0.00194     0.40587
      H   33    0.09691      0.00000     0.40041    0.00268     0.40309
      H   34    0.17620      0.00000     0.32232    0.00148     0.32380
      H   35    0.17777      0.00000     0.32033    0.00190     0.32223
 =======================================================================
   * Total *   -0.00000     15.99382    43.81388    0.19231    60.00000

 Normal termination of Gaussian 16 at Fri Dec 11 02:05:38 2020.
