 Gaussian 16, Revision A.03,

 -----------------------------------------------------------
 # opt freq B3LYP/6-31G(d) empiricaldispersion=gd3bj scf=xqc
 -----------------------------------------------------------

 -----------------------------
 CID_144198708_JID_67_neutraal
 -----------------------------
 Symbolic Z-matrix:
 Charge =  0 Multiplicity = 1

 SCF Done:  E(RB3LYP) =  -497.104264348     A.U. after   15 cycles
 SCF Done:  E(RB3LYP) =  -497.105940716     A.U. after   12 cycles
 SCF Done:  E(RB3LYP) =  -497.106038333     A.U. after   12 cycles
 SCF Done:  E(RB3LYP) =  -497.106222024     A.U. after   11 cycles
 SCF Done:  E(RB3LYP) =  -497.106230395     A.U. after    9 cycles
 SCF Done:  E(RB3LYP) =  -497.106230310     A.U. after    9 cycles
 SCF Done:  E(RB3LYP) =  -497.106231747     A.U. after    9 cycles
 Optimization completed.
    -- Stationary point found.
 Normal termination of Gaussian 16 at Mon Dec 14 16:26:08 2020.

 --------------------------------------------------------------------
 #N Geom=AllCheck Guess=TCheck SCRF=Check GenChk RB3LYP/6-31G(d) Freq
 --------------------------------------------------------------------

 Structure from the checkpoint file:  "JID_67.chk"
 -----------------------------
 CID_144198708_JID_67_neutraal
 -----------------------------
 Charge =  0 Multiplicity = 1

 SCF Done:  E(RB3LYP) =  -497.106231747     A.U. after    1 cycles

  Exact polarizability: 164.754  29.743 102.073   0.001  -0.001  30.502
 Approx polarizability: 260.231  68.550 169.088   0.004   0.002  45.454

 ******    1 imaginary frequencies (negative Signs) ******

                      1                      2                      3
                      A                      A                      A
 Frequencies --    -56.8202                50.7881                87.0693
 Red. masses --      2.2826                 3.5596                 1.2165
 Frc consts  --      0.0043                 0.0054                 0.0054
 IR Inten    --     28.4363                 2.0666               106.1999

                      4                      5                      6
                      A                      A                      A
 Frequencies --    116.0518               137.8040               145.7105
 Red. masses --      3.0022                 3.0515                 4.4045
 Frc consts  --      0.0238                 0.0341                 0.0551
 IR Inten    --      0.9020                 0.0105                 1.2812

                      7                      8                      9
                      A                      A                      A
 Frequencies --    216.6699               222.0064               303.4750
 Red. masses --      2.8530                 4.3886                 4.8401
 Frc consts  --      0.0789                 0.1274                 0.2626
 IR Inten    --      0.6035                 0.7569                 1.1851

                     10                     11                     12
                      A                      A                      A
 Frequencies --    368.5220               380.4400               397.9352
 Red. masses --      7.7671                 2.5669                 5.0874
 Frc consts  --      0.6215                 0.2189                 0.4746
 IR Inten    --      0.0477                 0.0179                13.4352

                     13                     14                     15
                      A                      A                      A
 Frequencies --    415.7006               566.0995               636.9098
 Red. masses --      3.3292                 3.8559                 1.7037
 Frc consts  --      0.3390                 0.7281                 0.4072
 IR Inten    --      0.7724                 7.3033                21.4893

                     16                     17                     18
                      A                      A                      A
 Frequencies --    709.2329               720.4663               777.1864
 Red. masses --      2.1544                 4.3970                 3.8849
 Frc consts  --      0.6385                 1.3447                 1.3826
 IR Inten    --      0.6335                19.9893                 3.1804

                     19                     20                     21
                      A                      A                      A
 Frequencies --    842.7681               932.6962               933.3323
 Red. masses --      4.9086                 4.4738                 1.3514
 Frc consts  --      2.0541                 2.2930                 0.6936
 IR Inten    --     19.8954                39.7825                35.1771

                     22                     23                     24
                      A                      A                      A
 Frequencies --    949.2544               974.8755               995.3358
 Red. masses --      1.3097                 1.5521                 2.6556
 Frc consts  --      0.6953                 0.8691                 1.5501
 IR Inten    --     29.6732                 6.7092                 0.1591

                     25                     26                     27
                      A                      A                      A
 Frequencies --   1019.1039              1032.5349              1036.9192
 Red. masses --      1.1235                 1.6133                 1.0942
 Frc consts  --      0.6875                 1.0134                 0.6932
 IR Inten    --      1.2599                11.6835                31.5267

                     28                     29                     30
                      A                      A                      A
 Frequencies --   1135.8259              1228.6942              1270.3185
 Red. masses --      2.5877                 3.7228                 2.1168
 Frc consts  --      1.9669                 3.3114                 2.0126
 IR Inten    --     83.6931               156.8474                84.8459

                     31                     32                     33
                      A                      A                      A
 Frequencies --   1338.2642              1390.3312              1399.8147
 Red. masses --      1.3729                 1.6983                 1.2431
 Frc consts  --      1.4487                 1.9342                 1.4352
 IR Inten    --      7.0124                 2.3204                 0.9387

                     34                     35                     36
                      A                      A                      A
 Frequencies --   1458.9279              1462.6245              1493.6820
 Red. masses --      1.3154                 1.1885                 1.3186
 Frc consts  --      1.6496                 1.4980                 1.7334
 IR Inten    --      3.1986               125.7707                 9.5911

                     37                     38                     39
                      A                      A                      A
 Frequencies --   1623.0245              1692.1047              1705.8314
 Red. masses --      4.3518                 3.9465                 4.3543
 Frc consts  --      6.7542                 6.6577                 7.4651
 IR Inten    --     44.2016                13.6840                 7.0125

                     40                     41                     42
                      A                      A                      A
 Frequencies --   1831.3037              3168.5059              3175.7390
 Red. masses --     11.8379                 1.0595                 1.0801
 Frc consts  --     23.3908                 6.2672                 6.4180
 IR Inten    --    149.4566                 5.9921                 0.3391

                     43                     44                     45
                      A                      A                      A
 Frequencies --   3188.7417              3195.2079              3201.9845
 Red. masses --      1.0786                 1.0827                 1.0873
 Frc consts  --      6.4615                 6.5127                 6.5683
 IR Inten    --      3.9042                14.0536                11.9741

                     46                     47                     48
                      A                      A                      A
 Frequencies --   3256.5104              3293.4613              3711.3076
 Red. masses --      1.1164                 1.1097                 1.0676
 Frc consts  --      6.9755                 7.0916                 8.6642
 IR Inten    --     11.2558                 5.9126                54.3163

 - Thermochemistry -
 -------------------
 Temperature   298.150 Kelvin.  Pressure   1.00000 Atm.
 Atom     1 has atomic number  6 and mass  12.00000

 Molecular mass:   140.04734 amu.
 Principal axes and moments of inertia in atomic units:
                           1         2         3
     Eigenvalues --   806.216782272.681643078.89839
           X            0.99973   0.02334   0.00000
           Y           -0.02334   0.99973  -0.00000
           Z           -0.00000   0.00000   1.00000
 This molecule is an asymmetric top.
 Rotational symmetry number  1.
 Warning -- assumption of classical behavior for rotation
           may cause significant error
 Rotational temperatures (Kelvin)      0.10743     0.03811     0.02813
 Rotational constants (GHZ):           2.23853     0.79410     0.58616
    1 imaginary frequencies ignored.
 Zero-point vibrational energy     360022.7 (Joules/Mol)
                                   86.04749 (Kcal/Mol)
 Warning -- explicit consideration of  13 degrees of freedom as
           vibrations may cause significant error
 Vibrational temperatures:     73.07   125.27   166.97   198.27   209.64
          (Kelvin)            311.74   319.42   436.63   530.22   547.37
                              572.54   598.10   814.49   916.37  1020.43
                             1036.59  1118.20  1212.56  1341.94  1342.86
                             1365.77  1402.63  1432.07  1466.26  1485.59
                             1491.90  1634.20  1767.82  1827.70  1925.46
                             2000.38  2014.02  2099.07  2104.39  2149.08
                             2335.17  2434.56  2454.31  2634.84  4558.77
                             4569.18  4587.89  4597.19  4606.94  4685.39
                             4738.56  5339.74

 Zero-point correction=                           0.137125 (Hartree/Particle)
 Thermal correction to Energy=                    0.147427
 Thermal correction to Enthalpy=                  0.148371
 Thermal correction to Gibbs Free Energy=         0.100700
 Sum of electronic and zero-point Energies=           -496.969106
 Sum of electronic and thermal Energies=              -496.958805
 Sum of electronic and thermal Enthalpies=            -496.957861
 Sum of electronic and thermal Free Energies=         -497.005531

                     E (Thermal)             CV                S
                      KCal/Mol        Cal/Mol-Kelvin    Cal/Mol-Kelvin
 Total                   92.512             36.354            100.331
 Electronic               0.000              0.000              0.000
 Translational            0.889              2.981             40.722
 Rotational               0.889              2.981             30.113
 Vibrational             90.734             30.393             29.496
 Vibration     1          0.595              1.977              4.786
 Vibration     2          0.601              1.958              3.725
 Vibration     3          0.608              1.936              3.165
 Vibration     4          0.614              1.916              2.834
 Vibration     5          0.617              1.907              2.728
 Vibration     6          0.646              1.816              1.987
 Vibration     7          0.648              1.808              1.943
 Vibration     8          0.695              1.667              1.398
 Vibration     9          0.741              1.537              1.086
 Vibration    10          0.750              1.512              1.037
 Vibration    11          0.764              1.475              0.970
 Vibration    12          0.779              1.436              0.907
 Vibration    13          0.922              1.105              0.512

 Optimization completed.
    -- Stationary point found.
 Normal termination of Gaussian 16 at Mon Dec 14 16:28:44 2020.

 ----------------------------------------------------------------------
 # B3LYP/6-311++G(d,p) empiricaldispersion=gd3bj scf=xqc pop=npa geom=c
 heck
 ----------------------------------------------------------------------

 -------------------------------------
 CID_144198708_JID_67_Energie_neutraal
 -------------------------------------
 Structure from the checkpoint file:  "JID_67.chk"
 Charge =  0 Multiplicity = 1

 SCF Done:  E(RB3LYP) =  -497.261342379     A.U. after   16 cycles
 Normal termination of Gaussian 16 at Mon Dec 14 16:29:43 2020.

 ----------------------------------------------------------------------
 # B3LYP/6-311++G(d,p) empiricaldispersion=gd3bj scf=xqc pop=npa geom=c
 heck
 ----------------------------------------------------------------------

 -----------------------------------
 CID_144198708_JID_67_Energie_kation
 -----------------------------------
 Structure from the checkpoint file:  "JID_67.chk"
 Charge =  1 Multiplicity = 2

 SCF Done:  E(UB3LYP) =  -496.953767934     A.U. after   23 cycles
 Normal termination of Gaussian 16 at Mon Dec 14 16:31:27 2020.
 Gaussian 16:  ES64L-G16RevA.03 25-Dec-2016

 ----------------------------------------------------------------------
 # B3LYP/6-311++G(d,p) empiricaldispersion=gd3bj scf=xqc pop=npa geom=c
 heck
 ----------------------------------------------------------------------

 ----------------------------------
 CID_144198708_JID_67_Energie_anion
 ----------------------------------
 Structure from the checkpoint file:  "JID_67.chk"
 Charge = -1 Multiplicity = 2

                         Standard orientation:
 ---------------------------------------------------------------------
 Center     Atomic      Atomic             Coordinates (Angstroms)
 Number     Number       Type             X           Y           Z
 ---------------------------------------------------------------------
      1          6           0       -3.882732   -0.718499   -0.000155
      2          6           0       -2.802544    0.081849   -0.000111
      3          6           0       -1.458071   -0.447904    0.000101
      4          6           0       -0.279002    0.239804    0.000172
      5          6           0       -0.232498    1.703028    0.000015
      6          6           0        0.810119    2.547229    0.000026
      7          6           0        0.917809   -0.669280    0.000414
      8          8           0        0.883619   -1.875353    0.000059
      9          8           0        2.086234    0.042997    0.000019
     10          8           0        3.205115   -0.882615   -0.000295
     11          1           0       -3.784668   -1.801315   -0.000030
     12          1           0       -4.891106   -0.316797   -0.000319
     13          1           0       -2.950722    1.158347   -0.000241
     14          1           0       -1.377396   -1.531959    0.000227
     15          1           0       -1.216957    2.163073   -0.000135
     16          1           0        0.628595    3.617881   -0.000112
     17          1           0        1.841899    2.224675    0.000161
     18          1           0        3.912133   -0.211496   -0.000589
 ---------------------------------------------------------------------

 SCF Done:  E(UB3LYP) =  -497.288605218     A.U. after   23 cycles

 The electronic state is 2-A.
 Alpha  occ. eigenvalues --  -19.07452 -19.07149 -18.94590 -10.13654 -10.02892
 Alpha  occ. eigenvalues --  -10.01533 -10.01246 -10.00670 -10.00101  -9.99870
 Alpha  occ. eigenvalues --   -1.02639  -0.89381  -0.80613  -0.66512  -0.62136
 Alpha  occ. eigenvalues --   -0.57564  -0.49274  -0.45052  -0.43036  -0.40836
 Alpha  occ. eigenvalues --   -0.37111  -0.33750  -0.33248  -0.32971  -0.30202
 Alpha  occ. eigenvalues --   -0.27924  -0.25858  -0.25065  -0.23709  -0.22644
 Alpha  occ. eigenvalues --   -0.21591  -0.18365  -0.18294  -0.15410  -0.14071
 Alpha  occ. eigenvalues --   -0.12824  -0.07473   0.03531
 Alpha virt. eigenvalues --    0.07934   0.09810   0.10295   0.12058   0.12744
 Alpha virt. eigenvalues --    0.13405   0.13512   0.14730   0.15656   0.15894
 Alpha virt. eigenvalues --    0.16682   0.17318   0.19403   0.19537   0.20149

  Beta  occ. eigenvalues --  -19.07394 -19.07147 -18.94454 -10.13524 -10.02900
  Beta  occ. eigenvalues --  -10.01605 -10.01110 -10.00512  -9.99592  -9.99391
  Beta  occ. eigenvalues --   -1.02559  -0.89152  -0.80512  -0.65938  -0.61635
  Beta  occ. eigenvalues --   -0.57039  -0.48486  -0.44617  -0.42622  -0.40722
  Beta  occ. eigenvalues --   -0.36796  -0.33587  -0.32829  -0.32729  -0.30020
  Beta  occ. eigenvalues --   -0.27677  -0.25730  -0.24820  -0.22977  -0.22455
  Beta  occ. eigenvalues --   -0.21325  -0.18169  -0.16899  -0.14925  -0.12756
  Beta  occ. eigenvalues --   -0.12659  -0.05257
  Beta virt. eigenvalues --    0.07920   0.09779   0.10034   0.10275   0.12042
  Beta virt. eigenvalues --    0.12716   0.13465   0.14222   0.14710   0.15632
  Beta virt. eigenvalues --    0.16620   0.16752   0.17556   0.19526   0.20123

 Mulliken charges and spin densities:
               1          2
     1  C   -0.654788   0.490898
     2  C    0.138672  -0.123394
     3  C   -0.862543   0.413434
     4  C    1.525576   0.079378
     5  C   -0.345048  -0.052543
     6  C   -0.822427   0.160947
     7  C   -0.322296   0.059496
     8  O   -0.335307   0.052545
     9  O   -0.035437   0.010702
    10  O   -0.149969  -0.001063
    11  H    0.074669  -0.022528
    12  H    0.092498  -0.024409
    13  H    0.081755   0.001919
    14  H    0.142510  -0.026687
    15  H    0.055565  -0.003339
    16  H    0.101407  -0.007216
    17  H    0.091339  -0.007994
    18  H    0.223825  -0.000146
 Sum of Mulliken charges =  -1.00000   1.00000

 Dipole moment (field-independent basis, Debye):
    X=              3.7272    Y=              2.4090    Z=             -0.0002  Tot=              4.4379
 Quadrupole moment (field-independent basis, Debye-Ang):
   XX=            -80.9290   YY=            -79.1838   ZZ=            -69.2704
   XY=              0.2873   XZ=             -0.0019   YZ=             -0.0016

 Summary of Natural Population Analysis:

                                       Natural Population
                Natural  -----------------------------------------------
    Atom  No    Charge         Core      Valence    Rydberg      Total
 -----------------------------------------------------------------------
      C    1   -0.06537      0.99961     2.05751    0.00825     3.06537
      C    2   -0.14403      0.99957     2.13560    0.00887     3.14403
      C    3    0.04366      0.99951     1.94721    0.00962     2.95634
      C    4   -0.09468      0.99940     2.08470    0.01057     3.09468
      C    5   -0.09509      0.99957     2.08615    0.00936     3.09509
      C    6   -0.18922      0.99960     2.18127    0.00836     3.18922
      C    7    0.40675      0.99967     1.56827    0.02531     2.59325
      O    8   -0.30133      0.99987     3.29518    0.00629     4.30133
      O    9   -0.15092      0.99986     3.14136    0.00970     4.15092
      O   10   -0.21909      0.99991     3.21226    0.00693     4.21909
      H   11    0.07748      0.00000     0.42131    0.00121     0.42252
      H   12    0.07498      0.00000     0.42396    0.00106     0.42502
      H   13    0.08361      0.00000     0.41468    0.00171     0.41639
      H   14    0.09621      0.00000     0.40207    0.00172     0.40379
      H   15    0.08688      0.00000     0.41122    0.00190     0.41312
      H   16    0.07866      0.00000     0.42014    0.00121     0.42134
      H   17    0.09041      0.00000     0.40841    0.00118     0.40959
      H   18    0.22111      0.00000     0.27626    0.00263     0.27889
 =======================================================================
   * Total *   -0.00000      9.99656    26.88755    0.11588    37.00000

 Normal termination of Gaussian 16 at Mon Dec 14 16:33:12 2020.
