 Gaussian 16, Revision A.03,

 -----------------------------------------------------------
 # opt freq B3LYP/6-31G(d) empiricaldispersion=gd3bj scf=xqc
 -----------------------------------------------------------

 ------------------------------
 CID_62938580_JID_7213_neutraal
 ------------------------------
 Symbolic Z-matrix:
 Charge =  0 Multiplicity = 1

 SCF Done:  E(RB3LYP) =  -762.395972771     A.U. after   15 cycles
 SCF Done:  E(RB3LYP) =  -762.406898981     A.U. after   14 cycles
 SCF Done:  E(RB3LYP) =  -762.407321248     A.U. after   13 cycles
 SCF Done:  E(RB3LYP) =  -762.409054511     A.U. after   13 cycles
 SCF Done:  E(RB3LYP) =  -762.409268631     A.U. after   13 cycles
 SCF Done:  E(RB3LYP) =  -762.409671352     A.U. after   12 cycles
 SCF Done:  E(RB3LYP) =  -762.409761543     A.U. after   12 cycles
 SCF Done:  E(RB3LYP) =  -762.409881724     A.U. after   12 cycles
 SCF Done:  E(RB3LYP) =  -762.409967559     A.U. after   11 cycles
 SCF Done:  E(RB3LYP) =  -762.410041733     A.U. after   11 cycles
 SCF Done:  E(RB3LYP) =  -762.410125522     A.U. after   11 cycles
 SCF Done:  E(RB3LYP) =  -762.410129116     A.U. after   10 cycles
 SCF Done:  E(RB3LYP) =  -762.410129520     A.U. after    9 cycles
 SCF Done:  E(RB3LYP) =  -762.410129828     A.U. after    7 cycles
 SCF Done:  E(RB3LYP) =  -762.410129903     A.U. after    8 cycles
 Optimization completed.
    -- Stationary point found.
 Normal termination of Gaussian 16 at Mon Dec 14 16:43:40 2020.

 --------------------------------------------------------------------
 #N Geom=AllCheck Guess=TCheck SCRF=Check GenChk RB3LYP/6-31G(d) Freq
 --------------------------------------------------------------------

 Structure from the checkpoint file:  "JID_7213.chk"
 ------------------------------
 CID_62938580_JID_7213_neutraal
 ------------------------------
 Charge =  0 Multiplicity = 1

 SCF Done:  E(RB3LYP) =  -762.410129903     A.U. after    1 cycles

  Exact polarizability: 205.309  -9.502 163.564 -15.102   1.314 101.220
 Approx polarizability: 298.262 -39.191 263.116 -36.206   6.000 152.217

                      1                      2                      3
                      A                      A                      A
 Frequencies --     22.3132                45.6470                48.4893
 Red. masses --      5.0819                 4.5566                 4.4553
 Frc consts  --      0.0015                 0.0056                 0.0062
 IR Inten    --      0.1281                 2.4958                 1.8126

                      4                      5                      6
                      A                      A                      A
 Frequencies --     72.3427                93.2006               116.1775
 Red. masses --      3.0104                 3.5743                 3.3881
 Frc consts  --      0.0093                 0.0183                 0.0269
 IR Inten    --      0.7823                 0.2115                 0.3876

                      7                      8                      9
                      A                      A                      A
 Frequencies --    120.7732               146.0841               163.4836
 Red. masses --      3.6976                 5.6429                 4.3891
 Frc consts  --      0.0318                 0.0710                 0.0691
 IR Inten    --      3.0682                10.6781                 0.1392

                     10                     11                     12
                      A                      A                      A
 Frequencies --    204.2239               221.0424               227.6449
 Red. masses --      1.2313                 1.9081                 1.3804
 Frc consts  --      0.0303                 0.0549                 0.0421
 IR Inten    --      0.6511                 2.2844                 1.1294

                     13                     14                     15
                      A                      A                      A
 Frequencies --    241.3996               251.2001               262.9902
 Red. masses --      1.2988                 3.6163                 2.5094
 Frc consts  --      0.0446                 0.1344                 0.1023
 IR Inten    --      0.3051                 1.6365                 3.8406

                     16                     17                     18
                      A                      A                      A
 Frequencies --    294.1078               332.0606               365.7108
 Red. masses --      2.2313                 4.0343                 3.2146
 Frc consts  --      0.1137                 0.2621                 0.2533
 IR Inten    --      0.6875                 2.5907                 4.0115

                     19                     20                     21
                      A                      A                      A
 Frequencies --    378.5808               405.0993               443.5223
 Red. masses --      4.4401                 3.6023                 2.8823
 Frc consts  --      0.3749                 0.3483                 0.3341
 IR Inten    --      3.3693                 5.7965                 1.1750

                     22                     23                     24
                      A                      A                      A
 Frequencies --    469.5892               506.5267               533.2453
 Red. masses --      2.6843                 4.8762                 4.0890
 Frc consts  --      0.3488                 0.7371                 0.6850
 IR Inten    --      4.3967                 9.4940                 0.9484

                     25                     26                     27
                      A                      A                      A
 Frequencies --    556.9513               562.9140               576.8941
 Red. masses --      4.2935                 6.2725                 5.3149
 Frc consts  --      0.7847                 1.1710                 1.0422
 IR Inten    --      2.4931                16.3938                 0.7771

                     28                     29                     30
                      A                      A                      A
 Frequencies --    590.7153               636.1064               709.0325
 Red. masses --      5.2012                 4.4125                 4.0780
 Frc consts  --      1.0693                 1.0520                 1.2079
 IR Inten    --      7.4746                16.5396                 1.2279

                     31                     32                     33
                      A                      A                      A
 Frequencies --    754.2650               771.4576               798.5806
 Red. masses --      1.3762                 5.8938                 1.3098
 Frc consts  --      0.4613                 2.0667                 0.4921
 IR Inten    --     18.7202                 6.9844                13.5256

                     34                     35                     36
                      A                      A                      A
 Frequencies --    799.7487               823.8663               841.6907
 Red. masses --      1.2328                 2.6391                 2.7920
 Frc consts  --      0.4646                 1.0554                 1.1654
 IR Inten    --      3.7922                 0.5497                 1.1641

                     37                     38                     39
                      A                      A                      A
 Frequencies --    873.9464               895.4195               917.1649
 Red. masses --      3.8849                 1.2598                 2.2099
 Frc consts  --      1.7482                 0.5951                 1.0952
 IR Inten    --      6.9460                 1.5711                23.8477

                     40                     41                     42
                      A                      A                      A
 Frequencies --    930.5442               970.3628              1010.3961
 Red. masses --      1.6690                 2.1881                 2.7775
 Frc consts  --      0.8515                 1.2139                 1.6706
 IR Inten    --     11.5769                 8.5401                 6.6641

                     43                     44                     45
                      A                      A                      A
 Frequencies --   1064.1206              1086.6114              1107.8511
 Red. masses --      2.6460                 2.7174                 2.3860
 Frc consts  --      1.7653                 1.8904                 1.7254
 IR Inten    --     50.1509                11.7680                 9.3395

                     46                     47                     48
                      A                      A                      A
 Frequencies --   1116.5965              1122.7265              1124.1897
 Red. masses --      1.8374                 1.8784                 2.0585
 Frc consts  --      1.3497                 1.3950                 1.5328
 IR Inten    --     17.5471                10.2254                 6.0244

                     49                     50                     51
                      A                      A                      A
 Frequencies --   1141.0510              1165.0962              1193.4356
 Red. masses --      1.6786                 1.7118                 2.6122
 Frc consts  --      1.2877                 1.3691                 2.1921
 IR Inten    --     13.0361                14.8842                28.6711

                     52                     53                     54
                      A                      A                      A
 Frequencies --   1229.8427              1261.1329              1296.1593
 Red. masses --      1.7921                 2.5654                 1.5500
 Frc consts  --      1.5970                 2.4040                 1.5343
 IR Inten    --      7.1510                97.6134                 0.0600

                     55                     56                     57
                      A                      A                      A
 Frequencies --   1305.1877              1313.9928              1341.3339
 Red. masses --      1.9413                 1.8423                 1.2607
 Frc consts  --      1.9484                 1.8741                 1.3364
 IR Inten    --     29.7792                33.8313                27.6752

                     58                     59                     60
                      A                      A                      A
 Frequencies --   1361.9561              1376.3552              1402.8387
 Red. masses --      1.6767                 1.4171                 1.3443
 Frc consts  --      1.8324                 1.5817                 1.5587
 IR Inten    --     46.5865                13.3876                48.6782

                     61                     62                     63
                      A                      A                      A
 Frequencies --   1406.0685              1413.5827              1425.1244
 Red. masses --      1.2841                 1.6508                 1.2555
 Frc consts  --      1.4957                 1.9436                 1.5023
 IR Inten    --      1.2838                 5.5854                 6.8831

                     64                     65                     66
                      A                      A                      A
 Frequencies --   1433.4758              1436.9118              1446.4987
 Red. masses --      1.2786                 1.2775                 1.2641
 Frc consts  --      1.5479                 1.5541                 1.5583
 IR Inten    --     37.8297                10.5519                17.5538

                     67                     68                     69
                      A                      A                      A
 Frequencies --   1462.1883              1492.5712              1501.9005
 Red. masses --      1.8033                 1.5530                 1.1606
 Frc consts  --      2.2715                 2.0384                 1.5424
 IR Inten    --     57.3012                21.0763                27.0914

                     70                     71                     72
                      A                      A                      A
 Frequencies --   1509.0856              1510.9895              1518.2006
 Red. masses --      1.2394                 1.5705                 1.0614
 Frc consts  --      1.6629                 2.1125                 1.4415
 IR Inten    --      9.7746                13.5901                 1.7793

                     73                     74                     75
                      A                      A                      A
 Frequencies --   1520.1596              1524.0889              1534.4302
 Red. masses --      1.0607                 1.0622                 1.0430
 Frc consts  --      1.4442                 1.4537                 1.4469
 IR Inten    --      8.4868                11.3875                 7.3358

                     76                     77                     78
                      A                      A                      A
 Frequencies --   1538.0153              1539.2300              1578.8872
 Red. masses --      1.0538                 1.0665                 3.3949
 Frc consts  --      1.4687                 1.4888                 4.9863
 IR Inten    --      5.9627                26.1325               389.0451

                     79                     80                     81
                      A                      A                      A
 Frequencies --   1649.7034              1714.6494              2363.6586
 Red. masses --      4.9685                 9.0218                12.6503
 Frc consts  --      7.9668                15.6277                41.6410
 IR Inten    --    118.2421               249.0122                14.2284

                     82                     83                     84
                      A                      A                      A
 Frequencies --   3046.9686              3060.2607              3061.3188
 Red. masses --      1.0818                 1.0400                 1.0704
 Frc consts  --      5.9173                 5.7384                 5.9101
 IR Inten    --      8.2938                31.8139                22.2164

                     85                     86                     87
                      A                      A                      A
 Frequencies --   3061.9724              3074.9315              3075.3889
 Red. masses --      1.0370                 1.0348                 1.0612
 Frc consts  --      5.7283                 5.7646                 5.9137
 IR Inten    --     21.0152                12.7768                58.8342

                     88                     89                     90
                      A                      A                      A
 Frequencies --   3091.8648              3115.8626              3126.4165
 Red. masses --      1.0637                 1.1035                 1.1031
 Frc consts  --      5.9911                 6.3122                 6.3525
 IR Inten    --     26.1407                12.6720                20.6766

                     91                     92                     93
                      A                      A                      A
 Frequencies --   3128.8720              3144.8623              3149.2630
 Red. masses --      1.1020                 1.1032                 1.0995
 Frc consts  --      6.3561                 6.4286                 6.4248
 IR Inten    --     39.5685                23.9037                10.1505

                     94                     95                     96
                      A                      A                      A
 Frequencies --   3156.8736              3162.6676              3167.1157
 Red. masses --      1.1017                 1.1049                 1.1034
 Frc consts  --      6.4686                 6.5115                 6.5210
 IR Inten    --     19.6614                11.6805                 5.8726

                     97                     98                     99
                      A                      A                      A
 Frequencies --   3210.7988              3221.1866              3245.0944
 Red. masses --      1.0893                 1.0920                 1.0971
 Frc consts  --      6.6163                 6.6761                 6.8067
 IR Inten    --     18.4938                14.0440                 9.4081

 - Thermochemistry -
 -------------------
 Temperature   298.150 Kelvin.  Pressure   1.00000 Atm.
 Atom     1 has atomic number  6 and mass  12.00000

 Molecular mass:   234.14806 amu.
 Principal axes and moments of inertia in atomic units:
                           1         2         3
     Eigenvalues --  2674.223595413.358217333.63339
           X            0.99828   0.05829   0.00650
           Y           -0.05831   0.99830   0.00249
           Z           -0.00635  -0.00286   0.99998
 This molecule is an asymmetric top.
 Rotational symmetry number  1.
 Warning -- assumption of classical behavior for rotation
           may cause significant error
 Rotational temperatures (Kelvin)      0.03239     0.01600     0.01181
 Rotational constants (GHZ):           0.67487     0.33339     0.24609
 Zero-point vibrational energy     782460.2 (Joules/Mol)
                                  187.01247 (Kcal/Mol)
 Warning -- explicit consideration of  28 degrees of freedom as
           vibrations may cause significant error
 Vibrational temperatures:     32.10    65.68    69.77   104.09   134.09
          (Kelvin)            167.15   173.77   210.18   235.22   293.83
                              318.03   327.53   347.32   361.42   378.38
                              423.16   477.76   526.18   544.69   582.85
                              638.13   675.63   728.78   767.22   801.33
                              809.91   830.02   849.91   915.22  1020.14
                             1085.22  1109.96  1148.98  1150.66  1185.36
                             1211.01  1257.41  1288.31  1319.60  1338.85
                             1396.14  1453.73  1531.03  1563.39  1593.95
                             1606.53  1615.35  1617.46  1641.72  1676.31
                             1717.09  1769.47  1814.49  1864.88  1877.87
                             1890.54  1929.88  1959.55  1980.27  2018.37
                             2023.02  2033.83  2050.44  2062.45  2067.40
                             2081.19  2103.76  2147.48  2160.90  2171.24
                             2173.98  2184.35  2187.17  2192.82  2207.70
                             2212.86  2214.61  2271.67  2373.56  2467.00
                             3400.78  4383.91  4403.03  4404.55  4405.50
                             4424.14  4424.80  4448.50  4483.03  4498.22
                             4501.75  4524.76  4531.09  4542.04  4550.37
                             4556.77  4619.62  4634.57  4668.97

 Zero-point correction=                           0.298023 (Hartree/Particle)
 Thermal correction to Energy=                    0.315539
 Thermal correction to Enthalpy=                  0.316483
 Thermal correction to Gibbs Free Energy=         0.251826
 Sum of electronic and zero-point Energies=           -762.112107
 Sum of electronic and thermal Energies=              -762.094591
 Sum of electronic and thermal Enthalpies=            -762.093647
 Sum of electronic and thermal Free Energies=         -762.158304

                     E (Thermal)             CV                S
                      KCal/Mol        Cal/Mol-Kelvin    Cal/Mol-Kelvin
 Total                  198.004             65.065            136.082
 Electronic               0.000              0.000              0.000
 Translational            0.889              2.981             42.254
 Rotational               0.889              2.981             33.029
 Vibrational            196.226             59.103             60.799
 Vibration     1          0.593              1.985              6.417
 Vibration     2          0.595              1.979              4.998
 Vibration     3          0.595              1.978              4.878
 Vibration     4          0.598              1.967              4.089
 Vibration     5          0.602              1.954              3.592
 Vibration     6          0.608              1.936              3.163
 Vibration     7          0.609              1.932              3.088
 Vibration     8          0.617              1.907              2.723
 Vibration     9          0.623              1.887              2.509
 Vibration    10          0.640              1.834              2.095
 Vibration    11          0.648              1.809              1.951
 Vibration    12          0.651              1.799              1.897
 Vibration    13          0.658              1.777              1.793
 Vibration    14          0.663              1.761              1.722
 Vibration    15          0.670              1.741              1.642
 Vibration    16          0.689              1.685              1.450
 Vibration    17          0.714              1.611              1.250
 Vibration    18          0.739              1.543              1.098
 Vibration    19          0.749              1.516              1.045
 Vibration    20          0.770              1.459              0.944
 Vibration    21          0.803              1.375              0.816
 Vibration    22          0.827              1.318              0.739
 Vibration    23          0.862              1.236              0.642
 Vibration    24          0.888              1.176              0.580
 Vibration    25          0.912              1.124              0.530
 Vibration    26          0.919              1.112              0.518
 Vibration    27          0.933              1.081              0.491
 Vibration    28          0.948              1.052              0.466

 Optimization completed.
    -- Stationary point found.
 Normal termination of Gaussian 16 at Mon Dec 14 16:57:22 2020.

 ----------------------------------------------------------------------
 # B3LYP/6-311++G(d,p) empiricaldispersion=gd3bj scf=xqc pop=npa geom=c
 heck
 ----------------------------------------------------------------------

 --------------------------------------
 CID_62938580_JID_7213_Energie_neutraal
 --------------------------------------
 Structure from the checkpoint file:  "JID_7213.chk"
 Charge =  0 Multiplicity = 1

 SCF Done:  E(RB3LYP) =  -762.618486064     A.U. after   15 cycles
 Normal termination of Gaussian 16 at Mon Dec 14 17:04:02 2020.

 ----------------------------------------------------------------------
 # B3LYP/6-311++G(d,p) empiricaldispersion=gd3bj scf=xqc pop=npa geom=c
 heck
 ----------------------------------------------------------------------

 ------------------------------------
 CID_62938580_JID_7213_Energie_kation
 ------------------------------------
 Structure from the checkpoint file:  "JID_7213.chk"
 Charge =  1 Multiplicity = 2

 SCF Done:  E(UB3LYP) =  -762.346173403     A.U. after   23 cycles
 Normal termination of Gaussian 16 at Mon Dec 14 17:18:45 2020.
 Gaussian 16:  ES64L-G16RevA.03 25-Dec-2016

 ----------------------------------------------------------------------
 # B3LYP/6-311++G(d,p) empiricaldispersion=gd3bj scf=xqc pop=npa geom=c
 heck
 ----------------------------------------------------------------------

 -----------------------------------
 CID_62938580_JID_7213_Energie_anion
 -----------------------------------
 Structure from the checkpoint file:  "JID_7213.chk"
 Charge = -1 Multiplicity = 2

                         Standard orientation:
 ---------------------------------------------------------------------
 Center     Atomic      Atomic             Coordinates (Angstroms)
 Number     Number       Type             X           Y           Z
 ---------------------------------------------------------------------
      1          6           0       -3.690382   -2.202831   -0.735709
      2          6           0       -3.216504   -1.548457    0.560024
      3          7           0       -2.462362   -0.311094    0.306383
      4          6           0       -3.100963    0.910441    0.369754
      5          6           0       -2.387089    2.033792    0.112003
      6          7           0       -1.064970    2.001336   -0.210254
      7          6           0       -0.437040    0.844916   -0.295771
      8          6           0       -1.127867   -0.451583   -0.039497
      9          8           0       -0.619329   -1.579438   -0.099137
     10          7           0        0.896759    0.881475   -0.626863
     11          6           0        1.515569    2.203010   -0.797759
     12          6           0        1.820852    2.921967    0.518439
     13          6           0        1.750407   -0.273000   -0.870698
     14          6           0        2.740654   -0.539875    0.298353
     15          6           0        2.025066   -0.817956    1.631007
     16          6           0        3.612451   -1.659889   -0.076267
     17          7           0        4.288882   -2.550037   -0.389142
     18          1           0       -4.335512   -1.524942   -1.304844
     19          1           0       -4.257699   -3.112158   -0.510667
     20          1           0       -2.830429   -2.475507   -1.352277
     21          1           0       -4.059517   -1.283491    1.204040
     22          1           0       -2.555429   -2.222315    1.107035
     23          1           0       -4.150091    0.897997    0.636077
     24          1           0       -2.851858    3.013107    0.160600
     25          1           0        2.437090    2.046139   -1.366810
     26          1           0        0.845521    2.820895   -1.401397
     27          1           0        2.512422    2.346184    1.142173
     28          1           0        2.279526    3.895798    0.312798
     29          1           0        0.898395    3.089401    1.078920
     30          1           0        1.135448   -1.153721   -1.020058
     31          1           0        2.326758   -0.084354   -1.783643
     32          1           0        3.388424    0.338739    0.417149
     33          1           0        1.348897   -1.669639    1.531369
     34          1           0        2.749108   -1.019806    2.425371
     35          1           0        1.434498    0.058200    1.913125
 ---------------------------------------------------------------------

 SCF Done:  E(UB3LYP) =  -762.619119418     A.U. after   33 cycles
 SCF Done:  E(UB3LYP) =  -762.619119418     a.u. after    1 cycles

 The electronic state is 2-A.
 Alpha  occ. eigenvalues --  -18.95139 -14.23160 -14.21653 -14.21581 -14.15793
 Alpha  occ. eigenvalues --  -10.13507 -10.11879 -10.11430 -10.10371 -10.10143
 Alpha  occ. eigenvalues --  -10.09542 -10.09313 -10.07494 -10.07174 -10.06945
 Alpha  occ. eigenvalues --  -10.05720 -10.05594  -0.91435  -0.84926  -0.83437
 Alpha  occ. eigenvalues --   -0.81345  -0.77353  -0.71325  -0.65689  -0.65182
 Alpha  occ. eigenvalues --   -0.62847  -0.58951  -0.55466  -0.54618  -0.53389
 Alpha  occ. eigenvalues --   -0.49823  -0.46684  -0.43097  -0.41527  -0.39864
 Alpha  occ. eigenvalues --   -0.38349  -0.36550  -0.35901  -0.34478  -0.34095
 Alpha  occ. eigenvalues --   -0.32743  -0.31900  -0.31833  -0.30876  -0.30461
 Alpha  occ. eigenvalues --   -0.29603  -0.28684  -0.27961  -0.27727  -0.26937
 Alpha  occ. eigenvalues --   -0.26524  -0.26474  -0.26258  -0.24951  -0.24411
 Alpha  occ. eigenvalues --   -0.23506  -0.22873  -0.22492  -0.20301  -0.16225
 Alpha  occ. eigenvalues --   -0.14287  -0.11297  -0.07537   0.04345
 Alpha virt. eigenvalues --    0.06426   0.07315   0.08436   0.08460   0.08858
 Alpha virt. eigenvalues --    0.09421   0.09900   0.11024   0.11384   0.11560
 Alpha virt. eigenvalues --    0.11945   0.12098   0.12325   0.12673   0.12800

  Beta  occ. eigenvalues --  -18.95008 -14.22885 -14.21601 -14.21579 -14.15490
  Beta  occ. eigenvalues --  -10.13394 -10.11863 -10.11428 -10.10146 -10.10141
  Beta  occ. eigenvalues --  -10.09546 -10.09313 -10.07338 -10.07172 -10.07027
  Beta  occ. eigenvalues --  -10.05686 -10.05564  -0.91106  -0.84670  -0.83081
  Beta  occ. eigenvalues --   -0.81328  -0.76948  -0.71287  -0.65552  -0.65075
  Beta  occ. eigenvalues --   -0.62639  -0.58843  -0.55140  -0.54537  -0.53302
  Beta  occ. eigenvalues --   -0.49751  -0.46354  -0.43034  -0.41345  -0.39777
  Beta  occ. eigenvalues --   -0.38209  -0.36426  -0.35811  -0.34212  -0.33796
  Beta  occ. eigenvalues --   -0.32612  -0.31870  -0.31501  -0.30733  -0.30340
  Beta  occ. eigenvalues --   -0.29526  -0.28597  -0.27877  -0.27413  -0.26831
  Beta  occ. eigenvalues --   -0.26437  -0.26377  -0.26185  -0.24801  -0.24348
  Beta  occ. eigenvalues --   -0.23463  -0.22855  -0.21760  -0.19336  -0.15901
  Beta  occ. eigenvalues --   -0.13487  -0.10990  -0.06402
  Beta virt. eigenvalues --    0.06778   0.07235   0.08383   0.08554   0.09067
  Beta virt. eigenvalues --    0.09451   0.09865   0.10198   0.11041   0.11336
  Beta virt. eigenvalues --    0.11576   0.11969   0.12175   0.12379   0.12763

 Mulliken charges and spin densities:
               1          2
     1  C    0.275736  -0.672137
     2  C   -0.260477   0.168365
     3  N    0.217122   0.081119
     4  C   -0.121265   0.112252
     5  C    0.101014  -0.255248
     6  N   -0.116894   0.150616
     7  C   -0.334769   0.076832
     8  C   -0.048536  -0.159767
     9  O   -0.384118   0.049012
    10  N    0.229140   0.002749
    11  C   -0.455957   0.208995
    12  C    0.149220  -0.555542
    13  C   -0.788631  -0.165785
    14  C    1.169500   0.265241
    15  C   -0.684392   0.014940
    16  C   -0.533156  -0.320316
    17  N   -0.292584   0.003396
    18  H    0.126855  -0.001850
    19  H   -0.248578   0.378828
    20  H    0.111974   0.069637
    21  H   -0.440864   0.583541
    22  H    0.163197   0.008786
    23  H   -0.040842   0.158436
    24  H    0.149492   0.000343
    25  H   -0.069169   0.185843
    26  H    0.170021   0.028511
    27  H   -0.005551   0.121292
    28  H   -0.130073   0.253357
    29  H    0.125195   0.055118
    30  H    0.253289   0.003212
    31  H    0.130651   0.035447
    32  H    0.073904   0.105631
    33  H    0.201725   0.003813
    34  H    0.129775   0.015522
    35  H    0.178048  -0.010191
 Sum of Mulliken charges =  -1.00000   1.00000

 Dipole moment (field-independent basis, Debye):
    X=              0.7598    Y=              2.8279    Z=              0.1853  Tot=              2.9340
 Quadrupole moment (field-independent basis, Debye-Ang):
   XX=           -173.4854   YY=           -151.9893   ZZ=           -118.1567
   XY=              1.6499   XZ=              7.9747   YZ=             -2.6898

 Summary of Natural Population Analysis:

                                       Natural Population
                Natural  -----------------------------------------------
    Atom  No    Charge         Core      Valence    Rydberg      Total
 -----------------------------------------------------------------------
      C    1   -0.28992      0.99966     2.28507    0.00519     3.28992
      C    2   -0.08649      0.99963     2.07535    0.01151     3.08649
      N    3   -0.18669      0.99963     2.67667    0.01039     3.68669
      C    4    0.00534      0.99955     1.98248    0.01262     2.99466
      C    5   -0.03850      0.99958     2.02434    0.01459     3.03850
      N    6   -0.23289      0.99967     2.72406    0.00916     3.73289
      C    7    0.21739      0.99951     1.76762    0.01547     2.78261
      C    8    0.31675      0.99961     1.66251    0.02114     2.68325
      O    9   -0.34631      0.99988     3.34111    0.00532     4.34631
      N   10   -0.24466      0.99965     2.73329    0.01173     3.74466
      C   11   -0.08670      0.99963     2.07540    0.01167     3.08670
      C   12   -0.29281      0.99966     2.28759    0.00556     3.29281
      C   13   -0.07846      0.99958     2.06591    0.01297     3.07846
      C   14   -0.16856      0.99952     2.16074    0.00829     3.16856
      C   15   -0.28371      0.99965     2.27668    0.00739     3.28371
      C   16    0.16622      0.99965     1.81342    0.02071     2.83378
      N   17   -0.19501      0.99979     2.68402    0.01121     3.69501
      H   18    0.09469      0.00000     0.40452    0.00079     0.40531
      H   19    0.09723      0.00000     0.40148    0.00129     0.40277
      H   20    0.10795      0.00000     0.39116    0.00088     0.39205
      H   21    0.09332      0.00000     0.40458    0.00209     0.40668
      H   22    0.10824      0.00000     0.39062    0.00114     0.39176
      H   23    0.09407      0.00000     0.40490    0.00102     0.40593
      H   24    0.08712      0.00000     0.41199    0.00090     0.41288
      H   25    0.08718      0.00000     0.41158    0.00124     0.41282
      H   26    0.10637      0.00000     0.39227    0.00137     0.39363
      H   27    0.09025      0.00000     0.40863    0.00112     0.40975
      H   28    0.09443      0.00000     0.40426    0.00131     0.40557
      H   29    0.11081      0.00000     0.38816    0.00103     0.38919
      H   30    0.12889      0.00000     0.36994    0.00117     0.37111
      H   31    0.08976      0.00000     0.40915    0.00109     0.41024
      H   32    0.11370      0.00000     0.38424    0.00206     0.38630
      H   33    0.11620      0.00000     0.38290    0.00090     0.38380
      H   34    0.09637      0.00000     0.40295    0.00068     0.40363
      H   35    0.10843      0.00000     0.39080    0.00077     0.39157
 =======================================================================
   * Total *    0.00000     16.99383    45.79042    0.21575    63.00000

 Normal termination of Gaussian 16 at Mon Dec 14 17:40:33 2020.
