 Gaussian 16, Revision A.03,

 -----------------------------------------------------------
 # opt freq B3LYP/6-31G(d) empiricaldispersion=gd3bj scf=xqc
 -----------------------------------------------------------

 ------------------------------
 CID_45099282_JID_1476_neutraal
 ------------------------------
 Symbolic Z-matrix:
 Charge =  0 Multiplicity = 1

 SCF Done:  E(RB3LYP) =  -837.203312391     A.U. after   15 cycles
 SCF Done:  E(RB3LYP) =  -837.206895849     A.U. after   13 cycles
 SCF Done:  E(RB3LYP) =  -837.207337163     A.U. after   12 cycles
 SCF Done:  E(RB3LYP) =  -837.207584801     A.U. after   12 cycles
 SCF Done:  E(RB3LYP) =  -837.207685209     A.U. after   11 cycles
 SCF Done:  E(RB3LYP) =  -837.207738860     A.U. after   12 cycles
 SCF Done:  E(RB3LYP) =  -837.207763743     A.U. after   10 cycles
 SCF Done:  E(RB3LYP) =  -837.207790160     A.U. after   11 cycles
 SCF Done:  E(RB3LYP) =  -837.207847481     A.U. after   12 cycles
 SCF Done:  E(RB3LYP) =  -837.207889701     A.U. after   12 cycles
 SCF Done:  E(RB3LYP) =  -837.207894207     A.U. after   10 cycles
 SCF Done:  E(RB3LYP) =  -837.207896214     A.U. after   10 cycles
 SCF Done:  E(RB3LYP) =  -837.207896302     A.U. after    8 cycles
 SCF Done:  E(RB3LYP) =  -837.207896318     A.U. after    8 cycles
 Optimization completed.
    -- Stationary point found.
 Normal termination of Gaussian 16 at Tue Dec  8 20:04:42 2020.

 --------------------------------------------------------------------
 #N Geom=AllCheck Guess=TCheck SCRF=Check GenChk RB3LYP/6-31G(d) Freq
 --------------------------------------------------------------------

 Structure from the checkpoint file:  "JID_1476.chk"
 ------------------------------
 CID_45099282_JID_1476_neutraal
 ------------------------------
 Charge =  0 Multiplicity = 1

 SCF Done:  E(RB3LYP) =  -837.207896318     A.U. after    1 cycles

  Exact polarizability: 162.973  -3.506 114.146   0.001  -0.002  46.591
 Approx polarizability: 267.217   0.221 208.293   0.002  -0.006  73.800

                      1                      2                      3
                      A                      A                      A
 Frequencies --     27.9688               113.9884               146.5280
 Red. masses --      3.8586                 5.2854                 5.8706
 Frc consts  --      0.0018                 0.0405                 0.0743
 IR Inten    --      3.4935                 0.3852                 1.5802

                      4                      5                      6
                      A                      A                      A
 Frequencies --    191.9288               209.5631               278.0633
 Red. masses --      1.2213                 3.0262                 3.8494
 Frc consts  --      0.0265                 0.0783                 0.1754
 IR Inten    --      0.1929                 1.2274                 1.7244

                      7                      8                      9
                      A                      A                      A
 Frequencies --    319.2508               369.1601               447.7561
 Red. masses --      5.1982                 6.0964                 5.5866
 Frc consts  --      0.3122                 0.4895                 0.6599
 IR Inten    --      0.3113                 0.9903                 0.1399

                     10                     11                     12
                      A                      A                      A
 Frequencies --    490.4720               570.4222               622.2060
 Red. masses --      5.3370                 5.2741                 3.7822
 Frc consts  --      0.7564                 1.0111                 0.8627
 IR Inten    --      0.1498                 0.8991                 4.8481

                     13                     14                     15
                      A                      A                      A
 Frequencies --    630.9974               696.3246               698.6103
 Red. masses --      5.1017                 7.7035                 2.4059
 Frc consts  --      1.1968                 2.2007                 0.6918
 IR Inten    --      7.2698                 1.3198                 8.0721

                     16                     17                     18
                      A                      A                      A
 Frequencies --    735.3254               782.0719               841.2585
 Red. masses --      1.6767                 1.3157                 5.2972
 Frc consts  --      0.5341                 0.4741                 2.2088
 IR Inten    --     21.0729                41.1951                12.7630

                     19                     20                     21
                      A                      A                      A
 Frequencies --    888.4126               903.9045               914.6604
 Red. masses --      1.2662                 1.2995                 6.1015
 Frc consts  --      0.5888                 0.6255                 3.0075
 IR Inten    --      0.9059                 4.1074                 6.5802

                     22                     23                     24
                      A                      A                      A
 Frequencies --    921.5845               943.2600               970.2067
 Red. masses --      7.3685                 6.4804                 2.9784
 Frc consts  --      3.6872                 3.3971                 1.6518
 IR Inten    --     33.3761                 9.5954                 0.8674

                     25                     26                     27
                      A                      A                      A
 Frequencies --   1050.3734              1065.6077              1071.3239
 Red. masses --      2.1285                 1.9258                 1.4684
 Frc consts  --      1.3836                 1.2884                 0.9930
 IR Inten    --      0.3898                 3.5314                 2.4209

                     28                     29                     30
                      A                      A                      A
 Frequencies --   1083.7369              1130.4854              1237.1780
 Red. masses --      1.8379                 1.2885                 1.5652
 Frc consts  --      1.2718                 0.9702                 1.4115
 IR Inten    --      1.8958                 3.1433                 8.6123

                     31                     32                     33
                      A                      A                      A
 Frequencies --   1268.7682              1283.3119              1377.0735
 Red. masses --      1.7012                 8.1744                 3.3243
 Frc consts  --      1.6135                 7.9318                 3.7142
 IR Inten    --      1.9090                14.0918                19.0474

                     34                     35                     36
                      A                      A                      A
 Frequencies --   1427.7478              1443.0858              1465.9341
 Red. masses --      2.8191                 1.3389                 6.2518
 Frc consts  --      3.3858                 1.6428                 7.9156
 IR Inten    --      1.2514                 0.7762                 6.3241

                     37                     38                     39
                      A                      A                      A
 Frequencies --   1514.8585              1529.1976              1531.8867
 Red. masses --      1.0436                 4.7696                 1.1603
 Frc consts  --      1.4109                 6.5714                 1.6043
 IR Inten    --      7.6972                80.2637                11.1205

                     40                     41                     42
                      A                      A                      A
 Frequencies --   1592.4849              1633.1522              3042.4708
 Red. masses --      6.0638                 7.4647                 1.0380
 Frc consts  --      9.0604                11.7305                 5.6613
 IR Inten    --      5.2394                68.1073                19.8468

                     43                     44                     45
                      A                      A                      A
 Frequencies --   3094.2262              3133.2949              3219.4135
 Red. masses --      1.1011                 1.0998                 1.0913
 Frc consts  --      6.2113                 6.3617                 6.6640
 IR Inten    --     14.7539                16.4958                 9.8078

                     46                     47                     48
                      A                      A                      A
 Frequencies --   3258.8325              3271.8450              3323.2315
 Red. masses --      1.0954                 1.0965                 1.0982
 Frc consts  --      6.8541                 6.9158                 7.1461
 IR Inten    --      7.1307                 0.2393                 0.3975

 - Thermochemistry -
 -------------------
 Temperature   298.150 Kelvin.  Pressure   1.00000 Atm.
 Atom     1 has atomic number  6 and mass  12.00000

 Molecular mass:   165.02484 amu.
 Principal axes and moments of inertia in atomic units:
                           1         2         3
     Eigenvalues --   927.698762389.189873305.65107
           X            1.00000  -0.00051   0.00000
           Y            0.00051   1.00000   0.00000
           Z           -0.00000  -0.00000   1.00000
 This molecule is an asymmetric top.
 Rotational symmetry number  1.
 Warning -- assumption of classical behavior for rotation
           may cause significant error
 Rotational temperatures (Kelvin)      0.09336     0.03625     0.02620
 Rotational constants (GHZ):           1.94540     0.75538     0.54596
 Zero-point vibrational energy     351483.5 (Joules/Mol)
                                   84.00656 (Kcal/Mol)
 Warning -- explicit consideration of  11 degrees of freedom as
           vibrations may cause significant error
 Vibrational temperatures:     40.24   164.00   210.82   276.14   301.51
          (Kelvin)            400.07   459.33   531.14   644.22   705.68
                              820.71   895.22   907.86  1001.86  1005.14
                             1057.97  1125.23  1210.38  1278.23  1300.52
                             1315.99  1325.95  1357.14  1395.91  1511.25
                             1533.17  1541.40  1559.26  1626.52  1780.02
                             1825.47  1846.40  1981.30  2054.21  2076.28
                             2109.15  2179.54  2200.17  2204.04  2291.23
                             2349.74  4377.44  4451.90  4508.11  4632.02
                             4688.73  4707.46  4781.39

 Zero-point correction=                           0.133873 (Hartree/Particle)
 Thermal correction to Energy=                    0.143212
 Thermal correction to Enthalpy=                  0.144156
 Thermal correction to Gibbs Free Energy=         0.098037
 Sum of electronic and zero-point Energies=           -837.074023
 Sum of electronic and thermal Energies=              -837.064685
 Sum of electronic and thermal Enthalpies=            -837.063741
 Sum of electronic and thermal Free Energies=         -837.109859

                     E (Thermal)             CV                S
                      KCal/Mol        Cal/Mol-Kelvin    Cal/Mol-Kelvin
 Total                   89.867             35.238             97.065
 Electronic               0.000              0.000              0.000
 Translational            0.889              2.981             41.211
 Rotational               0.889              2.981             30.372
 Vibrational             88.089             29.276             25.482
 Vibration     1          0.593              1.984              5.969
 Vibration     2          0.607              1.938              3.200
 Vibration     3          0.617              1.906              2.717
 Vibration     4          0.634              1.851              2.209
 Vibration     5          0.642              1.826              2.047
 Vibration     6          0.679              1.714              1.546
 Vibration     7          0.705              1.637              1.314
 Vibration     8          0.741              1.536              1.083
 Vibration     9          0.807              1.366              0.803
 Vibration    10          0.846              1.271              0.682
 Vibration    11          0.927              1.095              0.503

 Optimization completed.
    -- Stationary point found.
 Normal termination of Gaussian 16 at Tue Dec  8 20:07:39 2020.

 ----------------------------------------------------------------------
 # B3LYP/6-311++G(d,p) empiricaldispersion=gd3bj scf=xqc pop=npa geom=c
 heck
 ----------------------------------------------------------------------

 --------------------------------------
 CID_45099282_JID_1476_Energie_neutraal
 --------------------------------------
 Structure from the checkpoint file:  "JID_1476.chk"
 Charge =  0 Multiplicity = 1

 SCF Done:  E(RB3LYP) =  -837.348490434     A.U. after   15 cycles
 Normal termination of Gaussian 16 at Tue Dec  8 20:08:32 2020.

 ----------------------------------------------------------------------
 # B3LYP/6-311++G(d,p) empiricaldispersion=gd3bj scf=xqc pop=npa geom=c
 heck
 ----------------------------------------------------------------------

 ------------------------------------
 CID_45099282_JID_1476_Energie_kation
 ------------------------------------
 Structure from the checkpoint file:  "JID_1476.chk"
 Charge =  1 Multiplicity = 2

 SCF Done:  E(UB3LYP) =  -837.052294229     A.U. after   22 cycles
 Normal termination of Gaussian 16 at Tue Dec  8 20:11:10 2020.
 Gaussian 16:  ES64L-G16RevA.03 25-Dec-2016

 ----------------------------------------------------------------------
 # B3LYP/6-311++G(d,p) empiricaldispersion=gd3bj scf=xqc pop=npa geom=c
 heck
 ----------------------------------------------------------------------

 -----------------------------------
 CID_45099282_JID_1476_Energie_anion
 -----------------------------------
 Structure from the checkpoint file:  "JID_1476.chk"
 Charge = -1 Multiplicity = 2

                         Standard orientation:
 ---------------------------------------------------------------------
 Center     Atomic      Atomic             Coordinates (Angstroms)
 Number     Number       Type             X           Y           Z
 ---------------------------------------------------------------------
      1          6           0        0.970058    2.487848    0.000119
      2          6           0        1.327512    1.028391    0.000039
      3          6           0        0.412152   -0.011842    0.000005
      4         16           0        1.207481   -1.572409   -0.000047
      5          6           0        2.762636   -0.817983   -0.000027
      6          6           0        2.670492    0.547171   -0.000046
      7          6           0       -1.026129    0.062280    0.000008
      8          6           0       -1.939813    1.089841   -0.000168
      9          6           0       -3.193108    0.425325   -0.000109
     10          7           0       -3.076598   -0.882453    0.000106
     11          8           0       -1.695746   -1.117997    0.000164
     12          1           0        1.871762    3.106394    0.000265
     13          1           0        0.378613    2.757677   -0.883435
     14          1           0        0.378452    2.757546    0.883597
     15          1           0        3.657261   -1.425633   -0.000069
     16          1           0        3.532117    1.206085   -0.000029
     17          1           0       -1.754171    2.150367   -0.000326
     18          1           0       -4.184376    0.861075   -0.000233
 ---------------------------------------------------------------------

 SCF Done:  E(UB3LYP) =  -837.353874304     A.U. after   19 cycles

 The electronic state is 2-A.
 Alpha  occ. eigenvalues --  -88.70853 -19.02884 -14.18509 -10.07232 -10.04964
 Alpha  occ. eigenvalues --  -10.04102 -10.03520 -10.02888 -10.02198 -10.02020
 Alpha  occ. eigenvalues --  -10.01294  -7.79513  -5.75820  -5.75450  -5.75116
 Alpha  occ. eigenvalues --   -0.97225  -0.72942  -0.70372  -0.64072  -0.62075
 Alpha  occ. eigenvalues --   -0.56975  -0.53326  -0.46483  -0.45077  -0.40848
 Alpha  occ. eigenvalues --   -0.39348  -0.34912  -0.31994  -0.31149  -0.29483
 Alpha  occ. eigenvalues --   -0.29003  -0.28615  -0.25185  -0.22870  -0.22625
 Alpha  occ. eigenvalues --   -0.22173  -0.22100  -0.18533  -0.15116  -0.15087
 Alpha  occ. eigenvalues --   -0.13629  -0.10001  -0.06757   0.05611
 Alpha virt. eigenvalues --    0.08860   0.09724   0.10283   0.11788   0.12925
 Alpha virt. eigenvalues --    0.13500   0.14440   0.14783   0.15526   0.16930
 Alpha virt. eigenvalues --    0.16966   0.17150   0.17179   0.18439   0.18446

  Beta  occ. eigenvalues --  -88.70787 -19.02598 -14.18118 -10.07027 -10.05010
  Beta  occ. eigenvalues --  -10.04125 -10.03381 -10.02481 -10.02294 -10.01755
  Beta  occ. eigenvalues --  -10.01199  -7.79454  -5.75792  -5.75424  -5.74895
  Beta  occ. eigenvalues --   -0.96712  -0.72517  -0.69921  -0.63600  -0.61734
  Beta  occ. eigenvalues --   -0.56636  -0.53008  -0.46274  -0.44441  -0.40525
  Beta  occ. eigenvalues --   -0.39115  -0.34639  -0.31801  -0.29932  -0.29335
  Beta  occ. eigenvalues --   -0.28531  -0.28471  -0.25027  -0.22593  -0.22420
  Beta  occ. eigenvalues --   -0.22007  -0.21051  -0.18232  -0.14583  -0.13881
  Beta  occ. eigenvalues --   -0.11918  -0.08946  -0.04865
  Beta virt. eigenvalues --    0.08841   0.09699   0.10270   0.11459   0.11753
  Beta virt. eigenvalues --    0.12935   0.13459   0.14432   0.15524   0.15982
  Beta virt. eigenvalues --    0.16957   0.16986   0.17254   0.17679   0.18480

 Mulliken charges and spin densities:
               1          2
     1  C   -1.155522  -0.025941
     2  C    0.408176   0.196539
     3  C    0.456614   0.094209
     4  S   -0.605451   0.095927
     5  C   -0.230460   0.281936
     6  C    0.070692  -0.053402
     7  C   -0.325739   0.082735
     8  C    0.069196   0.110218
     9  C   -0.274217  -0.026195
    10  N   -0.328124   0.176464
    11  O    0.066594   0.066545
    12  H    0.120129  -0.000156
    13  H    0.125092   0.010224
    14  H    0.125096   0.010221
    15  H    0.172023  -0.021246
    16  H    0.079332   0.005095
    17  H    0.098666  -0.004080
    18  H    0.127902   0.000906
 Sum of Mulliken charges =  -1.00000   1.00000

 Dipole moment (field-independent basis, Debye):
    X=              2.1646    Y=              3.5387    Z=             -0.0003  Tot=              4.1482
 Quadrupole moment (field-independent basis, Debye-Ang):
   XX=           -101.2911   YY=            -84.3434   ZZ=            -81.4457
   XY=             -6.7389   XZ=              0.0014   YZ=              0.0004

 Summary of Natural Population Analysis:

                                       Natural Population
                Natural  -----------------------------------------------
    Atom  No    Charge         Core      Valence    Rydberg      Total
 -----------------------------------------------------------------------
      C    1   -0.29228      0.99965     2.28809    0.00455     3.29228
      C    2    0.01229      0.99946     1.97936    0.00889     2.98771
      C    3   -0.10660      0.99939     2.09627    0.01094     3.10660
      S    4    0.21917      4.99945     2.75729    0.02409     7.78083
      C    5   -0.12264      0.99956     2.11083    0.01225     3.12264
      C    6   -0.16303      0.99951     2.15346    0.01006     3.16303
      C    7    0.18763      0.99946     1.79883    0.01408     2.81237
      C    8   -0.17098      0.99943     2.16300    0.00855     3.17098
      C    9   -0.03704      0.99968     2.02165    0.01571     3.03704
      N   10   -0.04643      0.99971     2.53224    0.01448     3.54643
      O   11   -0.15270      0.99986     3.14057    0.01227     4.15270
      H   12    0.09362      0.00000     0.40545    0.00093     0.40638
      H   13    0.10057      0.00000     0.39807    0.00137     0.39943
      H   14    0.10057      0.00000     0.39806    0.00137     0.39943
      H   15    0.09273      0.00000     0.40615    0.00112     0.40727
      H   16    0.09289      0.00000     0.40597    0.00114     0.40711
      H   17    0.10243      0.00000     0.39660    0.00097     0.39757
      H   18    0.08983      0.00000     0.40904    0.00113     0.41017
 =======================================================================
   * Total *    0.00003     14.99516    27.86093    0.14389    42.99997

 Normal termination of Gaussian 16 at Tue Dec  8 20:13:57 2020.
