 Gaussian 16, Revision A.03,

 -----------------------------------------------------------
 # opt freq B3LYP/6-31G(d) empiricaldispersion=gd3bj scf=xqc
 -----------------------------------------------------------

 ------------------------------
 CID_61904370_JID_6997_neutraal
 ------------------------------
 Symbolic Z-matrix:
 Charge =  0 Multiplicity = 1

 SCF Done:  E(RB3LYP) =  -711.826695779     A.U. after   14 cycles
 SCF Done:  E(RB3LYP) =  -711.830259778     A.U. after   13 cycles
 SCF Done:  E(RB3LYP) =  -711.826933934     A.U. after   12 cycles
 SCF Done:  E(RB3LYP) =  -711.833737548     A.U. after   12 cycles
 SCF Done:  E(RB3LYP) =  -711.834765878     A.U. after   12 cycles
 SCF Done:  E(RB3LYP) =  -711.835973698     A.U. after   12 cycles
 SCF Done:  E(RB3LYP) =  -711.836065923     A.U. after   11 cycles
 SCF Done:  E(RB3LYP) =  -711.836501125     A.U. after   12 cycles
 SCF Done:  E(RB3LYP) =  -711.836464241     A.U. after   12 cycles
 SCF Done:  E(RB3LYP) =  -711.836846406     A.U. after   12 cycles
 SCF Done:  E(RB3LYP) =  -711.837031573     A.U. after    8 cycles
 SCF Done:  E(RB3LYP) =  -711.837032000     A.U. after    7 cycles
 SCF Done:  E(RB3LYP) =  -711.837032225     A.U. after    7 cycles
 SCF Done:  E(RB3LYP) =  -711.837032325     A.U. after    7 cycles
 SCF Done:  E(RB3LYP) =  -711.837032385     A.U. after    6 cycles
 Optimization completed.
    -- Stationary point found.
 Normal termination of Gaussian 16 at Fri Dec 11 01:34:45 2020.

 --------------------------------------------------------------------
 #N Geom=AllCheck Guess=TCheck SCRF=Check GenChk RB3LYP/6-31G(d) Freq
 --------------------------------------------------------------------

 Structure from the checkpoint file:  "JID_6997.chk"
 ------------------------------
 CID_61904370_JID_6997_neutraal
 ------------------------------
 Charge =  0 Multiplicity = 1

 SCF Done:  E(RB3LYP) =  -711.837032385     A.U. after    1 cycles

  Exact polarizability: 160.202   2.140 156.975  -2.452  -0.136 121.476
 Approx polarizability: 217.418   8.048 213.566  -5.072  -1.056 181.390

                      1                      2                      3
                      A                      A                      A
 Frequencies --     27.7596                44.5543                58.5969
 Red. masses --      3.9762                 4.6802                 2.8808
 Frc consts  --      0.0018                 0.0055                 0.0058
 IR Inten    --      0.9998                 2.5648                 0.1120

                      4                      5                      6
                      A                      A                      A
 Frequencies --     72.0799                99.5202               119.0156
 Red. masses --      2.9336                 3.1708                 2.5311
 Frc consts  --      0.0090                 0.0185                 0.0211
 IR Inten    --      0.1238                 0.0282                 0.2170

                      7                      8                      9
                      A                      A                      A
 Frequencies --    132.1439               153.6360               170.8833
 Red. masses --      2.5268                 2.8073                 2.8653
 Frc consts  --      0.0260                 0.0390                 0.0493
 IR Inten    --      0.7932                 1.1216                 2.7837

                     10                     11                     12
                      A                      A                      A
 Frequencies --    186.1503               209.0449               230.7177
 Red. masses --      3.2676                 1.5955                 1.2663
 Frc consts  --      0.0667                 0.0411                 0.0397
 IR Inten    --      0.7568                 1.0226                 1.3574

                     13                     14                     15
                      A                      A                      A
 Frequencies --    234.1748               251.8439               270.2586
 Red. masses --      2.3524                 1.8293                 1.6157
 Frc consts  --      0.0760                 0.0684                 0.0695
 IR Inten    --      7.3652                 2.0156                 0.5597

                     16                     17                     18
                      A                      A                      A
 Frequencies --    289.0365               305.1341               317.0540
 Red. masses --      2.0988                 2.4185                 2.0315
 Frc consts  --      0.1033                 0.1327                 0.1203
 IR Inten    --      0.3341                 1.5646                 2.2250

                     19                     20                     21
                      A                      A                      A
 Frequencies --    339.6293               366.7563               383.2238
 Red. masses --      1.8968                 2.5000                 1.9521
 Frc consts  --      0.1289                 0.1981                 0.1689
 IR Inten    --      0.0172                20.2395                40.1160

                     22                     23                     24
                      A                      A                      A
 Frequencies --    389.4165               398.1275               409.1309
 Red. masses --      2.1109                 1.8185                 3.2848
 Frc consts  --      0.1886                 0.1698                 0.3240
 IR Inten    --     19.7154                79.6383                19.6166

                     25                     26                     27
                      A                      A                      A
 Frequencies --    449.3253               480.4324               527.6491
 Red. masses --      2.7070                 1.8758                 2.7316
 Frc consts  --      0.3220                 0.2551                 0.4481
 IR Inten    --      0.6472                 3.4388                12.6969

                     28                     29                     30
                      A                      A                      A
 Frequencies --    556.2801               611.1415               630.4310
 Red. masses --      2.6037                 1.2101                 3.4707
 Frc consts  --      0.4747                 0.2663                 0.8127
 IR Inten    --      3.1235                 6.4822                 6.5537

                     31                     32                     33
                      A                      A                      A
 Frequencies --    720.5361               763.8273               774.6001
 Red. masses --      2.8399                 2.0509                 4.3424
 Frc consts  --      0.8687                 0.7050                 1.5351
 IR Inten    --     12.7511                19.0498                 6.9278

                     34                     35                     36
                      A                      A                      A
 Frequencies --    784.2256               802.1341               811.0125
 Red. masses --      1.3695                 1.5267                 1.1995
 Frc consts  --      0.4963                 0.5787                 0.4649
 IR Inten    --      2.6636                35.2394                29.4132

                     37                     38                     39
                      A                      A                      A
 Frequencies --    832.9594               841.5575               849.6764
 Red. masses --      1.6911                 1.8586                 1.7892
 Frc consts  --      0.6913                 0.7756                 0.7611
 IR Inten    --     40.2890                18.2907                 2.2977

                     40                     41                     42
                      A                      A                      A
 Frequencies --    884.6244               934.6576               950.0127
 Red. masses --      1.9143                 2.0221                 1.9701
 Frc consts  --      0.8826                 1.0408                 1.0476
 IR Inten    --      2.5945                11.5291                 4.9167

                     43                     44                     45
                      A                      A                      A
 Frequencies --    960.2897               971.6849               976.0761
 Red. masses --      2.3374                 1.6097                 1.9936
 Frc consts  --      1.2700                 0.8954                 1.1190
 IR Inten    --      9.3349                 3.7362                 7.1447

                     46                     47                     48
                      A                      A                      A
 Frequencies --   1010.4956              1061.9402              1076.6461
 Red. masses --      1.9919                 1.5650                 1.4964
 Frc consts  --      1.1983                 1.0398                 1.0220
 IR Inten    --      1.4819                 1.8359                34.7833

                     49                     50                     51
                      A                      A                      A
 Frequencies --   1088.6965              1093.1303              1099.2276
 Red. masses --      1.8241                 1.8420                 1.5195
 Frc consts  --      1.2738                 1.2968                 1.0818
 IR Inten    --     13.8821                 2.4901                 6.0584

                     52                     53                     54
                      A                      A                      A
 Frequencies --   1107.4577              1123.9765              1134.9513
 Red. masses --      2.5391                 2.0870                 1.9656
 Frc consts  --      1.8348                 1.5534                 1.4918
 IR Inten    --      1.2479                 5.6102                11.8245

                     55                     56                     57
                      A                      A                      A
 Frequencies --   1144.4215              1155.6087              1162.8228
 Red. masses --      2.0505                 1.1902                 1.8840
 Frc consts  --      1.5823                 0.9364                 1.5010
 IR Inten    --      5.5817                 4.1080                10.3215

                     58                     59                     60
                      A                      A                      A
 Frequencies --   1178.1184              1184.5313              1204.3851
 Red. masses --      2.1545                 2.2204                 2.4343
 Frc consts  --      1.7619                 1.8356                 2.0804
 IR Inten    --     26.2013                25.4278                25.9015

                     61                     62                     63
                      A                      A                      A
 Frequencies --   1217.9287              1232.2584              1251.1452
 Red. masses --      1.3342                 2.7362                 1.8213
 Frc consts  --      1.1660                 2.4480                 1.6797
 IR Inten    --      1.0211                10.4425                 3.6292

                     64                     65                     66
                      A                      A                      A
 Frequencies --   1261.5876              1284.4817              1316.4168
 Red. masses --      2.2845                 1.4110                 1.1673
 Frc consts  --      2.1423                 1.3717                 1.1918
 IR Inten    --      5.7046                 3.8608                11.4934

                     67                     68                     69
                      A                      A                      A
 Frequencies --   1342.5078              1359.8057              1382.9628
 Red. masses --      1.1252                 1.3575                 2.4102
 Frc consts  --      1.1948                 1.4790                 2.7160
 IR Inten    --      9.8820                31.7936                46.4048

                     70                     71                     72
                      A                      A                      A
 Frequencies --   1395.0273              1403.8165              1408.3037
 Red. masses --      1.3558                 1.4731                 1.4397
 Frc consts  --      1.5545                 1.7104                 1.6824
 IR Inten    --     28.2928                 2.6952                37.7165

                     73                     74                     75
                      A                      A                      A
 Frequencies --   1422.8404              1438.2657              1442.0848
 Red. masses --      1.2616                 1.3124                 1.2785
 Frc consts  --      1.5048                 1.5996                 1.5665
 IR Inten    --     17.2228                 6.6671                 4.6630

                     76                     77                     78
                      A                      A                      A
 Frequencies --   1458.4401              1480.8191              1482.4114
 Red. masses --      1.3165                 1.0935                 1.1525
 Frc consts  --      1.6499                 1.4128                 1.4923
 IR Inten    --      8.1168                 0.7801                 1.4857

                     79                     80                     81
                      A                      A                      A
 Frequencies --   1503.2072              1505.7272              1513.0065
 Red. masses --      1.0892                 1.0954                 1.0736
 Frc consts  --      1.4500                 1.4633                 1.4480
 IR Inten    --      7.3216                 1.4897                 2.1145

                     82                     83                     84
                      A                      A                      A
 Frequencies --   1514.1116              1519.0258              1523.9367
 Red. masses --      1.0784                 1.0913                 1.0965
 Frc consts  --      1.4566                 1.4837                 1.5004
 IR Inten    --      2.7136                10.6450                 1.0687

                     85                     86                     87
                      A                      A                      A
 Frequencies --   1528.0162              1528.6516              1536.5396
 Red. masses --      1.0897                 1.2388                 1.1035
 Frc consts  --      1.4990                 1.7056                 1.5351
 IR Inten    --     10.1874                33.7964                 7.5316

                     88                     89                     90
                      A                      A                      A
 Frequencies --   1537.8088              1545.7848              1556.5956
 Red. masses --      1.1437                 1.0719                 1.0713
 Frc consts  --      1.5936                 1.5091                 1.5294
 IR Inten    --      8.2173                 5.5943                17.8005

                     91                     92                     93
                      A                      A                      A
 Frequencies --   1658.3807              1784.3576              2960.2618
 Red. masses --      1.2603                 7.7284                 1.0744
 Frc consts  --      2.0422                14.4979                 5.5471
 IR Inten    --     70.0310               287.1023                54.3349

                     94                     95                     96
                      A                      A                      A
 Frequencies --   2983.0807              2994.6599              3021.3660
 Red. masses --      1.0560                 1.0749                 1.0634
 Frc consts  --      5.5368                 5.6793                 5.7192
 IR Inten    --     72.8074                44.9244                28.5175

                     97                     98                     99
                      A                      A                      A
 Frequencies --   3028.4587              3037.7750              3050.9217
 Red. masses --      1.0851                 1.0661                 1.0465
 Frc consts  --      5.8637                 5.7964                 5.7391
 IR Inten    --     61.5076                27.2202                26.6976

                    100                    101                    102
                      A                      A                      A
 Frequencies --   3059.7798              3067.0973              3074.9713
 Red. masses --      1.0871                 1.0799                 1.0983
 Frc consts  --      5.9966                 5.9856                 6.1187
 IR Inten    --     43.3987                61.3702                24.0143

                    103                    104                    105
                      A                      A                      A
 Frequencies --   3076.1042              3102.9568              3108.4840
 Red. masses --      1.0394                 1.0891                 1.1012
 Frc consts  --      5.7949                 6.1783                 6.2690
 IR Inten    --     20.0781                25.2283                83.8932

                    106                    107                    108
                      A                      A                      A
 Frequencies --   3112.6791              3144.9815              3147.3596
 Red. masses --      1.1000                 1.0878                 1.0671
 Frc consts  --      6.2794                 6.3395                 6.2279
 IR Inten    --     31.8261                12.7274                27.2345

                    109                    110                    111
                      A                      A                      A
 Frequencies --   3150.3141              3152.0754              3159.3519
 Red. masses --      1.0923                 1.0931                 1.0568
 Frc consts  --      6.3872                 6.3990                 6.2150
 IR Inten    --     15.2261                21.3120                10.3196

                    112                    113                    114
                      A                      A                      A
 Frequencies --   3167.8142              3237.2134              3249.5763
 Red. masses --      1.1005                 1.1175                 1.1140
 Frc consts  --      6.5066                 6.8999                 6.9306
 IR Inten    --     23.8098                 1.1496                14.8414

                    115                    116                    117
                      A                      A                      A
 Frequencies --   3503.7414              3582.4047              3707.9798
 Red. masses --      1.0736                 1.0445                 1.1056
 Frc consts  --      7.7654                 7.8975                 8.9558
 IR Inten    --     30.4845                93.8333               156.1261

 - Thermochemistry -
 -------------------
 Temperature   298.150 Kelvin.  Pressure   1.00000 Atm.
 Atom     1 has atomic number  6 and mass  12.00000

 Molecular mass:   227.19976 amu.
 Principal axes and moments of inertia in atomic units:
                           1         2         3
     Eigenvalues --  2757.936294469.258765990.36787
           X            0.99999  -0.00083   0.00458
           Y            0.00086   0.99998  -0.00571
           Z           -0.00458   0.00571   0.99997
 This molecule is an asymmetric top.
 Rotational symmetry number  1.
 Warning -- assumption of classical behavior for rotation
           may cause significant error
 Rotational temperatures (Kelvin)      0.03141     0.01938     0.01446
 Rotational constants (GHZ):           0.65438     0.40381     0.30127
 Zero-point vibrational energy     978635.6 (Joules/Mol)
                                  233.89952 (Kcal/Mol)
 Warning -- explicit consideration of  29 degrees of freedom as
           vibrations may cause significant error
 Vibrational temperatures:     39.94    64.10    84.31   103.71   143.19
          (Kelvin)            171.24   190.13   221.05   245.86   267.83
                              300.77   331.95   336.93   362.35   388.84
                              415.86   439.02   456.17   488.65   527.68
                              551.37   560.28   572.82   588.65   646.48
                              691.23   759.17   800.36   879.30   907.05
                             1036.69  1098.98  1114.48  1128.33  1154.09
                             1166.87  1198.44  1210.81  1222.49  1272.78
                             1344.76  1366.86  1381.64  1398.04  1404.36
                             1453.88  1527.90  1549.05  1566.39  1572.77
                             1581.54  1593.38  1617.15  1632.94  1646.57
                             1662.66  1673.04  1695.05  1704.28  1732.84
                             1752.33  1772.94  1800.12  1815.14  1848.08
                             1894.03  1931.57  1956.46  1989.77  2007.13
                             2019.78  2026.23  2047.15  2069.34  2074.84
                             2098.37  2130.57  2132.86  2162.78  2166.41
                             2176.88  2178.47  2185.54  2192.61  2198.47
                             2199.39  2210.74  2212.56  2224.04  2239.59
                             2386.04  2567.29  4259.16  4291.99  4308.65
                             4347.07  4357.28  4370.68  4389.60  4402.34
                             4412.87  4424.20  4425.83  4464.46  4472.42
                             4478.45  4524.93  4528.35  4532.60  4535.13
                             4545.60  4557.78  4657.63  4675.42  5041.10
                             5154.28  5334.96

 Zero-point correction=                           0.372743 (Hartree/Particle)
 Thermal correction to Energy=                    0.391334
 Thermal correction to Enthalpy=                  0.392278
 Thermal correction to Gibbs Free Energy=         0.326586
 Sum of electronic and zero-point Energies=           -711.464290
 Sum of electronic and thermal Energies=              -711.445698
 Sum of electronic and thermal Enthalpies=            -711.444754
 Sum of electronic and thermal Free Energies=         -711.510447

                     E (Thermal)             CV                S
                      KCal/Mol        Cal/Mol-Kelvin    Cal/Mol-Kelvin
 Total                  245.566             70.850            138.262
 Electronic               0.000              0.000              0.000
 Translational            0.889              2.981             42.164
 Rotational               0.889              2.981             32.668
 Vibrational            243.788             64.889             63.429
 Vibration     1          0.593              1.984              5.983
 Vibration     2          0.595              1.980              5.046
 Vibration     3          0.596              1.974              4.504
 Vibration     4          0.598              1.967              4.096
 Vibration     5          0.604              1.949              3.464
 Vibration     6          0.609              1.933              3.116
 Vibration     7          0.612              1.921              2.915
 Vibration     8          0.619              1.899              2.627
 Vibration     9          0.626              1.878              2.426
 Vibration    10          0.632              1.859              2.266
 Vibration    11          0.642              1.827              2.052
 Vibration    12          0.652              1.794              1.873
 Vibration    13          0.654              1.789              1.847
 Vibration    14          0.664              1.760              1.718
 Vibration    15          0.674              1.728              1.595
 Vibration    16          0.686              1.694              1.480
 Vibration    17          0.696              1.664              1.389
 Vibration    18          0.704              1.641              1.325
 Vibration    19          0.720              1.596              1.214
 Vibration    20          0.740              1.541              1.093
 Vibration    21          0.752              1.506              1.026
 Vibration    22          0.757              1.493              1.002
 Vibration    23          0.764              1.474              0.970
 Vibration    24          0.773              1.450              0.930
 Vibration    25          0.808              1.362              0.798
 Vibration    26          0.837              1.293              0.709
 Vibration    27          0.883              1.189              0.592
 Vibration    28          0.912              1.126              0.531
 Vibration    29          0.970              1.008              0.431

                           ! Non-Optimized Parameters !
 Normal termination of Gaussian 16 at Fri Dec 11 01:50:58 2020.

 ----------------------------------------------------------------------
 # B3LYP/6-311++G(d,p) empiricaldispersion=gd3bj scf=xqc pop=npa geom=c
 heck
 ----------------------------------------------------------------------

 --------------------------------------
 CID_61904370_JID_6997_Energie_neutraal
 --------------------------------------
 Structure from the checkpoint file:  "JID_6997.chk"
 Charge =  0 Multiplicity = 1

 SCF Done:  E(RB3LYP) =  -712.048561326     A.U. after   14 cycles
 Normal termination of Gaussian 16 at Fri Dec 11 01:58:05 2020.

 ----------------------------------------------------------------------
 # B3LYP/6-311++G(d,p) empiricaldispersion=gd3bj scf=xqc pop=npa geom=c
 heck
 ----------------------------------------------------------------------

 ------------------------------------
 CID_61904370_JID_6997_Energie_kation
 ------------------------------------
 Structure from the checkpoint file:  "JID_6997.chk"
 Charge =  1 Multiplicity = 2

 SCF Done:  E(UB3LYP) =  -711.762942345     A.U. after   24 cycles
 Normal termination of Gaussian 16 at Fri Dec 11 02:14:15 2020.
 Gaussian 16:  ES64L-G16RevA.03 25-Dec-2016

 ----------------------------------------------------------------------
 # B3LYP/6-311++G(d,p) empiricaldispersion=gd3bj scf=xqc pop=npa geom=c
 heck
 ----------------------------------------------------------------------

 -----------------------------------
 CID_61904370_JID_6997_Energie_anion
 -----------------------------------
 Structure from the checkpoint file:  "JID_6997.chk"
 Charge = -1 Multiplicity = 2

                         Standard orientation:
 ---------------------------------------------------------------------
 Center     Atomic      Atomic             Coordinates (Angstroms)
 Number     Number       Type             X           Y           Z
 ---------------------------------------------------------------------
      1          6           0        2.726697   -1.047520    1.713515
      2          6           0        3.402203   -1.401361    0.386036
      3          6           0        2.467299   -1.454537   -0.833416
      4          6           0        1.982421   -0.087273   -1.336749
      5          7           0        0.851045    0.479039   -0.570675
      6          6           0       -0.418177   -0.117166   -1.030084
      7          6           0       -1.533217   -0.461293    0.009194
      8          6           0       -0.972669   -0.642548    1.434498
      9          6           0       -2.669848    0.588484    0.118624
     10          8           0       -3.808901    0.249003    0.425155
     11          7           0       -2.347555    1.887244   -0.110409
     12          7           0       -2.216591   -1.655128   -0.518610
     13          6           0       -1.610093   -2.947976   -0.241359
     14          6           0        0.872394    1.919358   -0.612607
     15          6           0        0.590122    2.729524    0.645560
     16          6           0        1.987604    2.632731    0.099231
     17          1           0        2.193996   -0.095869    1.651644
     18          1           0        3.462429   -0.987781    2.523974
     19          1           0        1.990954   -1.811710    1.989973
     20          1           0        4.205788   -0.679942    0.177789
     21          1           0        3.895674   -2.376970    0.489454
     22          1           0        3.007580   -1.933044   -1.661116
     23          1           0        1.608703   -2.103594   -0.617187
     24          1           0        2.815775    0.618387   -1.274012
     25          1           0        1.719882   -0.159262   -2.407236
     26          1           0       -0.860732    0.478843   -1.845078
     27          1           0       -0.162953   -1.075132   -1.481730
     28          1           0       -0.557205    0.289207    1.823029
     29          1           0       -1.775795   -0.972397    2.101305
     30          1           0       -0.171162   -1.383117    1.446290
     31          1           0       -1.389471    2.189769   -0.204318
     32          1           0       -3.057736    2.576928    0.092348
     33          1           0       -3.171696   -1.626370   -0.167344
     34          1           0       -1.516349   -3.207474    0.826695
     35          1           0       -2.216234   -3.721887   -0.723449
     36          1           0       -0.607045   -3.005727   -0.681514
     37          1           0        0.546687    2.375271   -1.557198
     38          1           0        0.067330    3.678678    0.553323
     39          1           0        0.371278    2.176244    1.551951
     40          1           0        2.692082    2.017377    0.649836
     41          1           0        2.422720    3.506928   -0.375453
 ---------------------------------------------------------------------

 SCF Done:  E(UB3LYP) =  -712.036178694     A.U. after   33 cycles
 SCF Done:  E(UB3LYP) =  -712.036178694     a.u. after    1 cycles

 The electronic state is 2-A.
 Alpha  occ. eigenvalues --  -19.00228 -14.24057 -14.21997 -14.20337 -10.18454
 Alpha  occ. eigenvalues --  -10.12816 -10.11646 -10.10446 -10.10100 -10.10007
 Alpha  occ. eigenvalues --  -10.08533 -10.08261 -10.07514 -10.07386 -10.07110
 Alpha  occ. eigenvalues --  -10.06222  -0.95365  -0.84759  -0.81665  -0.81627
 Alpha  occ. eigenvalues --   -0.75570  -0.70019  -0.67558  -0.62613  -0.60086
 Alpha  occ. eigenvalues --   -0.58545  -0.54666  -0.53759  -0.51753  -0.49055
 Alpha  occ. eigenvalues --   -0.48057  -0.46417  -0.45306  -0.42169  -0.40888
 Alpha  occ. eigenvalues --   -0.39700  -0.38432  -0.37506  -0.36122  -0.35837
 Alpha  occ. eigenvalues --   -0.34611  -0.33865  -0.33307  -0.32466  -0.31338
 Alpha  occ. eigenvalues --   -0.30507  -0.30331  -0.29877  -0.29111  -0.28452
 Alpha  occ. eigenvalues --   -0.27782  -0.27376  -0.26499  -0.25352  -0.24562
 Alpha  occ. eigenvalues --   -0.24210  -0.23506  -0.21776  -0.20406  -0.18767
 Alpha  occ. eigenvalues --   -0.17300  -0.13864  -0.13196   0.04104
 Alpha virt. eigenvalues --    0.05614   0.06517   0.06997   0.07574   0.08571
 Alpha virt. eigenvalues --    0.08745   0.08908   0.09388   0.09909   0.10375
 Alpha virt. eigenvalues --    0.10908   0.11377   0.11669   0.11813   0.12428

  Beta  occ. eigenvalues --  -19.00224 -14.24032 -14.21982 -14.20335 -10.18453
  Beta  occ. eigenvalues --  -10.12812 -10.11633 -10.10442 -10.10091 -10.09993
  Beta  occ. eigenvalues --  -10.08504 -10.08239 -10.07502 -10.07367 -10.07102
  Beta  occ. eigenvalues --  -10.06206  -0.95358  -0.84736  -0.81647  -0.81601
  Beta  occ. eigenvalues --   -0.75538  -0.69991  -0.67541  -0.62587  -0.60067
  Beta  occ. eigenvalues --   -0.58522  -0.54627  -0.53722  -0.51684  -0.49009
  Beta  occ. eigenvalues --   -0.48013  -0.46385  -0.45277  -0.42138  -0.40858
  Beta  occ. eigenvalues --   -0.39624  -0.38413  -0.37471  -0.36107  -0.35822
  Beta  occ. eigenvalues --   -0.34592  -0.33848  -0.33278  -0.32442  -0.31321
  Beta  occ. eigenvalues --   -0.30487  -0.30314  -0.29848  -0.29095  -0.28435
  Beta  occ. eigenvalues --   -0.27754  -0.27356  -0.26481  -0.25327  -0.24530
  Beta  occ. eigenvalues --   -0.24186  -0.23477  -0.21745  -0.20377  -0.18748
  Beta  occ. eigenvalues --   -0.17282  -0.13831  -0.13137
  Beta virt. eigenvalues --    0.06050   0.06961   0.07056   0.07344   0.08291
  Beta virt. eigenvalues --    0.08948   0.09065   0.09221   0.09507   0.10066
  Beta virt. eigenvalues --    0.10701   0.11359   0.11666   0.11881   0.12155

 Mulliken charges and spin densities:
               1          2
     1  C    0.153514  -0.511899
     2  C   -0.292443  -0.214740
     3  C   -0.474993   0.555653
     4  C    0.388011  -0.801973
     5  N    0.483150   0.061366
     6  C   -0.064920  -0.687653
     7  C    0.210621   0.129911
     8  C   -0.008777  -0.540208
     9  C   -0.742465   0.521259
    10  O   -0.333028  -0.000832
    11  N   -0.351720  -0.070654
    12  N   -0.104559   0.049982
    13  C    0.094222  -0.433779
    14  C   -1.493572   1.053074
    15  C    1.143057  -1.554719
    16  C    0.544394  -0.814120
    17  H    0.622932  -0.510188
    18  H   -0.198220   0.349660
    19  H   -0.157649   0.283588
    20  H   -0.046227   0.171407
    21  H   -0.226597   0.390930
    22  H   -0.280290   0.457271
    23  H    0.217280  -0.134809
    24  H   -0.064837   0.220042
    25  H    0.091022   0.057111
    26  H    0.096180   0.085915
    27  H    0.324979  -0.221994
    28  H   -0.024787   0.131433
    29  H    0.110924   0.089237
    30  H    0.410787  -0.303158
    31  H    0.609680  -0.292496
    32  H   -0.146960   0.472949
    33  H    0.242608   0.010011
    34  H   -0.039870   0.173334
    35  H    0.020414   0.134393
    36  H   -0.198432   0.319586
    37  H   -0.449829   0.641744
    38  H   -0.602637   0.797913
    39  H    0.025657   0.124334
    40  H   -0.079384   0.228809
    41  H   -0.407240   0.582311
 Sum of Mulliken charges =  -1.00000   1.00000

 Dipole moment (field-independent basis, Debye):
    X=             -1.1931    Y=             -4.1190    Z=              0.3167  Tot=              4.3000
 Quadrupole moment (field-independent basis, Debye-Ang):
   XX=           -176.5329   YY=           -174.8967   ZZ=           -137.1870
   XY=              6.4073   XZ=             -0.0937   YZ=              2.9630

 Summary of Natural Population Analysis:

                                       Natural Population
                Natural  -----------------------------------------------
    Atom  No    Charge         Core      Valence    Rydberg      Total
 -----------------------------------------------------------------------
      C    1   -0.28662      0.99966     2.28116    0.00580     3.28662
      C    2   -0.18698      0.99964     2.17943    0.00792     3.18698
      C    3   -0.19516      0.99962     2.18661    0.00893     3.19516
      C    4   -0.08006      0.99959     2.06993    0.01054     3.08006
      N    5   -0.29452      0.99968     2.77960    0.01524     3.79452
      C    6   -0.08892      0.99956     2.07635    0.01302     3.08892
      C    7    0.02741      0.99954     1.96085    0.01220     2.97259
      C    8   -0.29302      0.99962     2.28689    0.00652     3.29302
      C    9    0.34618      0.99963     1.62953    0.02466     2.65382
      O   10   -0.33345      0.99987     3.32796    0.00561     4.33345
      N   11   -0.39853      0.99968     2.89065    0.00819     3.89853
      N   12   -0.34860      0.99972     2.83779    0.01109     3.84860
      C   13   -0.18304      0.99966     2.17508    0.00831     3.18304
      C   14   -0.02391      0.99955     2.00955    0.01481     3.02391
      C   15   -0.21259      0.99960     2.20194    0.01104     3.21259
      C   16   -0.19550      0.99959     2.18586    0.01005     3.19550
      H   17    0.10174      0.00000     0.39647    0.00179     0.39826
      H   18    0.09570      0.00000     0.40344    0.00085     0.40430
      H   19    0.09358      0.00000     0.40524    0.00119     0.40642
      H   20    0.09131      0.00000     0.40744    0.00125     0.40869
      H   21    0.09544      0.00000     0.40328    0.00127     0.40456
      H   22    0.09820      0.00000     0.40073    0.00107     0.40180
      H   23    0.09455      0.00000     0.40378    0.00167     0.40545
      H   24    0.09924      0.00000     0.39906    0.00170     0.40076
      H   25    0.08463      0.00000     0.41426    0.00111     0.41537
      H   26    0.09493      0.00000     0.40330    0.00177     0.40507
      H   27    0.10400      0.00000     0.39433    0.00167     0.39600
      H   28    0.10491      0.00000     0.39387    0.00121     0.39509
      H   29    0.10265      0.00000     0.39658    0.00077     0.39735
      H   30    0.10501      0.00000     0.39371    0.00128     0.39499
      H   31    0.20546      0.00000     0.29110    0.00344     0.29454
      H   32    0.19702      0.00000     0.30068    0.00230     0.30298
      H   33    0.18986      0.00000     0.30784    0.00230     0.31014
      H   34    0.08142      0.00000     0.41748    0.00110     0.41858
      H   35    0.09531      0.00000     0.40404    0.00065     0.40469
      H   36    0.08938      0.00000     0.40930    0.00131     0.41062
      H   37    0.09393      0.00000     0.40395    0.00212     0.40607
      H   38    0.10850      0.00000     0.38815    0.00336     0.39150
      H   39    0.10573      0.00000     0.39273    0.00153     0.39427
      H   40    0.10670      0.00000     0.39205    0.00125     0.39330
      H   41    0.10809      0.00000     0.39027    0.00164     0.39191
 =======================================================================
   * Total *   -0.00000     15.99420    46.79228    0.21352    63.00000

 Normal termination of Gaussian 16 at Fri Dec 11 02:36:27 2020.
