 Gaussian 16, Revision A.03,

 -----------------------------------------------------------
 # opt freq B3LYP/6-31G(d) empiricaldispersion=gd3bj scf=xqc
 -----------------------------------------------------------

 -------------------------------
 CID_151907844_JID_1591_neutraal
 -------------------------------
 Symbolic Z-matrix:
 Charge =  0 Multiplicity = 1

 SCF Done:  E(RB3LYP) =  -580.829082828     A.U. after   16 cycles
 SCF Done:  E(RB3LYP) =  -580.837910594     A.U. after   15 cycles
 SCF Done:  E(RB3LYP) =  -580.839953394     A.U. after   14 cycles
 SCF Done:  E(RB3LYP) =  -580.840901803     A.U. after   15 cycles
 SCF Done:  E(RB3LYP) =  -580.841423693     A.U. after   14 cycles
 SCF Done:  E(RB3LYP) =  -580.841923222     A.U. after   13 cycles
 SCF Done:  E(RB3LYP) =  -580.842009718     A.U. after   12 cycles
 SCF Done:  E(RB3LYP) =  -580.842040558     A.U. after   12 cycles
 SCF Done:  E(RB3LYP) =  -580.842059080     A.U. after   11 cycles
 SCF Done:  E(RB3LYP) =  -580.842069854     A.U. after   11 cycles
 SCF Done:  E(RB3LYP) =  -580.842085355     A.U. after    9 cycles
 SCF Done:  E(RB3LYP) =  -580.842085763     A.U. after    8 cycles
 SCF Done:  E(RB3LYP) =  -580.842086016     A.U. after    8 cycles
 SCF Done:  E(RB3LYP) =  -580.842086071     A.U. after    7 cycles
 Optimization completed.
    -- Stationary point found.
 Normal termination of Gaussian 16 at Tue Dec  8 20:30:16 2020.

 --------------------------------------------------------------------
 #N Geom=AllCheck Guess=TCheck SCRF=Check GenChk RB3LYP/6-31G(d) Freq
 --------------------------------------------------------------------

 Structure from the checkpoint file:  "JID_1591.chk"
 -------------------------------
 CID_151907844_JID_1591_neutraal
 -------------------------------
 Charge =  0 Multiplicity = 1

 SCF Done:  E(RB3LYP) =  -580.842086071     A.U. after    1 cycles

  Exact polarizability: 118.465   2.860  74.273  -9.367   2.643  52.728
 Approx polarizability: 191.089  14.214 113.941 -24.816   7.869  82.817

                      1                      2                      3
                      A                      A                      A
 Frequencies --     39.2453                57.6140                69.5992
 Red. masses --      3.6339                 4.1232                 7.5960
 Frc consts  --      0.0033                 0.0081                 0.0217
 IR Inten    --      3.1437                 1.5429                 2.4806

                      4                      5                      6
                      A                      A                      A
 Frequencies --     84.6760               120.0733               169.9526
 Red. masses --      8.1575                 6.5206                 6.7236
 Frc consts  --      0.0345                 0.0554                 0.1144
 IR Inten    --      1.7080                 0.5796                 0.6521

                      7                      8                      9
                      A                      A                      A
 Frequencies --    230.8733               241.1083               344.3573
 Red. masses --      2.1656                 1.8099                 4.9543
 Frc consts  --      0.0680                 0.0620                 0.3461
 IR Inten    --      3.2774                 4.0444                 2.9916

                     10                     11                     12
                      A                      A                      A
 Frequencies --    378.8020               435.8721               467.8327
 Red. masses --      2.2345                 4.9112                 2.1629
 Frc consts  --      0.1889                 0.5497                 0.2789
 IR Inten    --      1.2618                 1.6565                86.9749

                     13                     14                     15
                      A                      A                      A
 Frequencies --    475.2690               522.2586               563.3763
 Red. masses --      1.4953                 8.5942                 2.0032
 Frc consts  --      0.1990                 1.3811                 0.3746
 IR Inten    --     56.6589                 0.1060                70.3176

                     16                     17                     18
                      A                      A                      A
 Frequencies --    573.0718               579.2753               662.1175
 Red. masses --      2.8110                 5.0982                 4.0016
 Frc consts  --      0.5439                 1.0079                 1.0336
 IR Inten    --     86.7884                21.6314                45.2009

                     19                     20                     21
                      A                      A                      A
 Frequencies --    747.2300               773.5117               786.5160
 Red. masses --     11.5475                 3.6972                 1.4734
 Frc consts  --      3.7988                 1.3033                 0.5370
 IR Inten    --     25.3369                20.8533                19.5578

                     22                     23                     24
                      A                      A                      A
 Frequencies --    854.9447               946.2647              1015.2602
 Red. masses --      5.7451                 2.8534                 2.9661
 Frc consts  --      2.4741                 1.5053                 1.8013
 IR Inten    --     11.0618                27.6639                 6.4036

                     25                     26                     27
                      A                      A                      A
 Frequencies --   1103.4499              1117.7402              1138.6555
 Red. masses --      2.7311                 1.8360                 2.1861
 Frc consts  --      1.9593                 1.3514                 1.6700
 IR Inten    --     74.1153                28.0142                 9.8533

                     28                     29                     30
                      A                      A                      A
 Frequencies --   1213.2220              1305.5715              1323.9077
 Red. masses --      2.5696                 2.9848                 4.0142
 Frc consts  --      2.2285                 2.9975                 4.1454
 IR Inten    --     87.5604               211.7110               507.9631

                     31                     32                     33
                      A                      A                      A
 Frequencies --   1353.3814              1405.0480              1421.1124
 Red. masses --      3.7503                 1.5901                 1.5253
 Frc consts  --      4.0472                 1.8496                 1.8150
 IR Inten    --    310.7576               202.3128               133.2811

                     34                     35                     36
                      A                      A                      A
 Frequencies --   1442.8402              1510.0727              1524.1051
 Red. masses --      1.2934                 1.0896                 1.0455
 Frc consts  --      1.5865                 1.4639                 1.4309
 IR Inten    --     10.8273                22.6936                 2.2872

                     37                     38                     39
                      A                      A                      A
 Frequencies --   1531.9057              1649.9186              1781.5267
 Red. masses --      1.0573                 1.1947                11.6637
 Frc consts  --      1.4619                 1.9162                21.8108
 IR Inten    --      6.9362               119.9390               254.3059

                     40                     41                     42
                      A                      A                      A
 Frequencies --   1838.9505              2307.1112              3061.5123
 Red. masses --      9.2603                13.9931                 1.0356
 Frc consts  --     18.4508                43.8836                 5.7189
 IR Inten    --    370.4028               546.7356                16.4892

                     43                     44                     45
                      A                      A                      A
 Frequencies --   3107.7198              3128.3070              3146.6955
 Red. masses --      1.0653                 1.1023                 1.0996
 Frc consts  --      6.0616                 6.3557                 6.4147
 IR Inten    --     22.1208                23.7567                14.4180

                     46                     47                     48
                      A                      A                      A
 Frequencies --   3169.6432              3576.9453              3691.7034
 Red. masses --      1.1045                 1.0466                 1.1021
 Frc consts  --      6.5380                 7.8899                 8.8498
 IR Inten    --     13.1258                41.0597                34.8827

 - Thermochemistry -
 -------------------
 Temperature   298.150 Kelvin.  Pressure   1.00000 Atm.
 Atom     1 has atomic number  6 and mass  12.00000

 Molecular mass:   157.05997 amu.
 Principal axes and moments of inertia in atomic units:
                           1         2         3
     Eigenvalues --   997.829742265.510662952.94293
           X            0.99976  -0.02189  -0.00152
           Y            0.02183   0.99934  -0.02900
           Z            0.00215   0.02896   0.99958
 This molecule is an asymmetric top.
 Rotational symmetry number  1.
 Warning -- assumption of classical behavior for rotation
           may cause significant error
 Rotational temperatures (Kelvin)      0.08680     0.03823     0.02933
 Rotational constants (GHZ):           1.80867     0.79662     0.61117
 Zero-point vibrational energy     352839.4 (Joules/Mol)
                                   84.33065 (Kcal/Mol)
 Warning -- explicit consideration of  17 degrees of freedom as
           vibrations may cause significant error
 Vibrational temperatures:     56.47    82.89   100.14   121.83   172.76
          (Kelvin)            244.52   332.18   346.90   495.45   545.01
                              627.12   673.11   683.81   751.41   810.57
                              824.52   833.45   952.64  1075.10  1112.91
                             1131.62  1230.07  1361.46  1460.73  1587.62
                             1608.18  1638.27  1745.56  1878.43  1904.81
                             1947.21  2021.55  2044.66  2075.93  2172.66
                             2192.85  2204.07  2373.86  2563.22  2645.84
                             3319.42  4404.83  4471.32  4500.94  4527.39
                             4560.41  5146.43  5311.54

 Zero-point correction=                           0.134389 (Hartree/Particle)
 Thermal correction to Energy=                    0.145671
 Thermal correction to Enthalpy=                  0.146615
 Thermal correction to Gibbs Free Energy=         0.095880
 Sum of electronic and zero-point Energies=           -580.707697
 Sum of electronic and thermal Energies=              -580.696415
 Sum of electronic and thermal Enthalpies=            -580.695471
 Sum of electronic and thermal Free Energies=         -580.746206

                     E (Thermal)             CV                S
                      KCal/Mol        Cal/Mol-Kelvin    Cal/Mol-Kelvin
 Total                   91.410             39.197            106.781
 Electronic               0.000              0.000              0.000
 Translational            0.889              2.981             41.064
 Rotational               0.889              2.981             30.280
 Vibrational             89.632             33.236             35.437
 Vibration     1          0.594              1.981              5.297
 Vibration     2          0.596              1.974              4.537
 Vibration     3          0.598              1.969              4.165
 Vibration     4          0.601              1.960              3.779
 Vibration     5          0.609              1.933              3.099
 Vibration     6          0.625              1.879              2.436
 Vibration     7          0.653              1.794              1.872
 Vibration     8          0.658              1.777              1.795
 Vibration     9          0.723              1.587              1.192
 Vibration    10          0.749              1.515              1.044
 Vibration    11          0.796              1.392              0.840
 Vibration    12          0.825              1.321              0.744
 Vibration    13          0.832              1.305              0.723
 Vibration    14          0.877              1.201              0.605
 Vibration    15          0.919              1.111              0.517
 Vibration    16          0.929              1.089              0.498
 Vibration    17          0.936              1.076              0.487

                           ! Non-Optimized Parameters !
 Normal termination of Gaussian 16 at Tue Dec  8 20:33:44 2020.

 ----------------------------------------------------------------------
 # B3LYP/6-311++G(d,p) empiricaldispersion=gd3bj scf=xqc pop=npa geom=c
 heck
 ----------------------------------------------------------------------

 ---------------------------------------
 CID_151907844_JID_1591_Energie_neutraal
 ---------------------------------------
 Structure from the checkpoint file:  "JID_1591.chk"
 Charge =  0 Multiplicity = 1

 SCF Done:  E(RB3LYP) =  -581.020129517     A.U. after   16 cycles
 Normal termination of Gaussian 16 at Tue Dec  8 20:35:23 2020.

 ----------------------------------------------------------------------
 # B3LYP/6-311++G(d,p) empiricaldispersion=gd3bj scf=xqc pop=npa geom=c
 heck
 ----------------------------------------------------------------------

 -------------------------------------
 CID_151907844_JID_1591_Energie_kation
 -------------------------------------
 Structure from the checkpoint file:  "JID_1591.chk"
 Charge =  1 Multiplicity = 2

 SCF Done:  E(UB3LYP) =  -580.665190771     A.U. after   33 cycles
 SCF Done:  E(UB3LYP) =  -580.665594674     a.u. after    4 cycles
 Normal termination of Gaussian 16 at Tue Dec  8 20:59:49 2020.
 Gaussian 16:  ES64L-G16RevA.03 25-Dec-2016

 ----------------------------------------------------------------------
 # B3LYP/6-311++G(d,p) empiricaldispersion=gd3bj scf=xqc pop=npa geom=c
 heck
 ----------------------------------------------------------------------

 ------------------------------------
 CID_151907844_JID_1591_Energie_anion
 ------------------------------------
 Structure from the checkpoint file:  "JID_1591.chk"
 Charge = -1 Multiplicity = 2

                         Standard orientation:
 ---------------------------------------------------------------------
 Center     Atomic      Atomic             Coordinates (Angstroms)
 Number     Number       Type             X           Y           Z
 ---------------------------------------------------------------------
      1          6           0        2.169924   -1.711611    0.817248
      2          6           0        1.638232   -1.201989   -0.519304
      3          7           0        0.650166   -0.113853   -0.351193
      4          6           0        1.091134    1.176244    0.083162
      5          8           0        0.558580    1.807450    0.971240
      6          7           0        2.234124    1.592537   -0.562157
      7          6           0       -0.667496   -0.517110   -0.195972
      8          8           0       -1.013961   -1.682739   -0.142216
      9          7           0       -1.568672    0.582351   -0.222863
     10          7           0       -2.754892    0.265139   -0.025006
     11          7           0       -3.864372    0.107451    0.143591
     12          1           0        2.669690   -0.910396    1.371544
     13          1           0        2.893581   -2.517263    0.652098
     14          1           0        1.348912   -2.102482    1.424383
     15          1           0        2.453595   -0.831676   -1.143960
     16          1           0        1.130624   -1.999514   -1.061761
     17          1           0        2.383492    1.311760   -1.521788
     18          1           0        2.497916    2.543303   -0.340115
 ---------------------------------------------------------------------

 SCF Done:  E(UB3LYP) =  -581.020244724     A.U. after   33 cycles
 SCF Done:  E(UB3LYP) =  -581.020244724     a.u. after    1 cycles

 The electronic state is 2-A.
 Alpha  occ. eigenvalues --  -18.98532 -18.98464 -14.34484 -14.25645 -14.24203
 Alpha  occ. eigenvalues --  -14.23884 -14.22042 -10.19598 -10.19040 -10.10258
 Alpha  occ. eigenvalues --  -10.06181  -1.02189  -0.95787  -0.93833  -0.85234
 Alpha  occ. eigenvalues --   -0.83365  -0.79047  -0.66183  -0.58287  -0.54354
 Alpha  occ. eigenvalues --   -0.49955  -0.44817  -0.40516  -0.39400  -0.39082
 Alpha  occ. eigenvalues --   -0.37512  -0.35095  -0.34715  -0.33342  -0.32227
 Alpha  occ. eigenvalues --   -0.31926  -0.29835  -0.28235  -0.27499  -0.25456
 Alpha  occ. eigenvalues --   -0.22808  -0.18092  -0.16971  -0.16034  -0.15116
 Alpha  occ. eigenvalues --   -0.14783   0.04414
 Alpha virt. eigenvalues --    0.06588   0.08086   0.08497   0.09291   0.11044
 Alpha virt. eigenvalues --    0.11702   0.12450   0.13184   0.13907   0.14207
 Alpha virt. eigenvalues --    0.16031   0.16950   0.17542   0.18031   0.18503

  Beta  occ. eigenvalues --  -18.98467 -18.98445 -14.34159 -14.25284 -14.24202
  Beta  occ. eigenvalues --  -14.23956 -14.21957 -10.19565 -10.18910 -10.10229
  Beta  occ. eigenvalues --  -10.06169  -1.01646  -0.95670  -0.93714  -0.85011
  Beta  occ. eigenvalues --   -0.83298  -0.78932  -0.66105  -0.58025  -0.54259
  Beta  occ. eigenvalues --   -0.49766  -0.44672  -0.40070  -0.39241  -0.38547
  Beta  occ. eigenvalues --   -0.36919  -0.34915  -0.34481  -0.32682  -0.32007
  Beta  occ. eigenvalues --   -0.31842  -0.29726  -0.27904  -0.27439  -0.25416
  Beta  occ. eigenvalues --   -0.22381  -0.17906  -0.16780  -0.15911  -0.15039
  Beta  occ. eigenvalues --   -0.14580
  Beta virt. eigenvalues --    0.07646   0.08752   0.08908   0.09780   0.09929
  Beta virt. eigenvalues --    0.11331   0.12293   0.12814   0.13534   0.14011
  Beta virt. eigenvalues --    0.14353   0.16082   0.17168   0.17607   0.18295

 Mulliken charges and spin densities:
               1          2
     1  C   -0.266033  -0.140403
     2  C    0.281392  -0.578185
     3  N   -0.037207   0.027332
     4  C    0.626348  -0.653127
     5  O   -0.300702   0.008856
     6  N   -0.391236   0.053951
     7  C    0.326809  -0.125338
     8  O   -0.362561   0.019005
     9  N   -0.007010  -0.298987
    10  N    0.363050   0.304937
    11  N   -0.481602   0.297333
    12  H    0.089785   0.068932
    13  H   -0.064545   0.191935
    14  H    0.102583   0.054096
    15  H   -0.419073   0.544266
    16  H    0.155764   0.039395
    17  H   -0.435545   0.700675
    18  H   -0.180217   0.485326
 Sum of Mulliken charges =  -1.00000   1.00000

 Dipole moment (field-independent basis, Debye):
    X=             -0.9319    Y=             -2.4069    Z=              2.0274  Tot=              3.2821
 Quadrupole moment (field-independent basis, Debye-Ang):
   XX=           -117.4098   YY=            -92.1153   ZZ=            -84.6997
   XY=             -8.3551   XZ=             10.9892   YZ=              1.2874

 Summary of Natural Population Analysis:

                                       Natural Population
                Natural  -----------------------------------------------
    Atom  No    Charge         Core      Valence    Rydberg      Total
 -----------------------------------------------------------------------
      C    1   -0.29324      0.99966     2.28843    0.00516     3.29324
      C    2   -0.08531      0.99962     2.07430    0.01139     3.08531
      N    3   -0.28577      0.99961     2.77400    0.01216     3.78577
      C    4    0.41773      0.99971     1.55777    0.02479     2.58227
      O    5   -0.30696      0.99987     3.30162    0.00547     4.30696
      N    6   -0.40888      0.99971     2.90033    0.00884     3.90888
      C    7    0.41713      0.99968     1.55733    0.02586     2.58287
      O    8   -0.32009      0.99987     3.31527    0.00495     4.32009
      N    9   -0.21741      0.99966     2.70546    0.01229     3.71741
      N   10    0.15859      0.99971     2.32487    0.01683     3.34141
      N   11    0.01651      0.99981     2.47157    0.01211     3.48349
      H   12    0.10047      0.00000     0.39872    0.00081     0.39953
      H   13    0.09788      0.00000     0.40135    0.00077     0.40212
      H   14    0.10419      0.00000     0.39499    0.00082     0.39581
      H   15    0.10096      0.00000     0.39649    0.00254     0.39904
      H   16    0.10714      0.00000     0.39165    0.00121     0.39286
      H   17    0.20014      0.00000     0.28037    0.01949     0.29986
      H   18    0.19691      0.00000     0.30002    0.00307     0.30309
 =======================================================================
   * Total *    0.00000     10.99690    29.83454    0.16855    41.00000

 Normal termination of Gaussian 16 at Tue Dec  8 21:07:22 2020.
