 Gaussian 16, Revision A.03,

 -----------------------------------------------------------
 # opt freq B3LYP/6-31G(d) empiricaldispersion=gd3bj scf=xqc
 -----------------------------------------------------------

 ------------------------------
 CID_83539609_JID_5707_neutraal
 ------------------------------
 Symbolic Z-matrix:
 Charge =  0 Multiplicity = 1

 SCF Done:  E(RB3LYP) =  -1140.47803890     A.U. after   15 cycles
 SCF Done:  E(RB3LYP) =  -1140.48481513     A.U. after   12 cycles
 SCF Done:  E(RB3LYP) =  -1140.48287144     A.U. after   13 cycles
 SCF Done:  E(RB3LYP) =  -1140.48554460     A.U. after   13 cycles
 SCF Done:  E(RB3LYP) =  -1140.48617449     A.U. after   12 cycles
 SCF Done:  E(RB3LYP) =  -1140.48620172     A.U. after   11 cycles
 SCF Done:  E(RB3LYP) =  -1140.48617553     A.U. after   11 cycles
 SCF Done:  E(RB3LYP) =  -1140.48625600     A.U. after   11 cycles
 SCF Done:  E(RB3LYP) =  -1140.48627982     A.U. after   10 cycles
 SCF Done:  E(RB3LYP) =  -1140.48628221     A.U. after    9 cycles
 SCF Done:  E(RB3LYP) =  -1140.49125612     A.U. after    8 cycles
 SCF Done:  E(RB3LYP) =  -1140.49125664     A.U. after    8 cycles
 SCF Done:  E(RB3LYP) =  -1140.49125684     A.U. after    8 cycles
 SCF Done:  E(RB3LYP) =  -1140.49125690     A.U. after    7 cycles
 SCF Done:  E(RB3LYP) =  -1140.49125694     A.U. after    6 cycles
 Optimization completed.
    -- Stationary point found.
 Normal termination of Gaussian 16 at Thu Dec 10 16:45:14 2020.

 --------------------------------------------------------------------
 #N Geom=AllCheck Guess=TCheck SCRF=Check GenChk RB3LYP/6-31G(d) Freq
 --------------------------------------------------------------------

 Structure from the checkpoint file:  "JID_5707.chk"
 ------------------------------
 CID_83539609_JID_5707_neutraal
 ------------------------------
 Charge =  0 Multiplicity = 1

 SCF Done:  E(RB3LYP) =  -1140.49125694     A.U. after    1 cycles

  Exact polarizability: 124.444 -15.080 109.128   3.634   3.853 107.915
 Approx polarizability: 183.964 -26.636 159.790  11.707   2.719 180.162

                      1                      2                      3
                      A                      A                      A
 Frequencies --     46.6430                67.9601                72.0076
 Red. masses --      7.2523                 5.7226                 5.2694
 Frc consts  --      0.0093                 0.0156                 0.0161
 IR Inten    --      0.0465                 6.1139                 0.7826

                      4                      5                      6
                      A                      A                      A
 Frequencies --     88.1771                94.2728               127.1737
 Red. masses --      4.6015                 5.3394                 1.6500
 Frc consts  --      0.0211                 0.0280                 0.0157
 IR Inten    --      0.5194                 0.7544                 2.4034

                      7                      8                      9
                      A                      A                      A
 Frequencies --    139.4220               186.4255               212.3981
 Red. masses --      6.8353                 2.3133                 3.0106
 Frc consts  --      0.0783                 0.0474                 0.0800
 IR Inten    --      1.5054                 2.3376                 1.7216

                     10                     11                     12
                      A                      A                      A
 Frequencies --    221.9000               241.4684               296.0393
 Red. masses --      2.1342                 1.5187                 5.7107
 Frc consts  --      0.0619                 0.0522                 0.2949
 IR Inten    --      1.7066                 0.9429                 1.0228

                     13                     14                     15
                      A                      A                      A
 Frequencies --    309.7615               337.7639               342.6435
 Red. masses --      5.6256                 3.7855                 4.0908
 Frc consts  --      0.3180                 0.2545                 0.2830
 IR Inten    --      0.0098                 0.7231                 0.4136

                     16                     17                     18
                      A                      A                      A
 Frequencies --    351.7423               371.7947               468.6239
 Red. masses --      5.5208                 5.4999                 6.6089
 Frc consts  --      0.4024                 0.4479                 0.8551
 IR Inten    --      0.4825                 1.1019                21.7398

                     19                     20                     21
                      A                      A                      A
 Frequencies --    488.4161               528.9040               571.3255
 Red. masses --      8.0624                 3.9269                 2.1175
 Frc consts  --      1.1332                 0.6472                 0.4072
 IR Inten    --     35.1993                52.7614                38.6617

                     22                     23                     24
                      A                      A                      A
 Frequencies --    608.8918               620.6603               667.3238
 Red. masses --      3.2249                 4.7321                 2.5854
 Frc consts  --      0.7044                 1.0740                 0.6783
 IR Inten    --      5.5954                16.9305                40.1415

                     25                     26                     27
                      A                      A                      A
 Frequencies --    716.1524               725.9732               741.9722
 Red. masses --      3.2024                 4.3341                 1.4108
 Frc consts  --      0.9677                 1.3458                 0.4576
 IR Inten    --     49.9781                36.0230                36.6418

                     28                     29                     30
                      A                      A                      A
 Frequencies --    762.0767               816.2751               855.0093
 Red. masses --      5.8940                 1.2838                 4.2846
 Frc consts  --      2.0168                 0.5040                 1.8454
 IR Inten    --     89.9688                18.0654                 5.2399

                     31                     32                     33
                      A                      A                      A
 Frequencies --    870.9304               883.3580               913.6134
 Red. masses --      1.3573                 5.1104                 5.9450
 Frc consts  --      0.6066                 2.3495                 2.9237
 IR Inten    --      0.1704                32.0256                 1.7492

                     34                     35                     36
                      A                      A                      A
 Frequencies --    964.9370              1004.7259              1009.7797
 Red. masses --      3.2474                 1.3596                 1.4028
 Frc consts  --      1.7815                 0.8086                 0.8427
 IR Inten    --     11.8542                15.0462                52.7124

                     37                     38                     39
                      A                      A                      A
 Frequencies --   1030.5052              1046.1116              1115.2645
 Red. masses --      2.8053                 1.3600                 2.5768
 Frc consts  --      1.7552                 0.8769                 1.8884
 IR Inten    --    128.6610                23.2552                 7.0931

                     40                     41                     42
                      A                      A                      A
 Frequencies --   1136.6344              1142.2653              1168.9279
 Red. masses --     10.1484                 2.0491                 2.2721
 Frc consts  --      7.7248                 1.5753                 1.8291
 IR Inten    --    197.8503                31.4584                89.6267

                     43                     44                     45
                      A                      A                      A
 Frequencies --   1178.5920              1195.5773              1235.8590
 Red. masses --      1.9667                 1.9910                 1.8204
 Frc consts  --      1.6096                 1.6768                 1.6382
 IR Inten    --    123.7642                51.6260                16.1006

                     46                     47                     48
                      A                      A                      A
 Frequencies --   1254.5892              1279.4407              1304.0461
 Red. masses --      1.9347                 5.8306                 1.4305
 Frc consts  --      1.7941                 5.6234                 1.4332
 IR Inten    --      8.0123                18.1596                 2.5153

                     49                     50                     51
                      A                      A                      A
 Frequencies --   1341.1547              1360.9640              1382.5669
 Red. masses --      4.7897                 1.8823                 1.2075
 Frc consts  --      5.0759                 2.0541                 1.3600
 IR Inten    --    164.4184                90.6786                11.5234

                     52                     53                     54
                      A                      A                      A
 Frequencies --   1402.5517              1435.9304              1469.1992
 Red. masses --      1.8616                 2.6734                 1.1187
 Frc consts  --      2.1576                 3.2478                 1.4227
 IR Inten    --     47.4631                 0.6848                 5.0211

                     55                     56                     57
                      A                      A                      A
 Frequencies --   1476.5125              1492.1300              1519.8325
 Red. masses --      1.0901                 1.0539                 1.0537
 Frc consts  --      1.4002                 1.3825                 1.4341
 IR Inten    --      2.9782                 2.1238                17.4529

                     58                     59                     60
                      A                      A                      A
 Frequencies --   1544.8638              1549.8059              1657.6023
 Red. masses --      3.3595                 1.1476                 6.3839
 Frc consts  --      4.7239                 1.6241                10.3347
 IR Inten    --     11.0397                13.6015                 0.6493

                     61                     62                     63
                      A                      A                      A
 Frequencies --   1848.2221              3047.7253              3060.6072
 Red. masses --     10.1134                 1.0393                 1.0820
 Frc consts  --     20.3542                 5.6877                 5.9717
 IR Inten    --    253.2016                41.9956                13.4000

                     64                     65                     66
                      A                      A                      A
 Frequencies --   3096.0651              3104.5911              3195.3837
 Red. masses --      1.0309                 1.1054                 1.1047
 Frc consts  --      5.8220                 6.2774                 6.6454
 IR Inten    --      1.4871                22.4799                 0.7584

                     67                     68                     69
                      A                      A                      A
 Frequencies --   3201.6665              3219.7356              3269.9634
 Red. masses --      1.0967                 1.1076                 1.0919
 Frc consts  --      6.6238                 6.7652                 6.8791
 IR Inten    --      0.4350                 0.1156                 2.7996

                     70                     71                     72
                      A                      A                      A
 Frequencies --   3281.0337              3308.4615              3683.6715
 Red. masses --      1.0977                 1.1049                 1.0641
 Frc consts  --      6.9622                 7.1255                 8.5077
 IR Inten    --      0.6103                 0.8644                63.1148

 - Thermochemistry -
 -------------------
 Temperature   298.150 Kelvin.  Pressure   1.00000 Atm.
 Atom     1 has atomic number  6 and mass  12.00000

 Molecular mass:   233.03579 amu.
 Principal axes and moments of inertia in atomic units:
                           1         2         3
     Eigenvalues --  2450.380393299.158054477.32235
           X            0.99746  -0.07109   0.00441
           Y            0.07095   0.99714   0.02597
           Z           -0.00625  -0.02559   0.99965
 This molecule is an asymmetric top.
 Rotational symmetry number  1.
 Warning -- assumption of classical behavior for rotation
           may cause significant error
 Rotational temperatures (Kelvin)      0.03535     0.02625     0.01935
 Rotational constants (GHZ):           0.73651     0.54703     0.40308
 Zero-point vibrational energy     518967.5 (Joules/Mol)
                                  124.03622 (Kcal/Mol)
 Warning -- explicit consideration of  23 degrees of freedom as
           vibrations may cause significant error
 Vibrational temperatures:     67.11    97.78   103.60   126.87   135.64
          (Kelvin)            182.97   200.60   268.22   305.59   319.26
                              347.42   425.93   445.68   485.97   492.99
                              506.08   534.93   674.25   702.72   760.97
                              822.01   876.06   892.99   960.13  1030.38
                             1044.51  1067.53  1096.46  1174.44  1230.17
                             1253.07  1270.96  1314.49  1388.33  1445.58
                             1452.85  1482.67  1505.12  1604.62  1635.36
                             1643.46  1681.83  1695.73  1720.17  1778.13
                             1805.07  1840.83  1876.23  1929.62  1958.12
                             1989.21  2017.96  2065.98  2113.85  2124.37
                             2146.84  2186.70  2222.71  2229.83  2384.92
                             2659.18  4385.00  4403.53  4454.55  4466.81
                             4597.44  4606.48  4632.48  4704.75  4720.68
                             4760.14  5299.98

 Zero-point correction=                           0.197664 (Hartree/Particle)
 Thermal correction to Energy=                    0.212615
 Thermal correction to Enthalpy=                  0.213560
 Thermal correction to Gibbs Free Energy=         0.155289
 Sum of electronic and zero-point Energies=          -1140.293593
 Sum of electronic and thermal Energies=             -1140.278641
 Sum of electronic and thermal Enthalpies=           -1140.277697
 Sum of electronic and thermal Free Energies=        -1140.335968

                     E (Thermal)             CV                S
                      KCal/Mol        Cal/Mol-Kelvin    Cal/Mol-Kelvin
 Total                  133.418             55.039            122.641
 Electronic               0.000              0.000              0.000
 Translational            0.889              2.981             42.240
 Rotational               0.889              2.981             31.960
 Vibrational            131.641             49.078             48.442
 Vibration     1          0.595              1.979              4.955
 Vibration     2          0.598              1.969              4.212
 Vibration     3          0.598              1.967              4.098
 Vibration     4          0.601              1.957              3.700
 Vibration     5          0.603              1.953              3.569
 Vibration     6          0.611              1.926              2.988
 Vibration     7          0.615              1.914              2.812
 Vibration     8          0.632              1.858              2.263
 Vibration     9          0.643              1.822              2.023
 Vibration    10          0.648              1.808              1.944
 Vibration    11          0.658              1.777              1.792
 Vibration    12          0.690              1.681              1.439
 Vibration    13          0.699              1.655              1.364
 Vibration    14          0.718              1.600              1.223
 Vibration    15          0.722              1.590              1.200
 Vibration    16          0.728              1.572              1.158
 Vibration    17          0.743              1.530              1.072
 Vibration    18          0.826              1.320              0.741
 Vibration    19          0.844              1.276              0.688
 Vibration    20          0.884              1.186              0.590
 Vibration    21          0.927              1.093              0.502
 Vibration    22          0.968              1.013              0.435
 Vibration    23          0.981              0.988              0.415

 Optimization completed.
    -- Stationary point found.
 Normal termination of Gaussian 16 at Thu Dec 10 16:54:04 2020.

 ----------------------------------------------------------------------
 # B3LYP/6-311++G(d,p) empiricaldispersion=gd3bj scf=xqc pop=npa geom=c
 heck
 ----------------------------------------------------------------------

 --------------------------------------
 CID_83539609_JID_5707_Energie_neutraal
 --------------------------------------
 Structure from the checkpoint file:  "JID_5707.chk"
 Charge =  0 Multiplicity = 1

 SCF Done:  E(RB3LYP) =  -1140.74299599     A.U. after   16 cycles
 Normal termination of Gaussian 16 at Thu Dec 10 16:58:59 2020.

 ----------------------------------------------------------------------
 # B3LYP/6-311++G(d,p) empiricaldispersion=gd3bj scf=xqc pop=npa geom=c
 heck
 ----------------------------------------------------------------------

 ------------------------------------
 CID_83539609_JID_5707_Energie_kation
 ------------------------------------
 Structure from the checkpoint file:  "JID_5707.chk"
 Charge =  1 Multiplicity = 2

 SCF Done:  E(UB3LYP) =  -1140.42686793     A.U. after   27 cycles
 Normal termination of Gaussian 16 at Thu Dec 10 17:12:17 2020.
 Gaussian 16:  ES64L-G16RevA.03 25-Dec-2016

 ----------------------------------------------------------------------
 # B3LYP/6-311++G(d,p) empiricaldispersion=gd3bj scf=xqc pop=npa geom=c
 heck
 ----------------------------------------------------------------------

 -----------------------------------
 CID_83539609_JID_5707_Energie_anion
 -----------------------------------
 Structure from the checkpoint file:  "JID_5707.chk"
 Charge = -1 Multiplicity = 2

                         Standard orientation:
 ---------------------------------------------------------------------
 Center     Atomic      Atomic             Coordinates (Angstroms)
 Number     Number       Type             X           Y           Z
 ---------------------------------------------------------------------
      1          6           0       -2.083735    1.261233    1.276699
      2          7           0       -1.049982    0.317324    0.840264
      3          6           0        0.297310    0.885629    0.741556
      4          6           0        1.406880   -0.076216    0.477309
      5          6           0        2.269597   -0.745598    1.288435
      6          6           0        3.100092   -1.538300    0.430775
      7          6           0        2.687016   -1.283177   -0.840280
      8          8           0        1.663016   -0.381937   -0.834092
      9          6           0        0.370110    2.040030   -0.275788
     10          8           0       -0.415629    2.244037   -1.172005
     11          8           0        1.439680    2.824590   -0.031129
     12         16           0       -1.548755   -1.028419   -0.062031
     13          8           0       -0.548388   -2.079799    0.108713
     14          8           0       -2.943730   -1.250614    0.325213
     15          6           0       -1.536983   -0.545368   -1.797857
     16          1           0       -2.297522    2.029198    0.523814
     17          1           0       -1.729330    1.747315    2.192804
     18          1           0       -2.991061    0.706277    1.505012
     19          1           0        0.507680    1.329486    1.722203
     20          1           0        2.296629   -0.698572    2.367694
     21          1           0        3.894168   -2.208512    0.727011
     22          1           0        2.999008   -1.629417   -1.812984
     23          1           0        1.442084    3.515204   -0.720725
     24          1           0       -2.172401    0.330006   -1.927335
     25          1           0       -0.512294   -0.325589   -2.093462
     26          1           0       -1.928327   -1.401574   -2.352077
 ---------------------------------------------------------------------

 SCF Done:  E(UB3LYP) =  -1140.73433863     A.U. after   33 cycles
 SCF Done:  E(UB3LYP) =  -1140.73433863     a.u. after    1 cycles

 The electronic state is 2-A.
 Alpha  occ. eigenvalues --  -88.96894 -19.09989 -19.06838 -19.02158 -19.02012
 Alpha  occ. eigenvalues --  -19.01910 -14.25487 -10.20801 -10.14925 -10.14008
 Alpha  occ. eigenvalues --  -10.13348 -10.10939 -10.10369 -10.08354 -10.08090
 Alpha  occ. eigenvalues --   -8.03027  -5.99324  -5.99274  -5.99110  -1.02786
 Alpha  occ. eigenvalues --   -1.02258  -1.01213  -0.92635  -0.91509  -0.84801
 Alpha  occ. eigenvalues --   -0.71571  -0.70367  -0.67797  -0.62626  -0.60626
 Alpha  occ. eigenvalues --   -0.54054  -0.51612  -0.49687  -0.46563  -0.45679
 Alpha  occ. eigenvalues --   -0.42256  -0.41277  -0.40246  -0.39404  -0.38229
 Alpha  occ. eigenvalues --   -0.36961  -0.36411  -0.35696  -0.34830  -0.33897
 Alpha  occ. eigenvalues --   -0.33087  -0.32733  -0.31497  -0.30823  -0.30109
 Alpha  occ. eigenvalues --   -0.29900  -0.28573  -0.25130  -0.23079  -0.22842
 Alpha  occ. eigenvalues --   -0.21540  -0.21247  -0.19982  -0.19196  -0.16262
 Alpha  occ. eigenvalues --   -0.13945   0.04336
 Alpha virt. eigenvalues --    0.06487   0.07107   0.07605   0.07779   0.08609
 Alpha virt. eigenvalues --    0.08939   0.09276   0.10924   0.11431   0.12259
 Alpha virt. eigenvalues --    0.12569   0.13385   0.13566   0.13976   0.14567

  Beta  occ. eigenvalues --  -88.96890 -19.09979 -19.06765 -19.02154 -19.01956
  Beta  occ. eigenvalues --  -19.01906 -14.25484 -10.20718 -10.14901 -10.14004
  Beta  occ. eigenvalues --  -10.13338 -10.10931 -10.10340 -10.08348 -10.08074
  Beta  occ. eigenvalues --   -8.03023  -5.99315  -5.99271  -5.99107  -1.02767
  Beta  occ. eigenvalues --   -1.02244  -1.01078  -0.92514  -0.91503  -0.84775
  Beta  occ. eigenvalues --   -0.71541  -0.70320  -0.67784  -0.62556  -0.60571
  Beta  occ. eigenvalues --   -0.53911  -0.51580  -0.49628  -0.46510  -0.45633
  Beta  occ. eigenvalues --   -0.42178  -0.41209  -0.40209  -0.39332  -0.38188
  Beta  occ. eigenvalues --   -0.36867  -0.36299  -0.35645  -0.34784  -0.33859
  Beta  occ. eigenvalues --   -0.33059  -0.32696  -0.31456  -0.30738  -0.30060
  Beta  occ. eigenvalues --   -0.29839  -0.28537  -0.25116  -0.22988  -0.22717
  Beta  occ. eigenvalues --   -0.21526  -0.21242  -0.19924  -0.19177  -0.16212
  Beta  occ. eigenvalues --   -0.13930
  Beta virt. eigenvalues --    0.06620   0.07522   0.07598   0.08049   0.08618
  Beta virt. eigenvalues --    0.09166   0.09372   0.09851   0.11155   0.11807
  Beta virt. eigenvalues --    0.12407   0.12648   0.13438   0.13638   0.14016

 Mulliken charges and spin densities:
               1          2
     1  C    0.572593  -0.873929
     2  N   -0.069076   0.076879
     3  C    1.076366  -1.493816
     4  C    0.935017  -1.048820
     5  C   -2.036534   2.047323
     6  C    1.666966  -1.970911
     7  C   -0.799760   0.797710
     8  O    0.090116  -0.022933
     9  C    0.328040  -0.533438
    10  O   -0.217484  -0.009601
    11  O   -0.182300   0.060751
    12  S    0.108287   0.014661
    13  O   -0.143087   0.015091
    14  O   -0.130876   0.003442
    15  C   -0.376555  -0.231501
    16  H    0.032583   0.152381
    17  H   -0.444663   0.616861
    18  H    0.144639   0.035111
    19  H   -0.410773   0.692163
    20  H   -0.579585   0.766538
    21  H   -0.050868   0.208934
    22  H   -0.413508   0.580259
    23  H   -0.632710   0.941954
    24  H    0.160771   0.074609
    25  H    0.184191   0.098601
    26  H    0.188207   0.001681
 Sum of Mulliken charges =  -1.00000   1.00000

 Dipole moment (field-independent basis, Debye):
    X=             -2.3742    Y=             -5.0616    Z=             -3.2971  Tot=              6.4906
 Quadrupole moment (field-independent basis, Debye-Ang):
   XX=           -138.1557   YY=           -155.7882   ZZ=           -127.2436
   XY=            -11.1776   XZ=              3.5041   YZ=              1.7473

 Summary of Natural Population Analysis:

                                       Natural Population
                Natural  -----------------------------------------------
    Atom  No    Charge         Core      Valence    Rydberg      Total
 -----------------------------------------------------------------------
      C    1   -0.18280      0.99962     2.17438    0.00880     3.18280
      N    2   -0.37136      0.99971     2.85514    0.01651     3.87136
      C    3   -0.07745      0.99947     2.05910    0.01888     3.07745
      C    4    0.14951      0.99944     1.83401    0.01703     2.85049
      C    5   -0.12538      0.99946     2.11712    0.00880     3.12538
      C    6   -0.14526      0.99956     2.13762    0.00808     3.14526
      C    7    0.06574      0.99950     1.92049    0.01427     2.93426
      O    8   -0.23911      0.99985     3.23027    0.00899     4.23911
      C    9    0.41819      0.99971     1.55517    0.02693     2.58181
      O   10   -0.30706      0.99987     3.30029    0.00690     4.30706
      O   11   -0.33756      0.99987     3.33063    0.00705     4.33756
      S   12    1.10815      4.99927     1.79132    0.10126     6.89185
      O   13   -0.45610      0.99990     3.44974    0.00646     4.45610
      O   14   -0.47012      0.99990     3.46438    0.00583     4.47012
      C   15   -0.39182      0.99960     2.38521    0.00702     3.39182
      H   16    0.09664      0.00000     0.40209    0.00127     0.40336
      H   17    0.10203      0.00000     0.39626    0.00171     0.39797
      H   18    0.11335      0.00000     0.38554    0.00110     0.38665
      H   19    0.13133      0.00000     0.36348    0.00519     0.36867
      H   20    0.11333      0.00000     0.38537    0.00130     0.38667
      H   21    0.10816      0.00000     0.39105    0.00079     0.39184
      H   22    0.09560      0.00000     0.40337    0.00104     0.40440
      H   23    0.24820      0.00000     0.22044    0.03135     0.25180
      H   24    0.11959      0.00000     0.37954    0.00088     0.38041
      H   25    0.12346      0.00000     0.37511    0.00142     0.37654
      H   26    0.11076      0.00000     0.38824    0.00100     0.38924
 =======================================================================
   * Total *   -0.00000     18.99475    41.69538    0.30988    61.00000

 Normal termination of Gaussian 16 at Thu Dec 10 17:26:52 2020.
