 Gaussian 16, Revision A.03,

 -----------------------------------------------------------
 # opt freq B3LYP/6-31G(d) empiricaldispersion=gd3bj scf=xqc
 -----------------------------------------------------------

 -------------------------------
 CID_143100249_JID_2548_neutraal
 -------------------------------
 Symbolic Z-matrix:
 Charge =  0 Multiplicity = 1

 SCF Done:  E(RB3LYP) =  -526.262190819     A.U. after   16 cycles
 SCF Done:  E(RB3LYP) =  -526.269558977     A.U. after   13 cycles
 SCF Done:  E(RB3LYP) =  -526.270147649     A.U. after   12 cycles
 SCF Done:  E(RB3LYP) =  -526.270197472     A.U. after   11 cycles
 SCF Done:  E(RB3LYP) =  -526.270203175     A.U. after   10 cycles
 SCF Done:  E(RB3LYP) =  -526.270204821     A.U. after    9 cycles
 SCF Done:  E(RB3LYP) =  -526.270205307     A.U. after    8 cycles
 Optimization completed.
    -- Stationary point found.
 Normal termination of Gaussian 16 at Wed Dec  9 17:30:24 2020.

 --------------------------------------------------------------------
 #N Geom=AllCheck Guess=TCheck SCRF=Check GenChk RB3LYP/6-31G(d) Freq
 --------------------------------------------------------------------

 Structure from the checkpoint file:  "JID_2548.chk"
 -------------------------------
 CID_143100249_JID_2548_neutraal
 -------------------------------
 Charge =  0 Multiplicity = 1

 SCF Done:  E(RB3LYP) =  -526.270205307     A.U. after    1 cycles

  Exact polarizability: 173.808   3.487 100.382   0.000   0.000  37.415
 Approx polarizability: 301.493  -0.880 190.727   0.002   0.000  59.243

                      1                      2                      3
                      A                      A                      A
 Frequencies --     83.1249               142.7905               173.5060
 Red. masses --      7.1601                10.4802                 8.3064
 Frc consts  --      0.0291                 0.1259                 0.1473
 IR Inten    --      0.8320                 2.5330                 1.7247

                      4                      5                      6
                      A                      A                      A
 Frequencies --    227.7464               367.4791               375.1492
 Red. masses --      5.2358                 5.8252                 4.0662
 Frc consts  --      0.1600                 0.4635                 0.3372
 IR Inten    --      0.5942                 0.3691                 3.2041

                      7                      8                      9
                      A                      A                      A
 Frequencies --    433.0180               455.0713               485.6633
 Red. masses --      9.8869                 7.1317                 3.0350
 Frc consts  --      1.0922                 0.8702                 0.4218
 IR Inten    --      0.0314                 0.4780                 1.6792

                     10                     11                     12
                      A                      A                      A
 Frequencies --    516.5429               585.0342               585.9605
 Red. masses --     10.4575                 6.0110                 9.1620
 Frc consts  --      1.6440                 1.2121                 1.8534
 IR Inten    --      0.4138                10.7343                10.7090

                     13                     14                     15
                      A                      A                      A
 Frequencies --    673.9465               705.2586               739.5981
 Red. masses --      8.7263                 8.1479                 4.6054
 Frc consts  --      2.3353                 2.3878                 1.4843
 IR Inten    --      6.5335                 6.1713                12.9582

                     16                     17                     18
                      A                      A                      A
 Frequencies --    816.0774               833.0619               840.0911
 Red. masses --      5.8714                 5.5569                 1.3585
 Frc consts  --      2.3039                 2.2722                 0.5649
 IR Inten    --      7.3679                 3.1105                16.6862

                     19                     20                     21
                      A                      A                      A
 Frequencies --    905.4316               961.1376               969.0346
 Red. masses --      9.3609                 1.4287                 5.5176
 Frc consts  --      4.5215                 0.7776                 3.0527
 IR Inten    --      7.8016                 1.7592                 1.9764

                     22                     23                     24
                      A                      A                      A
 Frequencies --    975.3321               995.9397              1071.8811
 Red. masses --      1.4774                 1.4510                 2.2326
 Frc consts  --      0.8281                 0.8480                 1.5113
 IR Inten    --      6.4819                 2.4429                 4.3615

                     25                     26                     27
                      A                      A                      A
 Frequencies --   1199.8089              1235.1435              1269.5519
 Red. masses --      2.6374                 3.1180                 1.8927
 Frc consts  --      2.2369                 2.8026                 1.7973
 IR Inten    --      3.1953                20.3634                37.9125

                     28                     29                     30
                      A                      A                      A
 Frequencies --   1302.2781              1336.2101              1380.3780
 Red. masses --      2.5389                 2.7634                 2.4618
 Frc consts  --      2.5369                 2.9070                 2.7637
 IR Inten    --     10.9732                 6.7755                14.8842

                     31                     32                     33
                      A                      A                      A
 Frequencies --   1412.1842              1440.7154              1466.1319
 Red. masses --      3.7180                 2.7524                 3.8379
 Frc consts  --      4.3686                 3.3660                 4.8606
 IR Inten    --      7.9976                27.8336                13.3694

                     34                     35                     36
                      A                      A                      A
 Frequencies --   1527.2201              1588.9754              1626.4271
 Red. masses --      2.8837                 9.1631                 6.0263
 Frc consts  --      3.9628                13.6309                 9.3923
 IR Inten    --     40.4795                53.2867                53.0753

                     37                     38                     39
                      A                      A                      A
 Frequencies --   1662.7516              2371.0598              3170.1545
 Red. masses --      6.5284                12.6861                 1.0917
 Frc consts  --     10.6344                42.0208                 6.4644
 IR Inten    --      1.6592                 0.6796                12.8864

                     40                     41                     42
                      A                      A                      A
 Frequencies --   3192.8384              3195.9612              3212.3840
 Red. masses --      1.0905                 1.0888                 1.0969
 Frc consts  --      6.5498                 6.5522                 6.6694
 IR Inten    --      8.0034                 3.1267                21.3990

 - Thermochemistry -
 -------------------
 Temperature   298.150 Kelvin.  Pressure   1.00000 Atm.
 Atom     1 has atomic number  6 and mass  12.00000

 Molecular mass:   156.04360 amu.
 Principal axes and moments of inertia in atomic units:
                           1         2         3
     Eigenvalues --   639.301612833.779243473.08085
           X            0.99998   0.00578   0.00000
           Y           -0.00578   0.99998   0.00000
           Z           -0.00000  -0.00000   1.00000
 This molecule is an asymmetric top.
 Rotational symmetry number  1.
 Warning -- assumption of classical behavior for rotation
           may cause significant error
 Rotational temperatures (Kelvin)      0.13548     0.03056     0.02494
 Rotational constants (GHZ):           2.82299     0.63687     0.51964
 Zero-point vibrational energy     290142.6 (Joules/Mol)
                                   69.34574 (Kcal/Mol)
 Warning -- explicit consideration of  12 degrees of freedom as
           vibrations may cause significant error
 Vibrational temperatures:    119.60   205.44   249.64   327.68   528.72
          (Kelvin)            539.76   623.02   654.75   698.76   743.19
                              841.73   843.07   969.66  1014.71  1064.12
                             1174.15  1198.59  1208.70  1302.71  1382.86
                             1394.22  1403.29  1432.94  1542.20  1726.26
                             1777.10  1826.60  1873.69  1922.51  1986.06
                             2031.82  2072.87  2109.44  2197.33  2286.18
                             2340.07  2392.33  3411.43  4561.15  4593.78
                             4598.28  4621.90

 Zero-point correction=                           0.110509 (Hartree/Particle)
 Thermal correction to Energy=                    0.118776
 Thermal correction to Enthalpy=                  0.119720
 Thermal correction to Gibbs Free Energy=         0.076715
 Sum of electronic and zero-point Energies=           -526.159696
 Sum of electronic and thermal Energies=              -526.151429
 Sum of electronic and thermal Enthalpies=            -526.150485
 Sum of electronic and thermal Free Energies=         -526.193491

                     E (Thermal)             CV                S
                      KCal/Mol        Cal/Mol-Kelvin    Cal/Mol-Kelvin
 Total                   74.533             32.056             90.513
 Electronic               0.000              0.000              0.000
 Translational            0.889              2.981             41.044
 Rotational               0.889              2.981             30.221
 Vibrational             72.756             26.094             19.248
 Vibration     1          0.600              1.961              3.816
 Vibration     2          0.616              1.910              2.766
 Vibration     3          0.627              1.875              2.397
 Vibration     4          0.651              1.799              1.897
 Vibration     5          0.740              1.539              1.090
 Vibration     6          0.746              1.523              1.059
 Vibration     7          0.794              1.398              0.849
 Vibration     8          0.813              1.350              0.781
 Vibration     9          0.842              1.282              0.695
 Vibration    10          0.872              1.213              0.618
 Vibration    11          0.942              1.064              0.476
 Vibration    12          0.943              1.062              0.474

 Optimization completed.
    -- Stationary point found.
 Normal termination of Gaussian 16 at Wed Dec  9 17:33:43 2020.

 ----------------------------------------------------------------------
 # B3LYP/6-311++G(d,p) empiricaldispersion=gd3bj scf=xqc pop=npa geom=c
 heck
 ----------------------------------------------------------------------

 ---------------------------------------
 CID_143100249_JID_2548_Energie_neutraal
 ---------------------------------------
 Structure from the checkpoint file:  "JID_2548.chk"
 Charge =  0 Multiplicity = 1

 SCF Done:  E(RB3LYP) =  -526.401525189     A.U. after   16 cycles
 Normal termination of Gaussian 16 at Wed Dec  9 17:34:40 2020.

 ----------------------------------------------------------------------
 # B3LYP/6-311++G(d,p) empiricaldispersion=gd3bj scf=xqc pop=npa geom=c
 heck
 ----------------------------------------------------------------------

 -------------------------------------
 CID_143100249_JID_2548_Energie_kation
 -------------------------------------
 Structure from the checkpoint file:  "JID_2548.chk"
 Charge =  1 Multiplicity = 2

 SCF Done:  E(UB3LYP) =  -526.044291134     A.U. after   32 cycles
 Normal termination of Gaussian 16 at Wed Dec  9 17:39:30 2020.
 Gaussian 16:  ES64L-G16RevA.03 25-Dec-2016

 ----------------------------------------------------------------------
 # B3LYP/6-311++G(d,p) empiricaldispersion=gd3bj scf=xqc pop=npa geom=c
 heck
 ----------------------------------------------------------------------

 ------------------------------------
 CID_143100249_JID_2548_Energie_anion
 ------------------------------------
 Structure from the checkpoint file:  "JID_2548.chk"
 Charge = -1 Multiplicity = 2

                         Standard orientation:
 ---------------------------------------------------------------------
 Center     Atomic      Atomic             Coordinates (Angstroms)
 Number     Number       Type             X           Y           Z
 ---------------------------------------------------------------------
      1          6           0        2.217803    1.121945    0.000021
      2          6           0        3.126704    0.086791    0.000026
      3          7           0        2.781818   -1.231479    0.000018
      4          6           0        1.503395   -1.542761   -0.000003
      5          6           0        0.467119   -0.566955   -0.000017
      6          7           0       -0.835431   -0.953803   -0.000051
      7          6           0       -1.723303    0.020548   -0.000093
      8          7           0       -1.489926    1.367298   -0.000022
      9          6           0       -0.229116    1.736575    0.000003
     10          6           0        0.842199    0.802533    0.000001
     11          6           0       -3.117477   -0.364663    0.000012
     12          7           0       -4.237366   -0.670680    0.000086
     13          1           0        2.545783    2.157336    0.000035
     14          1           0        4.194751    0.287356    0.000042
     15          1           0        1.227452   -2.595213   -0.000013
     16          1           0       -0.025601    2.807091    0.000029
 ---------------------------------------------------------------------

 SCF Done:  E(UB3LYP) =  -526.459469819     A.U. after   24 cycles

 The electronic state is 2-A.
 Alpha  occ. eigenvalues --  -14.18214 -14.17780 -14.17423 -14.16353 -10.11646
 Alpha  occ. eigenvalues --  -10.08196 -10.07631 -10.07439 -10.06751 -10.06519
 Alpha  occ. eigenvalues --  -10.06047 -10.04884  -0.85387  -0.80692  -0.77293
 Alpha  occ. eigenvalues --   -0.75496  -0.68425  -0.63422  -0.56329  -0.53680
 Alpha  occ. eigenvalues --   -0.49358  -0.44855  -0.40860  -0.38710  -0.34416
 Alpha  occ. eigenvalues --   -0.32170  -0.31323  -0.31192  -0.29280  -0.26421
 Alpha  occ. eigenvalues --   -0.25334  -0.24099  -0.21998  -0.20830  -0.19826
 Alpha  occ. eigenvalues --   -0.17609  -0.16160  -0.13750  -0.12383  -0.11412
 Alpha  occ. eigenvalues --    0.00620
 Alpha virt. eigenvalues --    0.07390   0.08570   0.10281   0.11365   0.11461
 Alpha virt. eigenvalues --    0.12647   0.13628   0.14258   0.15497   0.16184
 Alpha virt. eigenvalues --    0.16574   0.16784   0.17154   0.17233   0.18038

  Beta  occ. eigenvalues --  -14.18223 -14.17664 -14.17288 -14.15770 -10.11527
  Beta  occ. eigenvalues --  -10.08254 -10.07652 -10.07399 -10.06610 -10.06285
  Beta  occ. eigenvalues --  -10.05755 -10.04686  -0.84841  -0.80292  -0.77118
  Beta  occ. eigenvalues --   -0.74791  -0.68127  -0.63002  -0.55646  -0.53347
  Beta  occ. eigenvalues --   -0.48976  -0.44455  -0.40653  -0.38450  -0.34190
  Beta  occ. eigenvalues --   -0.31941  -0.30943  -0.30117  -0.29087  -0.25415
  Beta  occ. eigenvalues --   -0.25141  -0.23905  -0.21129  -0.20755  -0.17881
  Beta  occ. eigenvalues --   -0.17252  -0.15388  -0.13494  -0.11097  -0.10574
  Beta virt. eigenvalues --    0.06987   0.07833   0.08567   0.10280   0.11372
  Beta virt. eigenvalues --    0.12648   0.12650   0.13638   0.14987   0.15520
  Beta virt. eigenvalues --    0.16285   0.16578   0.17055   0.17236   0.17916

 Mulliken charges and spin densities:
               1          2
     1  C    0.094919   0.162130
     2  C   -0.505916   0.021074
     3  N   -0.110574   0.059629
     4  C   -0.454587   0.166999
     5  C   -0.149923  -0.046678
     6  N   -0.090559   0.272691
     7  C    1.073203   0.097852
     8  N   -0.071644  -0.015954
     9  C   -0.258201   0.323467
    10  C    0.621833  -0.018084
    11  C   -1.375310  -0.025130
    12  N   -0.305307   0.059936
    13  H    0.119729  -0.011027
    14  H    0.125640  -0.002853
    15  H    0.159162  -0.016812
    16  H    0.127536  -0.027240
 Sum of Mulliken charges =  -1.00000   1.00000

 Dipole moment (field-independent basis, Debye):
    X=              4.6928    Y=              2.7705    Z=             -0.0001  Tot=              5.4496
 Quadrupole moment (field-independent basis, Debye-Ang):
   XX=           -123.0250   YY=            -80.8912   ZZ=            -73.2852
   XY=              4.3486   XZ=              0.0007   YZ=              0.0002

 Summary of Natural Population Analysis:

                                       Natural Population
                Natural  -----------------------------------------------
    Atom  No    Charge         Core      Valence    Rydberg      Total
 -----------------------------------------------------------------------
      C    1   -0.08442      0.99954     2.07644    0.00845     3.08442
      C    2    0.01555      0.99959     1.96984    0.01502     2.98445
      N    3   -0.22268      0.99971     2.71016    0.01281     3.72268
      C    4    0.09259      0.99958     1.89265    0.01518     2.90741
      C    5    0.06198      0.99948     1.92717    0.01138     2.93802
      N    6   -0.14155      0.99965     2.63113    0.01078     3.64155
      C    7    0.14696      0.99950     1.83435    0.01919     2.85304
      N    8   -0.23875      0.99969     2.72972    0.00934     3.73875
      C    9    0.13659      0.99958     1.84992    0.01391     2.86341
      C   10   -0.06588      0.99948     2.05892    0.00747     3.06588
      C   11    0.15134      0.99963     1.83070    0.01833     2.84866
      N   12   -0.18298      0.99979     2.67141    0.01178     3.68298
      H   13    0.09213      0.00000     0.40576    0.00211     0.40787
      H   14    0.08035      0.00000     0.41832    0.00134     0.41965
      H   15    0.08381      0.00000     0.41451    0.00168     0.41619
      H   16    0.07498      0.00000     0.42318    0.00184     0.42502
 =======================================================================
   * Total *    0.00000     11.99521    27.84418    0.16061    40.00000

 Normal termination of Gaussian 16 at Wed Dec  9 17:43:26 2020.
