 Gaussian 16, Revision A.03,

 -----------------------------------------------------------
 # opt freq B3LYP/6-31G(d) empiricaldispersion=gd3bj scf=xqc
 -----------------------------------------------------------

 -------------------------------
 CID_117107932_JID_5837_neutraal
 -------------------------------
 Symbolic Z-matrix:
 Charge =  0 Multiplicity = 1

 SCF Done:  E(RB3LYP) =  -708.694027533     A.U. after   15 cycles
 SCF Done:  E(RB3LYP) =  -708.698065505     A.U. after   13 cycles
 SCF Done:  E(RB3LYP) =  -708.697109872     A.U. after   13 cycles
 SCF Done:  E(RB3LYP) =  -708.699274545     A.U. after   12 cycles
 SCF Done:  E(RB3LYP) =  -708.699579869     A.U. after   11 cycles
 SCF Done:  E(RB3LYP) =  -708.699849480     A.U. after   12 cycles
 SCF Done:  E(RB3LYP) =  -708.700062390     A.U. after   11 cycles
 SCF Done:  E(RB3LYP) =  -708.700498396     A.U. after   13 cycles
 SCF Done:  E(RB3LYP) =  -708.700723348     A.U. after   12 cycles
 SCF Done:  E(RB3LYP) =  -708.700877025     A.U. after   11 cycles
 SCF Done:  E(RB3LYP) =  -708.701062576     A.U. after   10 cycles
 SCF Done:  E(RB3LYP) =  -708.701066604     A.U. after   11 cycles
 SCF Done:  E(RB3LYP) =  -708.701067606     A.U. after    8 cycles
 SCF Done:  E(RB3LYP) =  -708.701067791     A.U. after    7 cycles
 SCF Done:  E(RB3LYP) =  -708.701067781     A.U. after    8 cycles
 Optimization completed.
    -- Stationary point found.
 Normal termination of Gaussian 16 at Thu Dec 10 17:19:51 2020.

 --------------------------------------------------------------------
 #N Geom=AllCheck Guess=TCheck SCRF=Check GenChk RB3LYP/6-31G(d) Freq
 --------------------------------------------------------------------

 Structure from the checkpoint file:  "JID_5837.chk"
 -------------------------------
 CID_117107932_JID_5837_neutraal
 -------------------------------
 Charge =  0 Multiplicity = 1

 SCF Done:  E(RB3LYP) =  -708.701067781     A.U. after    1 cycles

  Exact polarizability: 154.898  -7.244 134.356 -14.536  -5.011  89.065
 Approx polarizability: 216.633  -8.422 215.279 -32.768  -9.918 146.992

                      1                      2                      3
                      A                      A                      A
 Frequencies --     27.7063                45.4117                58.0593
 Red. masses --      4.5205                 7.2934                 1.3945
 Frc consts  --      0.0020                 0.0089                 0.0028
 IR Inten    --      0.8891                 1.1051                15.6899

                      4                      5                      6
                      A                      A                      A
 Frequencies --     75.7846                84.2795               167.3242
 Red. masses --      5.7852                 2.5811                 5.2183
 Frc consts  --      0.0196                 0.0108                 0.0861
 IR Inten    --      0.2612                 4.7489                 0.2979

                      7                      8                      9
                      A                      A                      A
 Frequencies --    198.7530               228.7795               235.5600
 Red. masses --      3.8423                 2.2986                 1.2610
 Frc consts  --      0.0894                 0.0709                 0.0412
 IR Inten    --      0.5953                 0.9361                 0.5632

                     10                     11                     12
                      A                      A                      A
 Frequencies --    238.6120               265.6605               292.6006
 Red. masses --      2.4390                 1.2262                 3.9566
 Frc consts  --      0.0818                 0.0510                 0.1996
 IR Inten    --      0.1176                 0.5962                 0.7457

                     13                     14                     15
                      A                      A                      A
 Frequencies --    317.3889               333.5720               356.3348
 Red. masses --      2.5819                 3.9013                 3.7189
 Frc consts  --      0.1532                 0.2558                 0.2782
 IR Inten    --      4.3148                 3.3076                 0.5573

                     16                     17                     18
                      A                      A                      A
 Frequencies --    373.4006               413.9337               448.5131
 Red. masses --      2.4331                 2.9902                 3.1208
 Frc consts  --      0.1999                 0.3019                 0.3699
 IR Inten    --      4.5837                 0.4657                 6.0578

                     19                     20                     21
                      A                      A                      A
 Frequencies --    467.1953               506.6520               537.8220
 Red. masses --      3.6403                 4.2515                 4.0347
 Frc consts  --      0.4681                 0.6430                 0.6876
 IR Inten    --     11.1000                 9.8939                 5.0271

                     22                     23                     24
                      A                      A                      A
 Frequencies --    575.8764               599.9032               609.5875
 Red. masses --      3.9163                 4.2647                 2.1466
 Frc consts  --      0.7652                 0.9043                 0.4700
 IR Inten    --     17.7861                 0.3856                49.6621

                     25                     26                     27
                      A                      A                      A
 Frequencies --    633.4564               719.6805               738.1044
 Red. masses --      1.7479                 3.9290                 3.0120
 Frc consts  --      0.4132                 1.1990                 0.9668
 IR Inten    --     60.5135                 4.6285                10.1520

                     28                     29                     30
                      A                      A                      A
 Frequencies --    745.2026               765.2770               789.2313
 Red. masses --      1.1785                 4.7384                 4.5834
 Frc consts  --      0.3856                 1.6350                 1.6821
 IR Inten    --    120.3339                10.6433                30.3953

                     31                     32                     33
                      A                      A                      A
 Frequencies --    812.9337               842.7251               873.6971
 Red. masses --      3.7886                 1.6064                 2.0661
 Frc consts  --      1.4752                 0.6722                 0.9292
 IR Inten    --      4.1210                26.2441                 2.8150

                     34                     35                     36
                      A                      A                      A
 Frequencies --    882.6854               912.9642               926.8822
 Red. masses --      1.4392                 1.4631                 1.7629
 Frc consts  --      0.6607                 0.7185                 0.8923
 IR Inten    --    132.3550                20.6093                 0.2941

                     37                     38                     39
                      A                      A                      A
 Frequencies --    953.1883               958.1766               969.4254
 Red. masses --      1.3111                 2.9279                 1.5059
 Frc consts  --      0.7019                 1.5838                 0.8338
 IR Inten    --      0.2301                 5.2126                 1.3463

                     40                     41                     42
                      A                      A                      A
 Frequencies --   1007.7345              1046.4467              1134.2243
 Red. masses --      2.0430                 1.3524                 2.5248
 Frc consts  --      1.2224                 0.8726                 1.9137
 IR Inten    --      6.6883                 5.5441               131.6727

                     43                     44                     45
                      A                      A                      A
 Frequencies --   1148.1199              1175.2620              1185.5215
 Red. masses --      1.9437                 1.8703                 1.4184
 Frc consts  --      1.5096                 1.5221                 1.1746
 IR Inten    --     48.0193                10.1169                32.1952

                     46                     47                     48
                      A                      A                      A
 Frequencies --   1203.0343              1208.1819              1236.6975
 Red. masses --      2.3599                 1.2677                 1.7090
 Frc consts  --      2.0124                 1.0902                 1.5400
 IR Inten    --      5.4394                 0.3566                30.6137

                     49                     50                     51
                      A                      A                      A
 Frequencies --   1241.1378              1300.2800              1305.6977
 Red. masses --      2.3351                 1.5904                 2.6414
 Frc consts  --      2.1194                 1.5843                 2.6532
 IR Inten    --     29.3240                 6.5255                97.3227

                     52                     53                     54
                      A                      A                      A
 Frequencies --   1327.0894              1346.8733              1361.6856
 Red. masses --      2.7495                 2.6530                 1.7847
 Frc consts  --      2.8530                 2.8355                 1.9497
 IR Inten    --    112.3448                38.6299                 6.9966

                     55                     56                     57
                      A                      A                      A
 Frequencies --   1385.1075              1429.4769              1430.6661
 Red. masses --      1.9907                 1.2684                 1.7823
 Frc consts  --      2.2502                 1.5270                 2.1494
 IR Inten    --      9.3140                 1.1867                50.1497

                     58                     59                     60
                      A                      A                      A
 Frequencies --   1451.9116              1488.9390              1509.2611
 Red. masses --      1.2373                 3.0406                 1.0799
 Frc consts  --      1.5368                 3.9715                 1.4494
 IR Inten    --     11.8364                 8.2345                 1.0575

                     61                     62                     63
                      A                      A                      A
 Frequencies --   1517.4595              1520.8042              1530.3570
 Red. masses --      1.0478                 1.0662                 1.0507
 Frc consts  --      1.4215                 1.4529                 1.4499
 IR Inten    --      1.2652                 4.3404                 5.9436

                     64                     65                     66
                      A                      A                      A
 Frequencies --   1542.4243              1557.3512              1647.2907
 Red. masses --      1.0736                 3.2466                 2.4723
 Frc consts  --      1.5049                 4.6393                 3.9526
 IR Inten    --     13.9704               166.4531                12.5521

                     67                     68                     69
                      A                      A                      A
 Frequencies --   1674.0165              1694.2174              1842.4232
 Red. masses --      4.4181                 1.5920                 9.8483
 Frc consts  --      7.2947                 2.6923                19.6966
 IR Inten    --      2.0586                55.1840               220.6095

                     70                     71                     72
                      A                      A                      A
 Frequencies --   3051.8690              3054.6555              3064.2018
 Red. masses --      1.0524                 1.0436                 1.0401
 Frc consts  --      5.7750                 5.7371                 5.7541
 IR Inten    --      7.4352                37.2885                27.8481

                     73                     74                     75
                      A                      A                      A
 Frequencies --   3101.1840              3118.8594              3131.8768
 Red. masses --      1.1019                 1.1027                 1.1001
 Frc consts  --      6.2435                 6.3197                 6.3574
 IR Inten    --     11.3673                15.7496                29.8666

                     76                     77                     78
                      A                      A                      A
 Frequencies --   3141.8883              3158.7511              3183.2600
 Red. masses --      1.1020                 1.1010                 1.0888
 Frc consts  --      6.4091                 6.4725                 6.5005
 IR Inten    --     18.9961                18.0140                16.7433

                     79                     80                     81
                      A                      A                      A
 Frequencies --   3184.5256              3217.7381              3475.5372
 Red. masses --      1.0898                 1.0931                 1.0497
 Frc consts  --      6.5118                 6.6684                 7.4706
 IR Inten    --      7.0205                 9.3013                 2.6616

                     82                     83                     84
                      A                      A                      A
 Frequencies --   3521.1531              3555.4893              3687.0784
 Red. masses --      1.0634                 1.0927                 1.0641
 Frc consts  --      7.7682                 8.1389                 8.5231
 IR Inten    --    134.9749                 5.2173                45.3773

 - Thermochemistry -
 -------------------
 Temperature   298.150 Kelvin.  Pressure   1.00000 Atm.
 Atom     1 has atomic number  6 and mass  12.00000

 Molecular mass:   209.10519 amu.
 Principal axes and moments of inertia in atomic units:
                           1         2         3
     Eigenvalues --  1618.397434868.021115602.46420
           X            0.99967  -0.02545  -0.00409
           Y            0.02534   0.99933  -0.02630
           Z            0.00476   0.02619   0.99965
 This molecule is an asymmetric top.
 Rotational symmetry number  1.
 Warning -- assumption of classical behavior for rotation
           may cause significant error
 Rotational temperatures (Kelvin)      0.05352     0.01779     0.01546
 Rotational constants (GHZ):           1.11514     0.37073     0.32213
 Zero-point vibrational energy     658425.2 (Joules/Mol)
                                  157.36741 (Kcal/Mol)
 Warning -- explicit consideration of  24 degrees of freedom as
           vibrations may cause significant error
 Vibrational temperatures:     39.86    65.34    83.53   109.04   121.26
          (Kelvin)            240.74   285.96   329.16   338.92   343.31
                              382.23   420.99   456.65   479.94   512.69
                              537.24   595.56   645.31   672.19   728.96
                              773.81   828.56   863.13   877.06   911.40
                             1035.46  1061.97  1072.18  1101.06  1135.53
                             1169.63  1212.49  1257.06  1269.99  1313.55
                             1333.58  1371.43  1378.60  1394.79  1449.91
                             1505.60  1631.90  1651.89  1690.94  1705.70
                             1730.90  1738.30  1779.33  1785.72  1870.81
                             1878.61  1909.39  1937.85  1959.16  1992.86
                             2056.70  2058.41  2088.98  2142.25  2171.49
                             2183.29  2188.10  2201.84  2219.20  2240.68
                             2370.08  2408.54  2437.60  2650.84  4390.96
                             4394.97  4408.70  4461.91  4487.34  4506.07
                             4520.48  4544.74  4580.00  4581.82  4629.61
                             5000.52  5066.15  5115.56  5304.88

 Zero-point correction=                           0.250781 (Hartree/Particle)
 Thermal correction to Energy=                    0.265912
 Thermal correction to Enthalpy=                  0.266856
 Thermal correction to Gibbs Free Energy=         0.207874
 Sum of electronic and zero-point Energies=           -708.450287
 Sum of electronic and thermal Energies=              -708.435156
 Sum of electronic and thermal Enthalpies=            -708.434212
 Sum of electronic and thermal Free Energies=         -708.493194

                     E (Thermal)             CV                S
                      KCal/Mol        Cal/Mol-Kelvin    Cal/Mol-Kelvin
 Total                  166.862             57.542            124.138
 Electronic               0.000              0.000              0.000
 Translational            0.889              2.981             41.917
 Rotational               0.889              2.981             32.157
 Vibrational            165.085             51.580             50.065
 Vibration     1          0.593              1.984              5.987
 Vibration     2          0.595              1.979              5.008
 Vibration     3          0.596              1.974              4.522
 Vibration     4          0.599              1.965              3.997
 Vibration     5          0.601              1.960              3.789
 Vibration     6          0.624              1.883              2.465
 Vibration     7          0.637              1.842              2.145
 Vibration     8          0.651              1.797              1.889
 Vibration     9          0.655              1.786              1.836
 Vibration    10          0.657              1.781              1.813
 Vibration    11          0.671              1.736              1.624
 Vibration    12          0.688              1.688              1.459
 Vibration    13          0.704              1.640              1.324
 Vibration    14          0.715              1.608              1.243
 Vibration    15          0.732              1.562              1.138
 Vibration    16          0.745              1.527              1.066
 Vibration    17          0.778              1.440              0.913
 Vibration    18          0.808              1.364              0.800
 Vibration    19          0.824              1.323              0.745
 Vibration    20          0.862              1.235              0.642
 Vibration    21          0.893              1.166              0.570
 Vibration    22          0.932              1.083              0.493
 Vibration    23          0.958              1.032              0.450
 Vibration    24          0.969              1.012              0.433

                           ! Non-Optimized Parameters !
 Normal termination of Gaussian 16 at Thu Dec 10 17:30:31 2020.

 ----------------------------------------------------------------------
 # B3LYP/6-311++G(d,p) empiricaldispersion=gd3bj scf=xqc pop=npa geom=c
 heck
 ----------------------------------------------------------------------

 ---------------------------------------
 CID_117107932_JID_5837_Energie_neutraal
 ---------------------------------------
 Structure from the checkpoint file:  "JID_5837.chk"
 Charge =  0 Multiplicity = 1

 SCF Done:  E(RB3LYP) =  -708.922470869     A.U. after   16 cycles
 Normal termination of Gaussian 16 at Thu Dec 10 17:34:46 2020.

 ----------------------------------------------------------------------
 # B3LYP/6-311++G(d,p) empiricaldispersion=gd3bj scf=xqc pop=npa geom=c
 heck
 ----------------------------------------------------------------------

 -------------------------------------
 CID_117107932_JID_5837_Energie_kation
 -------------------------------------
 Structure from the checkpoint file:  "JID_5837.chk"
 Charge =  1 Multiplicity = 2

 SCF Done:  E(UB3LYP) =  -708.632040966     A.U. after   23 cycles
 Normal termination of Gaussian 16 at Thu Dec 10 17:42:20 2020.
 Gaussian 16:  ES64L-G16RevA.03 25-Dec-2016

 ----------------------------------------------------------------------
 # B3LYP/6-311++G(d,p) empiricaldispersion=gd3bj scf=xqc pop=npa geom=c
 heck
 ----------------------------------------------------------------------

 ------------------------------------
 CID_117107932_JID_5837_Energie_anion
 ------------------------------------
 Structure from the checkpoint file:  "JID_5837.chk"
 Charge = -1 Multiplicity = 2

                         Standard orientation:
 ---------------------------------------------------------------------
 Center     Atomic      Atomic             Coordinates (Angstroms)
 Number     Number       Type             X           Y           Z
 ---------------------------------------------------------------------
      1          6           0        2.091395   -1.403004    1.191685
      2          6           0        2.265297   -0.450810    0.003878
      3          6           0        3.684041   -0.589429   -0.586987
      4          6           0        1.225523   -0.753700   -1.118983
      5          6           0       -0.220211   -0.643553   -0.695581
      6          6           0       -0.873560    0.595504   -0.678262
      7          6           0       -2.193762    0.708090   -0.251538
      8          6           0       -2.897582   -0.438472    0.158923
      9          6           0       -2.262906   -1.682074    0.146301
     10          6           0       -0.939267   -1.771252   -0.276174
     11          8           0       -4.188709   -0.322176    0.551629
     12          7           0       -2.949008    1.937595   -0.200655
     13          6           0        2.083225    0.982390    0.491077
     14          8           0        1.851981    1.332391    1.626296
     15          8           0        2.226207    1.892830   -0.515424
     16          1           0        2.219027   -2.438461    0.856639
     17          1           0        1.100870   -1.301752    1.639736
     18          1           0        2.834014   -1.195199    1.967161
     19          1           0        3.841516   -1.620604   -0.921985
     20          1           0        3.828168    0.078590   -1.440458
     21          1           0        4.447329   -0.359525    0.164606
     22          1           0        1.424389   -0.081710   -1.960319
     23          1           0        1.428595   -1.772642   -1.470366
     24          1           0       -0.342874    1.487952   -1.001234
     25          1           0       -2.817126   -2.561111    0.458377
     26          1           0       -0.451558   -2.742810   -0.285869
     27          1           0       -4.393471    0.629475    0.410978
     28          1           0       -2.868204    2.458577   -1.070991
     29          1           0       -2.611377    2.544952    0.544662
     30          1           0        2.114764    2.764600   -0.092388
 ---------------------------------------------------------------------

 SCF Done:  E(UB3LYP) =  -708.913902281     A.U. after   33 cycles
 SCF Done:  E(UB3LYP) =  -708.913902281     a.u. after    1 cycles

 The electronic state is 2-A.
 Alpha  occ. eigenvalues --  -19.06664 -19.04639 -19.01706 -14.21075 -10.20463
 Alpha  occ. eigenvalues --  -10.13175 -10.10828 -10.10416 -10.08303 -10.07956
 Alpha  occ. eigenvalues --  -10.07894 -10.07611 -10.07521 -10.07275 -10.06730
 Alpha  occ. eigenvalues --   -1.00890  -0.96329  -0.91999  -0.80424  -0.75612
 Alpha  occ. eigenvalues --   -0.73029  -0.66037  -0.63423  -0.60127  -0.58676
 Alpha  occ. eigenvalues --   -0.56063  -0.52351  -0.49259  -0.46204  -0.44207
 Alpha  occ. eigenvalues --   -0.41526  -0.39518  -0.39380  -0.38466  -0.37350
 Alpha  occ. eigenvalues --   -0.37205  -0.35183  -0.33840  -0.32888  -0.32557
 Alpha  occ. eigenvalues --   -0.31630  -0.30802  -0.30421  -0.29900  -0.28071
 Alpha  occ. eigenvalues --   -0.27636  -0.27002  -0.25762  -0.24969  -0.23893
 Alpha  occ. eigenvalues --   -0.22833  -0.22573  -0.18173  -0.17942  -0.15455
 Alpha  occ. eigenvalues --   -0.12175   0.04247
 Alpha virt. eigenvalues --    0.06082   0.07270   0.07482   0.08235   0.08461
 Alpha virt. eigenvalues --    0.09243   0.09282   0.09911   0.10347   0.10694
 Alpha virt. eigenvalues --    0.11264   0.11423   0.11754   0.13074   0.13435

  Beta  occ. eigenvalues --  -19.06616 -19.04629 -19.01684 -14.20999 -10.20453
  Beta  occ. eigenvalues --  -10.13169 -10.10823 -10.10414 -10.08292 -10.07952
  Beta  occ. eigenvalues --  -10.07891 -10.07584 -10.07518 -10.07249 -10.06720
  Beta  occ. eigenvalues --   -1.00827  -0.96308  -0.91937  -0.80329  -0.75579
  Beta  occ. eigenvalues --   -0.73001  -0.66014  -0.63370  -0.60092  -0.58642
  Beta  occ. eigenvalues --   -0.55983  -0.52297  -0.49226  -0.46125  -0.44176
  Beta  occ. eigenvalues --   -0.41485  -0.39441  -0.39343  -0.38428  -0.37297
  Beta  occ. eigenvalues --   -0.37162  -0.35137  -0.33804  -0.32843  -0.32518
  Beta  occ. eigenvalues --   -0.31604  -0.30781  -0.30397  -0.29874  -0.28050
  Beta  occ. eigenvalues --   -0.27613  -0.26967  -0.25741  -0.24945  -0.23865
  Beta  occ. eigenvalues --   -0.22810  -0.22510  -0.18113  -0.17879  -0.15417
  Beta  occ. eigenvalues --   -0.12149
  Beta virt. eigenvalues --    0.06329   0.07502   0.07586   0.07693   0.08524
  Beta virt. eigenvalues --    0.08942   0.09343   0.09581   0.10024   0.10728
  Beta virt. eigenvalues --    0.11138   0.11483   0.11911   0.12007   0.13380

 Mulliken charges and spin densities:
               1          2
     1  C   -0.451280  -0.254503
     2  C   -0.405470   1.276530
     3  C    0.587466  -1.128702
     4  C    1.728510  -2.667289
     5  C    0.603712   0.739579
     6  C   -1.379025   1.305137
     7  C    1.139763  -1.676331
     8  C    0.522070  -0.821766
     9  C   -0.406034   0.242358
    10  C   -1.161920   0.790827
    11  O   -0.258655  -0.024337
    12  N   -0.489418   0.040318
    13  C    0.259453  -0.843617
    14  O   -0.254933   0.041508
    15  O   -0.200226   0.082883
    16  H    0.085626   0.059626
    17  H    0.127542   0.046947
    18  H    0.126178   0.036344
    19  H   -0.217880   0.359902
    20  H   -0.017516   0.188178
    21  H    0.026415   0.123171
    22  H   -0.052624   0.271373
    23  H    0.085031   0.084944
    24  H   -0.141417   0.364087
    25  H    0.131366   0.043302
    26  H   -0.043830   0.175638
    27  H    0.265554   0.040699
    28  H   -0.560218   0.841643
    29  H   -0.349274   0.645910
    30  H   -0.298966   0.615640
 Sum of Mulliken charges =  -1.00000   1.00000

 Dipole moment (field-independent basis, Debye):
    X=              1.6115    Y=             -7.4713    Z=              0.9911  Tot=              7.7071
 Quadrupole moment (field-independent basis, Debye-Ang):
   XX=           -152.0836   YY=           -141.8524   ZZ=           -120.6519
   XY=              6.5056   XZ=              0.1060   YZ=              2.9057

 Summary of Natural Population Analysis:

                                       Natural Population
                Natural  -----------------------------------------------
    Atom  No    Charge         Core      Valence    Rydberg      Total
 -----------------------------------------------------------------------
      C    1   -0.28524      0.99963     2.27907    0.00653     3.28524
      C    2   -0.07935      0.99952     2.06788    0.01194     3.07935
      C    3   -0.28132      0.99963     2.27401    0.00768     3.28132
      C    4   -0.19214      0.99957     2.18111    0.01146     3.19214
      C    5   -0.03434      0.99951     2.02397    0.01086     3.03434
      C    6   -0.09705      0.99946     2.08662    0.01097     3.09705
      C    7    0.04276      0.99943     1.94585    0.01197     2.95724
      C    8    0.15508      0.99935     1.83061    0.01497     2.84492
      C    9   -0.12768      0.99953     2.11957    0.00858     3.12768
      C   10   -0.09403      0.99952     2.08655    0.00796     3.09403
      O   11   -0.34788      0.99988     3.34162    0.00638     4.34788
      N   12   -0.44145      0.99974     2.92950    0.01221     3.94145
      C   13    0.41462      0.99962     1.55829    0.02747     2.58538
      O   14   -0.30092      0.99987     3.29471    0.00634     4.30092
      O   15   -0.35084      0.99988     3.34332    0.00764     4.35084
      H   16    0.09570      0.00000     0.40342    0.00088     0.40430
      H   17    0.11163      0.00000     0.38743    0.00094     0.38837
      H   18    0.10421      0.00000     0.39499    0.00080     0.39579
      H   19    0.09968      0.00000     0.39924    0.00108     0.40032
      H   20    0.10862      0.00000     0.39024    0.00114     0.39138
      H   21    0.10143      0.00000     0.39766    0.00091     0.39857
      H   22    0.11190      0.00000     0.38656    0.00154     0.38810
      H   23    0.10087      0.00000     0.39796    0.00117     0.39913
      H   24    0.10953      0.00000     0.38752    0.00295     0.39047
      H   25    0.10192      0.00000     0.39697    0.00110     0.39808
      H   26    0.09734      0.00000     0.40174    0.00092     0.40266
      H   27    0.24755      0.00000     0.24906    0.00339     0.25245
      H   28    0.19327      0.00000     0.29857    0.00816     0.30673
      H   29    0.19094      0.00000     0.30507    0.00399     0.30906
      H   30    0.24517      0.00000     0.24316    0.01167     0.25483
 =======================================================================
   * Total *   -0.00000     14.99414    40.80227    0.20359    56.00000

 Normal termination of Gaussian 16 at Thu Dec 10 17:53:23 2020.
