 Gaussian 16, Revision A.03,

 -----------------------------------------------------------
 # opt freq B3LYP/6-31G(d) empiricaldispersion=gd3bj scf=xqc
 -----------------------------------------------------------

 -------------------------------
 CID_107917624_JID_9009_neutraal
 -------------------------------
 Symbolic Z-matrix:
 Charge =  0 Multiplicity = 1

 SCF Done:  E(RB3LYP) =  -859.639109310     A.U. after   14 cycles
 SCF Done:  E(RB3LYP) =  -859.645486783     A.U. after   12 cycles
 SCF Done:  E(RB3LYP) =  -859.646224914     A.U. after   12 cycles
 SCF Done:  E(RB3LYP) =  -859.646979898     A.U. after   11 cycles
 SCF Done:  E(RB3LYP) =  -859.647309410     A.U. after   12 cycles
 SCF Done:  E(RB3LYP) =  -859.647746524     A.U. after   12 cycles
 SCF Done:  E(RB3LYP) =  -859.647919438     A.U. after   12 cycles
 SCF Done:  E(RB3LYP) =  -859.647765074     A.U. after   12 cycles
 SCF Done:  E(RB3LYP) =  -859.648709483     A.U. after   12 cycles
 SCF Done:  E(RB3LYP) =  -859.633090069     A.U. after   15 cycles
 SCF Done:  E(RB3LYP) =  -859.652015575     A.U. after    8 cycles
 SCF Done:  E(RB3LYP) =  -859.652016902     A.U. after    9 cycles
 SCF Done:  E(RB3LYP) =  -859.652017193     A.U. after    8 cycles
 SCF Done:  E(RB3LYP) =  -859.652017373     A.U. after    7 cycles
 SCF Done:  E(RB3LYP) =  -859.652017383     A.U. after    6 cycles
 Optimization completed.
    -- Stationary point found.
 Normal termination of Gaussian 16 at Sat Dec 12 09:36:37 2020.

 --------------------------------------------------------------------
 #N Geom=AllCheck Guess=TCheck SCRF=Check GenChk RB3LYP/6-31G(d) Freq
 --------------------------------------------------------------------

 Structure from the checkpoint file:  "JID_9009.chk"
 -------------------------------
 CID_107917624_JID_9009_neutraal
 -------------------------------
 Charge =  0 Multiplicity = 1

 SCF Done:  E(RB3LYP) =  -859.652017383     A.U. after    1 cycles

  Exact polarizability: 233.883  -9.082 176.634  -3.664 -31.739 119.017
 Approx polarizability: 358.968 -11.788 268.643  -4.909 -71.253 194.423

                      1                      2                      3
                      A                      A                      A
 Frequencies --     27.7252                40.7271                52.1192
 Red. masses --      4.2340                 3.4175                 3.9905
 Frc consts  --      0.0019                 0.0033                 0.0064
 IR Inten    --      0.0926                 0.0895                 0.9411

                      4                      5                      6
                      A                      A                      A
 Frequencies --     72.1770                79.9822                91.4463
 Red. masses --      4.3702                 4.2142                 4.2136
 Frc consts  --      0.0134                 0.0159                 0.0208
 IR Inten    --      0.4325                 0.0303                 2.0228

                      7                      8                      9
                      A                      A                      A
 Frequencies --    102.4936               132.3112               149.6273
 Red. masses --      3.1214                 4.4443                 3.3993
 Frc consts  --      0.0193                 0.0458                 0.0448
 IR Inten    --      2.5565                 1.5065                 3.0407

                     10                     11                     12
                      A                      A                      A
 Frequencies --    192.1283               218.8461               231.2262
 Red. masses --      1.6068                 3.0832                 3.8838
 Frc consts  --      0.0349                 0.0870                 0.1223
 IR Inten    --      2.8378                 3.6137                 1.4320

                     13                     14                     15
                      A                      A                      A
 Frequencies --    240.9057               277.6212               295.6615
 Red. masses --      3.4906                 1.5082                 1.8798
 Frc consts  --      0.1194                 0.0685                 0.0968
 IR Inten    --      4.7888                75.8295                17.9805

                     16                     17                     18
                      A                      A                      A
 Frequencies --    315.6554               333.5423               348.2175
 Red. masses --      4.9439                 2.2061                 2.6030
 Frc consts  --      0.2902                 0.1446                 0.1860
 IR Inten    --      1.2495                14.6239                10.2753

                     19                     20                     21
                      A                      A                      A
 Frequencies --    359.9301               373.3254               418.4661
 Red. masses --      5.4522                 2.5529                 3.1778
 Frc consts  --      0.4162                 0.2096                 0.3279
 IR Inten    --      0.5478                18.7427                 6.4051

                     22                     23                     24
                      A                      A                      A
 Frequencies --    448.6132               458.4338               479.5363
 Red. masses --      1.9913                 1.7357                 2.4953
 Frc consts  --      0.2361                 0.2149                 0.3381
 IR Inten    --     20.0512                23.0983                 5.7968

                     25                     26                     27
                      A                      A                      A
 Frequencies --    503.7721               523.8208               569.6627
 Red. masses --      2.6958                 3.1700                 3.9622
 Frc consts  --      0.4031                 0.5125                 0.7576
 IR Inten    --      1.4084                 8.9071                 1.7497

                     28                     29                     30
                      A                      A                      A
 Frequencies --    579.4610               611.8065               629.9166
 Red. masses --      1.9238                 3.7260                 3.8420
 Frc consts  --      0.3806                 0.8217                 0.8982
 IR Inten    --    110.1853                 3.6800                57.2614

                     31                     32                     33
                      A                      A                      A
 Frequencies --    655.4260               712.1461               726.5342
 Red. masses --      2.7602                 3.8061                 1.3502
 Frc consts  --      0.6986                 1.1373                 0.4199
 IR Inten    --     44.8972                35.5367                19.7583

                     34                     35                     36
                      A                      A                      A
 Frequencies --    736.0089               774.5547               780.0525
 Red. masses --      4.4920                 1.3217                 3.3647
 Frc consts  --      1.4337                 0.4672                 1.2063
 IR Inten    --     50.8926                 1.0580                 3.5807

                     37                     38                     39
                      A                      A                      A
 Frequencies --    791.7637               834.6294               838.1716
 Red. masses --      4.7287                 1.3863                 3.7311
 Frc consts  --      1.7466                 0.5690                 1.5444
 IR Inten    --     34.1352                15.7673                 9.6185

                     40                     41                     42
                      A                      A                      A
 Frequencies --    847.8631               884.0842               894.6198
 Red. masses --      1.4682                 2.1980                 2.5989
 Frc consts  --      0.6219                 1.0122                 1.2255
 IR Inten    --     12.5245                 4.5961                 1.6952

                     43                     44                     45
                      A                      A                      A
 Frequencies --    904.2042               940.5711               942.9736
 Red. masses --      1.4653                 1.4850                 3.3067
 Frc consts  --      0.7059                 0.7741                 1.7324
 IR Inten    --     24.3854                13.5580                30.0111

                     46                     47                     48
                      A                      A                      A
 Frequencies --    948.9170               954.0279               965.2676
 Red. masses --      2.2538                 1.4176                 4.4031
 Frc consts  --      1.1957                 0.7602                 2.4172
 IR Inten    --      7.4576                13.7230                64.9655

                     49                     50                     51
                      A                      A                      A
 Frequencies --    976.3270              1065.5801              1079.6853
 Red. masses --      2.1294                 1.8112                 2.2051
 Frc consts  --      1.1959                 1.2117                 1.5145
 IR Inten    --     22.4057                 4.5068                 5.4163

                     52                     53                     54
                      A                      A                      A
 Frequencies --   1100.2790              1110.3172              1129.7053
 Red. masses --      2.0279                 1.5277                 1.9936
 Frc consts  --      1.4465                 1.1096                 1.4991
 IR Inten    --     14.9900                16.9683                 9.7587

                     55                     56                     57
                      A                      A                      A
 Frequencies --   1139.3244              1163.7032              1166.9531
 Red. masses --      2.2044                 2.7242                 1.7795
 Frc consts  --      1.6859                 2.1735                 1.4278
 IR Inten    --     48.8657                67.6085                25.6859

                     58                     59                     60
                      A                      A                      A
 Frequencies --   1176.5711              1190.5403              1231.0126
 Red. masses --      1.8567                 1.7881                 1.7113
 Frc consts  --      1.5143                 1.4932                 1.5279
 IR Inten    --      8.4541                 3.3173                26.1601

                     61                     62                     63
                      A                      A                      A
 Frequencies --   1243.0464              1289.1193              1290.5945
 Red. masses --      1.9706                 1.1808                 1.3492
 Frc consts  --      1.7940                 1.1562                 1.3241
 IR Inten    --      2.2795                 3.0414                11.2814

                     64                     65                     66
                      A                      A                      A
 Frequencies --   1312.1345              1336.8507              1347.4822
 Red. masses --      1.2085                 1.2292                 1.7148
 Frc consts  --      1.2259                 1.2943                 1.8344
 IR Inten    --      8.0565                 8.8051                99.5739

                     67                     68                     69
                      A                      A                      A
 Frequencies --   1362.0236              1369.3320              1395.4111
 Red. masses --      1.9437                 3.3614                 3.2071
 Frc consts  --      2.1244                 3.7136                 3.6793
 IR Inten    --     91.3673                 8.6287                30.5291

                     70                     71                     72
                      A                      A                      A
 Frequencies --   1402.1033              1413.8852              1416.5214
 Red. masses --      1.2547                 1.3720                 1.3636
 Frc consts  --      1.4533                 1.6159                 1.6120
 IR Inten    --     20.5706                27.6784                17.2711

                     73                     74                     75
                      A                      A                      A
 Frequencies --   1437.0388              1442.1879              1450.3153
 Red. masses --      1.3582                 3.1990                 2.3615
 Frc consts  --      1.6525                 3.9202                 2.9266
 IR Inten    --      4.5331                 3.7038                28.5407

                     76                     77                     78
                      A                      A                      A
 Frequencies --   1456.9631              1496.8271              1513.6306
 Red. masses --      1.3579                 1.6640                 1.6344
 Frc consts  --      1.6983                 2.1966                 2.2062
 IR Inten    --      5.4354                39.9800                26.5188

                     79                     80                     81
                      A                      A                      A
 Frequencies --   1517.9281              1520.7951              1526.5424
 Red. masses --      1.0692                 1.1212                 1.0510
 Frc consts  --      1.4514                 1.5279                 1.4430
 IR Inten    --      0.4641                 5.9292                 3.1519

                     82                     83                     84
                      A                      A                      A
 Frequencies --   1540.5646              1545.9788              1550.2007
 Red. masses --      1.0656                 4.3058                 1.1056
 Frc consts  --      1.4900                 6.0633                 1.5654
 IR Inten    --      4.8078                 1.1010                 5.4815

                     85                     86                     87
                      A                      A                      A
 Frequencies --   1565.2330              1614.4381              1649.1765
 Red. masses --      4.0828                 6.3015                 1.2950
 Frc consts  --      5.8934                 9.6769                 2.0752
 IR Inten    --     37.5398                 4.5470                82.9076

                     88                     89                     90
                      A                      A                      A
 Frequencies --   1674.2948              1717.2626              2982.5717
 Red. masses --      6.0278                 4.7187                 1.0668
 Frc consts  --      9.9557                 8.1988                 5.5913
 IR Inten    --     15.8698               110.2658                52.6328

                     91                     92                     93
                      A                      A                      A
 Frequencies --   3017.2479              3043.7603              3045.5535
 Red. masses --      1.0575                 1.0461                 1.0644
 Frc consts  --      5.6722                 5.7100                 5.8166
 IR Inten    --     69.8503                25.6993                34.1327

                     94                     95                     96
                      A                      A                      A
 Frequencies --   3057.7305              3059.8745              3069.8803
 Red. masses --      1.0905                 1.0888                 1.0789
 Frc consts  --      6.0072                 6.0062                 5.9909
 IR Inten    --      4.2064                38.9700                89.2862

                     97                     98                     99
                      A                      A                      A
 Frequencies --   3097.9057              3114.4500              3116.5136
 Red. masses --      1.0962                 1.0992                 1.1050
 Frc consts  --      6.1983                 6.2816                 6.3233
 IR Inten    --     16.0189                19.2732                14.2762

                    100                    101                    102
                      A                      A                      A
 Frequencies --   3134.1775              3190.4450              3212.2492
 Red. masses --      1.1014                 1.0879                 1.0933
 Frc consts  --      6.3745                 6.5243                 6.6466
 IR Inten    --     31.2784                11.4742                15.6295

                    103                    104                    105
                      A                      A                      A
 Frequencies --   3249.2209              3253.2013              3272.5358
 Red. masses --      1.0908                 1.0894                 1.1034
 Frc consts  --      6.7853                 6.7933                 6.9624
 IR Inten    --      0.1547                 1.0392                 7.4982

                    106                    107                    108
                      A                      A                      A
 Frequencies --   3564.0528              3670.8472              3786.7376
 Red. masses --      1.0462                 1.0999                 1.0678
 Frc consts  --      7.8298                 8.7324                 9.0217
 IR Inten    --     31.1256                22.6797                74.8596

 - Thermochemistry -
 -------------------
 Temperature   298.150 Kelvin.  Pressure   1.00000 Atm.
 Atom     1 has atomic number  6 and mass  12.00000

 Molecular mass:   261.14773 amu.
 Principal axes and moments of inertia in atomic units:
                           1         2         3
     Eigenvalues --  4119.608035554.483188318.20918
           X            0.99984   0.01695  -0.00480
           Y           -0.01692   0.99983   0.00685
           Z            0.00491  -0.00676   0.99997
 This molecule is an asymmetric top.
 Rotational symmetry number  1.
 Warning -- assumption of classical behavior for rotation
           may cause significant error
 Rotational temperatures (Kelvin)      0.02102     0.01559     0.01041
 Rotational constants (GHZ):           0.43809     0.32492     0.21696
 Zero-point vibrational energy     844311.2 (Joules/Mol)
                                  201.79522 (Kcal/Mol)
 Warning -- explicit consideration of  29 degrees of freedom as
           vibrations may cause significant error
 Vibrational temperatures:     39.89    58.60    74.99   103.85   115.08
          (Kelvin)            131.57   147.47   190.37   215.28   276.43
                              314.87   332.68   346.61   399.43   425.39
                              454.16   479.89   501.01   517.86   537.13
                              602.08   645.45   659.58   689.95   724.82
                              753.66   819.62   833.72   880.25   906.31
                              943.01  1024.62  1045.32  1058.95  1114.41
                             1122.32  1139.17  1200.85  1205.94  1219.89
                             1272.00  1287.16  1300.95  1353.27  1356.73
                             1365.28  1372.63  1388.80  1404.72  1533.13
                             1553.43  1583.06  1597.50  1625.39  1639.23
                             1674.31  1678.99  1692.82  1712.92  1771.15
                             1788.47  1854.76  1856.88  1887.87  1923.43
                             1938.73  1959.65  1970.16  2007.69  2017.31
                             2034.27  2038.06  2067.58  2074.99  2086.68
                             2096.24  2153.60  2177.78  2183.96  2188.08
                             2196.35  2216.53  2224.32  2230.39  2252.02
                             2322.82  2372.80  2408.94  2470.76  4291.26
                             4341.15  4379.29  4381.87  4399.39  4402.48
                             4416.87  4457.20  4481.00  4483.97  4509.38
                             4590.34  4621.71  4674.90  4680.63  4708.45
                             5127.88  5281.53  5448.27

 Zero-point correction=                           0.321581 (Hartree/Particle)
 Thermal correction to Energy=                    0.340043
 Thermal correction to Enthalpy=                  0.340987
 Thermal correction to Gibbs Free Energy=         0.274325
 Sum of electronic and zero-point Energies=           -859.330436
 Sum of electronic and thermal Energies=              -859.311975
 Sum of electronic and thermal Enthalpies=            -859.311030
 Sum of electronic and thermal Free Energies=         -859.377692

                     E (Thermal)             CV                S
                      KCal/Mol        Cal/Mol-Kelvin    Cal/Mol-Kelvin
 Total                  213.380             70.703            140.302
 Electronic               0.000              0.000              0.000
 Translational            0.889              2.981             42.579
 Rotational               0.889              2.981             33.609
 Vibrational            211.603             64.741             64.114
 Vibration     1          0.593              1.984              5.986
 Vibration     2          0.594              1.981              5.223
 Vibration     3          0.596              1.977              4.735
 Vibration     4          0.598              1.967              4.093
 Vibration     5          0.600              1.963              3.891
 Vibration     6          0.602              1.955              3.629
 Vibration     7          0.605              1.947              3.406
 Vibration     8          0.612              1.921              2.912
 Vibration     9          0.618              1.903              2.677
 Vibration    10          0.634              1.851              2.207
 Vibration    11          0.647              1.812              1.969
 Vibration    12          0.653              1.793              1.869
 Vibration    13          0.658              1.778              1.796
 Vibration    14          0.679              1.715              1.548
 Vibration    15          0.690              1.682              1.441
 Vibration    16          0.703              1.644              1.333
 Vibration    17          0.715              1.609              1.243
 Vibration    18          0.726              1.579              1.174
 Vibration    19          0.734              1.555              1.122
 Vibration    20          0.745              1.527              1.066
 Vibration    21          0.781              1.430              0.897
 Vibration    22          0.808              1.364              0.800
 Vibration    23          0.816              1.342              0.771
 Vibration    24          0.836              1.295              0.711
 Vibration    25          0.859              1.242              0.649
 Vibration    26          0.879              1.197              0.601
 Vibration    27          0.926              1.097              0.505
 Vibration    28          0.936              1.076              0.486
 Vibration    29          0.971              1.007              0.430

 Optimization completed.
    -- Stationary point found.
 Normal termination of Gaussian 16 at Sat Dec 12 09:56:09 2020.

 ----------------------------------------------------------------------
 # B3LYP/6-311++G(d,p) empiricaldispersion=gd3bj scf=xqc pop=npa geom=c
 heck
 ----------------------------------------------------------------------

 ---------------------------------------
 CID_107917624_JID_9009_Energie_neutraal
 ---------------------------------------
 Structure from the checkpoint file:  "JID_9009.chk"
 Charge =  0 Multiplicity = 1

 SCF Done:  E(RB3LYP) =  -859.900262149     A.U. after   16 cycles
 Normal termination of Gaussian 16 at Sat Dec 12 10:04:37 2020.

 ----------------------------------------------------------------------
 # B3LYP/6-311++G(d,p) empiricaldispersion=gd3bj scf=xqc pop=npa geom=c
 heck
 ----------------------------------------------------------------------

 -------------------------------------
 CID_107917624_JID_9009_Energie_kation
 -------------------------------------
 Structure from the checkpoint file:  "JID_9009.chk"
 Charge =  1 Multiplicity = 2

 SCF Done:  E(UB3LYP) =  -859.637899645     A.U. after   25 cycles
 Normal termination of Gaussian 16 at Sat Dec 12 10:21:23 2020.
 Gaussian 16:  ES64L-G16RevA.03 25-Dec-2016

 ----------------------------------------------------------------------
 # B3LYP/6-311++G(d,p) empiricaldispersion=gd3bj scf=xqc pop=npa geom=c
 heck
 ----------------------------------------------------------------------

 ------------------------------------
 CID_107917624_JID_9009_Energie_anion
 ------------------------------------
 Structure from the checkpoint file:  "JID_9009.chk"
 Charge = -1 Multiplicity = 2

                         Standard orientation:
 ---------------------------------------------------------------------
 Center     Atomic      Atomic             Coordinates (Angstroms)
 Number     Number       Type             X           Y           Z
 ---------------------------------------------------------------------
      1          6           0        0.651238   -3.900023   -1.015315
      2          6           0        0.345202   -2.445108   -1.377786
      3          6           0       -1.084733   -2.039990   -1.054363
      4          8           0       -1.284064   -2.182422    0.353490
      5          6           0       -2.570858   -1.838123    0.821119
      6          6           0       -2.558337   -0.505791    1.575302
      7          7           0       -2.292096    0.646242    0.733265
      8          6           0       -3.258450    1.432606    0.129629
      9          6           0       -2.670622    2.386369   -0.661070
     10          6           0       -1.253246    2.192059   -0.562842
     11          6           0       -1.046608    1.086299    0.313788
     12          6           0        0.223964    0.605499    0.624613
     13          6           0        1.321082    1.242825    0.043139
     14          6           0        1.135759    2.351099   -0.820708
     15          6           0       -0.130924    2.824533   -1.123878
     16          6           0        2.683720    0.738647    0.315990
     17          7           0        2.825573   -0.522900    0.571596
     18          8           0        4.197066   -0.800338    0.861584
     19          7           0        3.737934    1.629020    0.225062
     20          1           0        0.502895   -4.067342    0.055603
     21          1           0        1.687701   -4.155682   -1.261564
     22          1           0       -0.004072   -4.593605   -1.557899
     23          1           0        1.033664   -1.777575   -0.848165
     24          1           0        0.501651   -2.279801   -2.452277
     25          1           0       -1.266275   -1.002054   -1.363198
     26          1           0       -1.801409   -2.685949   -1.589134
     27          1           0       -3.295733   -1.790937   -0.004120
     28          1           0       -2.901629   -2.623047    1.515822
     29          1           0       -3.527936   -0.350985    2.062357
     30          1           0       -1.796581   -0.545964    2.360316
     31          1           0       -4.304266    1.243738    0.331272
     32          1           0       -3.185500    3.143857   -1.235230
     33          1           0        0.373874   -0.259372    1.257861
     34          1           0        2.005740    2.805166   -1.283994
     35          1           0       -0.255296    3.664246   -1.802011
     36          1           0        4.170895   -1.753272    1.028138
     37          1           0        3.528736    2.574964    0.514930
     38          1           0        4.606517    1.263750    0.595523
 ---------------------------------------------------------------------

 SCF Done:  E(UB3LYP) =  -859.890826194     A.U. after   33 cycles
 SCF Done:  E(UB3LYP) =  -859.890826193     a.u. after    1 cycles

 The electronic state is 2-A.
 Alpha  occ. eigenvalues --  -19.05501 -19.01891 -14.24204 -14.22450 -14.22331
 Alpha  occ. eigenvalues --  -10.12436 -10.11511 -10.11105 -10.10087 -10.08494
 Alpha  occ. eigenvalues --  -10.08147 -10.06131 -10.06081 -10.05839 -10.05627
 Alpha  occ. eigenvalues --  -10.05489 -10.05213 -10.04652 -10.04604  -0.96780
 Alpha  occ. eigenvalues --   -0.93300  -0.87152  -0.83008  -0.73729  -0.71979
 Alpha  occ. eigenvalues --   -0.69538  -0.67861  -0.64139  -0.61915  -0.60688
 Alpha  occ. eigenvalues --   -0.57533  -0.52904  -0.52253  -0.48969  -0.48372
 Alpha  occ. eigenvalues --   -0.46189  -0.44873  -0.43107  -0.42020  -0.40185
 Alpha  occ. eigenvalues --   -0.39663  -0.38370  -0.37154  -0.35610  -0.35165
 Alpha  occ. eigenvalues --   -0.34601  -0.34070  -0.32868  -0.31899  -0.31313
 Alpha  occ. eigenvalues --   -0.30477  -0.30268  -0.29763  -0.28889  -0.28051
 Alpha  occ. eigenvalues --   -0.27408  -0.25654  -0.25141  -0.24204  -0.24032
 Alpha  occ. eigenvalues --   -0.23698  -0.22545  -0.21333  -0.21222  -0.17655
 Alpha  occ. eigenvalues --   -0.16897  -0.15608  -0.13108  -0.11050  -0.09155
 Alpha  occ. eigenvalues --    0.04692
 Alpha virt. eigenvalues --    0.06570   0.06951   0.07474   0.08079   0.08503
 Alpha virt. eigenvalues --    0.09141   0.09720   0.10011   0.10506   0.10703
 Alpha virt. eigenvalues --    0.11214   0.11636   0.12208   0.12720   0.13138

  Beta  occ. eigenvalues --  -19.05478 -19.01892 -14.24176 -14.22437 -14.22201
  Beta  occ. eigenvalues --  -10.12399 -10.11493 -10.11104 -10.10052 -10.08529
  Beta  occ. eigenvalues --  -10.07981 -10.06128 -10.06079 -10.05726 -10.05652
  Beta  occ. eigenvalues --  -10.05422 -10.05123 -10.04629 -10.04511  -0.96688
  Beta  occ. eigenvalues --   -0.93298  -0.87058  -0.82934  -0.73576  -0.71848
  Beta  occ. eigenvalues --   -0.69449  -0.67789  -0.63998  -0.61749  -0.60537
  Beta  occ. eigenvalues --   -0.57501  -0.52792  -0.52018  -0.48923  -0.48362
  Beta  occ. eigenvalues --   -0.46079  -0.44767  -0.43022  -0.41960  -0.40102
  Beta  occ. eigenvalues --   -0.39635  -0.38327  -0.37042  -0.35538  -0.35093
  Beta  occ. eigenvalues --   -0.34518  -0.33999  -0.32807  -0.31828  -0.31105
  Beta  occ. eigenvalues --   -0.30385  -0.30102  -0.29690  -0.28772  -0.27896
  Beta  occ. eigenvalues --   -0.27330  -0.25637  -0.25066  -0.24095  -0.24016
  Beta  occ. eigenvalues --   -0.23479  -0.22481  -0.21303  -0.20945  -0.17503
  Beta  occ. eigenvalues --   -0.16467  -0.15486  -0.12649  -0.10608  -0.08556
  Beta virt. eigenvalues --    0.06481   0.07290   0.07691   0.08149   0.08564
  Beta virt. eigenvalues --    0.08674   0.09422   0.09993   0.10179   0.10823
  Beta virt. eigenvalues --    0.10836   0.11401   0.11941   0.12286   0.12753

 Mulliken charges and spin densities:
               1          2
     1  C   -0.465488  -0.092665
     2  C   -0.338791  -0.018308
     3  C   -0.233558   0.011038
     4  O   -0.074475   0.012892
     5  C    0.814922  -1.091823
     6  C    0.003770  -0.156762
     7  N    0.217426   0.022551
     8  C    0.171219  -0.134081
     9  C    0.067025  -0.273687
    10  C    0.319026  -0.192902
    11  C   -0.840955   0.573408
    12  C   -0.574477   0.129086
    13  C    1.541002  -0.653316
    14  C   -0.361884  -0.114140
    15  C   -0.364578  -0.052411
    16  C   -0.096295  -0.237578
    17  N   -0.451700   0.050544
    18  O   -0.060623   0.006585
    19  N   -0.334296   0.013122
    20  H    0.126445   0.043709
    21  H    0.116272   0.004669
    22  H    0.091753   0.025758
    23  H    0.294560  -0.038057
    24  H    0.102354   0.010469
    25  H    0.158045  -0.009442
    26  H    0.074839   0.054921
    27  H    0.197519  -0.068943
    28  H   -0.547228   0.719662
    29  H   -1.170006   1.360205
    30  H    0.021366   0.171928
    31  H   -0.583898   0.736183
    32  H    0.040821   0.092698
    33  H    0.132620   0.046793
    34  H    0.146932   0.007330
    35  H    0.102326   0.020433
    36  H    0.259915   0.006114
    37  H    0.210018   0.017566
    38  H    0.288075  -0.003549
 Sum of Mulliken charges =  -1.00000   1.00000

 Dipole moment (field-independent basis, Debye):
    X=              7.5124    Y=              0.2012    Z=             -4.7310  Tot=              8.8803
 Quadrupole moment (field-independent basis, Debye-Ang):
   XX=           -181.8248   YY=           -146.4102   ZZ=           -144.7307
   XY=             -0.2425   XZ=             24.1461   YZ=              4.5946

 Summary of Natural Population Analysis:

                                       Natural Population
                Natural  -----------------------------------------------
    Atom  No    Charge         Core      Valence    Rydberg      Total
 -----------------------------------------------------------------------
      C    1   -0.28585      0.99967     2.28163    0.00454     3.28585
      C    2   -0.20829      0.99963     2.20103    0.00763     3.20829
      C    3   -0.00607      0.99958     1.99525    0.01124     3.00607
      O    4   -0.30887      0.99988     3.29889    0.01011     4.30887
      C    5   -0.00923      0.99957     1.99699    0.01267     3.00923
      C    6   -0.09271      0.99960     2.08014    0.01297     3.09271
      N    7   -0.21233      0.99962     2.70064    0.01207     3.71233
      C    8    0.03812      0.99955     1.95018    0.01215     2.96188
      C    9   -0.15875      0.99953     2.15003    0.00919     3.15875
      C   10   -0.03306      0.99949     2.02324    0.01032     3.03306
      C   11    0.07731      0.99947     1.91157    0.01165     2.92269
      C   12   -0.07860      0.99949     2.06932    0.00978     3.07860
      C   13   -0.03809      0.99943     2.02746    0.01120     3.03809
      C   14   -0.12043      0.99956     2.11253    0.00835     3.12043
      C   15   -0.08805      0.99953     2.07995    0.00857     3.08805
      C   16    0.19657      0.99960     1.78605    0.01778     2.80343
      N   17   -0.11464      0.99962     2.60132    0.01371     3.61464
      O   18   -0.31291      0.99990     3.30651    0.00651     4.31291
      N   19   -0.40586      0.99971     2.89784    0.00832     3.90586
      H   20    0.10440      0.00000     0.39447    0.00113     0.39560
      H   21    0.09376      0.00000     0.40543    0.00082     0.40624
      H   22    0.08978      0.00000     0.40923    0.00100     0.41022
      H   23    0.11783      0.00000     0.38015    0.00201     0.38217
      H   24    0.09131      0.00000     0.40782    0.00088     0.40869
      H   25    0.08958      0.00000     0.40885    0.00157     0.41042
      H   26    0.07199      0.00000     0.42683    0.00118     0.42801
      H   27    0.08049      0.00000     0.41797    0.00154     0.41951
      H   28    0.08963      0.00000     0.40831    0.00205     0.41037
      H   29    0.10683      0.00000     0.38682    0.00635     0.39317
      H   30    0.10306      0.00000     0.39534    0.00161     0.39694
      H   31    0.09895      0.00000     0.39977    0.00128     0.40105
      H   32    0.10138      0.00000     0.39789    0.00072     0.39862
      H   33    0.11488      0.00000     0.38253    0.00259     0.38512
      H   34    0.09781      0.00000     0.40118    0.00101     0.40219
      H   35    0.09376      0.00000     0.40514    0.00110     0.40624
      H   36    0.23328      0.00000     0.26403    0.00270     0.26672
      H   37    0.18775      0.00000     0.31058    0.00168     0.31225
      H   38    0.19531      0.00000     0.30327    0.00143     0.30469
 =======================================================================
   * Total *    0.00001     18.99243    50.77616    0.23140    69.99999

 Normal termination of Gaussian 16 at Sat Dec 12 10:44:16 2020.
