 Gaussian 16, Revision A.03,

 -----------------------------------------------------------
 # opt freq B3LYP/6-31G(d) empiricaldispersion=gd3bj scf=xqc
 -----------------------------------------------------------

 ------------------------------
 CID_62713985_JID_6099_neutraal
 ------------------------------
 Symbolic Z-matrix:
 Charge =  0 Multiplicity = 1

 SCF Done:  E(RB3LYP) =  -659.919700951     A.U. after   13 cycles
 SCF Done:  E(RB3LYP) =  -659.923268116     A.U. after   11 cycles
 SCF Done:  E(RB3LYP) =  -659.922530812     A.U. after   11 cycles
 SCF Done:  E(RB3LYP) =  -659.924095099     A.U. after   10 cycles
 SCF Done:  E(RB3LYP) =  -659.924440287     A.U. after   10 cycles
 SCF Done:  E(RB3LYP) =  -659.924750068     A.U. after   11 cycles
 SCF Done:  E(RB3LYP) =  -659.925035691     A.U. after   10 cycles
 SCF Done:  E(RB3LYP) =  -659.925138714     A.U. after   10 cycles
 SCF Done:  E(RB3LYP) =  -659.925189028     A.U. after    9 cycles
 SCF Done:  E(RB3LYP) =  -659.925201309     A.U. after    9 cycles
 SCF Done:  E(RB3LYP) =  -659.925212821     A.U. after    9 cycles
 SCF Done:  E(RB3LYP) =  -659.925220925     A.U. after    9 cycles
 SCF Done:  E(RB3LYP) =  -659.925222388     A.U. after    7 cycles
 SCF Done:  E(RB3LYP) =  -659.925223379     A.U. after    7 cycles
 SCF Done:  E(RB3LYP) =  -659.925223503     A.U. after    6 cycles
 SCF Done:  E(RB3LYP) =  -659.925223531     A.U. after    6 cycles
 Optimization completed.
    -- Stationary point found.
 Normal termination of Gaussian 16 at Thu Dec 10 21:19:46 2020.

 --------------------------------------------------------------------
 #N Geom=AllCheck Guess=TCheck SCRF=Check GenChk RB3LYP/6-31G(d) Freq
 --------------------------------------------------------------------

 Structure from the checkpoint file:  "JID_6099.chk"
 ------------------------------
 CID_62713985_JID_6099_neutraal
 ------------------------------
 Charge =  0 Multiplicity = 1

 SCF Done:  E(RB3LYP) =  -659.925223531     A.U. after    1 cycles

  Exact polarizability: 179.177   0.682 145.249  -1.682   0.000 140.005
 Approx polarizability: 221.792   4.312 211.601  -1.708   1.444 212.630

                      1                      2                      3
                      A                      A                      A
 Frequencies --     33.1356                40.0964                63.2377
 Red. masses --      3.2991                 2.9580                 3.1205
 Frc consts  --      0.0021                 0.0028                 0.0074
 IR Inten    --      0.1158                 0.0274                 0.2125

                      4                      5                      6
                      A                      A                      A
 Frequencies --    100.8610               103.9324               131.4921
 Red. masses --      2.2547                 2.3756                 2.5841
 Frc consts  --      0.0135                 0.0151                 0.0263
 IR Inten    --      1.2559                 0.5339                 2.1487

                      7                      8                      9
                      A                      A                      A
 Frequencies --    160.9360               192.6048               205.2657
 Red. masses --      2.7286                 1.5139                 2.0673
 Frc consts  --      0.0416                 0.0331                 0.0513
 IR Inten    --      3.0742                13.6029                 0.9368

                     10                     11                     12
                      A                      A                      A
 Frequencies --    216.9539               238.9825               241.8718
 Red. masses --      1.9917                 1.1090                 1.4238
 Frc consts  --      0.0552                 0.0373                 0.0491
 IR Inten    --      0.0301                 0.0112                 1.3956

                     13                     14                     15
                      A                      A                      A
 Frequencies --    261.3707               285.0918               327.1190
 Red. masses --      1.2342                 2.1405                 2.2206
 Frc consts  --      0.0497                 0.1025                 0.1400
 IR Inten    --      0.2013                 4.3858                 8.5810

                     16                     17                     18
                      A                      A                      A
 Frequencies --    347.4430               366.0742               380.6427
 Red. masses --      2.1667                 2.1692                 2.5212
 Frc consts  --      0.1541                 0.1713                 0.2152
 IR Inten    --      1.1622                 0.5989                 0.6503

                     19                     20                     21
                      A                      A                      A
 Frequencies --    388.1998               406.2271               418.2407
 Red. masses --      2.0068                 2.3485                 2.3670
 Frc consts  --      0.1782                 0.2283                 0.2440
 IR Inten    --      0.4184                 2.7138                 1.0951

                     22                     23                     24
                      A                      A                      A
 Frequencies --    424.0500               439.7815               489.1766
 Red. masses --      2.9675                 2.1416                 2.8018
 Frc consts  --      0.3144                 0.2440                 0.3950
 IR Inten    --      3.8434                 0.5473                 6.7855

                     25                     26                     27
                      A                      A                      A
 Frequencies --    516.2475               561.7875               622.5516
 Red. masses --      2.6443                 3.1106                 1.9325
 Frc consts  --      0.4152                 0.5784                 0.4413
 IR Inten    --      4.2612                 9.8849                 0.6245

                     28                     29                     30
                      A                      A                      A
 Frequencies --    671.9384               698.7470               750.1978
 Red. masses --      4.7772                 4.0116                 2.7805
 Frc consts  --      1.2708                 1.1540                 0.9220
 IR Inten    --      1.1459                 0.2217                 7.4998

                     31                     32                     33
                      A                      A                      A
 Frequencies --    771.5227               820.7947               826.8875
 Red. masses --      2.4981                 2.4692                 2.1985
 Frc consts  --      0.8761                 0.9801                 0.8857
 IR Inten    --      0.8096                49.2571                37.6795

                     34                     35                     36
                      A                      A                      A
 Frequencies --    838.6844               855.3540               857.5342
 Red. masses --      2.5143                 1.7441                 1.6200
 Frc consts  --      1.0420                 0.7518                 0.7019
 IR Inten    --      2.5959                 4.2195                 6.5774

                     37                     38                     39
                      A                      A                      A
 Frequencies --    892.2900               907.5307               934.5279
 Red. masses --      1.6262                 1.5465                 2.1016
 Frc consts  --      0.7629                 0.7505                 1.0814
 IR Inten    --    131.8195                11.6574                 1.0956

                     40                     41                     42
                      A                      A                      A
 Frequencies --    938.3447               943.1331               947.3420
 Red. masses --      2.0384                 1.1973                 2.1552
 Frc consts  --      1.0575                 0.6275                 1.1396
 IR Inten    --      5.4808                 1.2785                 5.0466

                     43                     44                     45
                      A                      A                      A
 Frequencies --    970.0624               974.9970               983.4828
 Red. masses --      1.7528                 1.7631                 1.5624
 Frc consts  --      0.9718                 0.9875                 0.8904
 IR Inten    --     10.2696                 2.3522                 0.6939

                     46                     47                     48
                      A                      A                      A
 Frequencies --   1018.4055              1029.2784              1043.8681
 Red. masses --      1.8543                 1.9729                 1.5128
 Frc consts  --      1.1331                 1.2314                 0.9712
 IR Inten    --      0.6493                 3.8352                 2.2781

                     49                     50                     51
                      A                      A                      A
 Frequencies --   1047.2957              1085.2822              1097.3358
 Red. masses --      2.6147                 2.5708                 1.6735
 Frc consts  --      1.6897                 1.7840                 1.1873
 IR Inten    --     18.0488                13.1734                 4.6940

                     52                     53                     54
                      A                      A                      A
 Frequencies --   1116.2247              1125.8227              1137.2744
 Red. masses --      2.0946                 1.9470                 1.8282
 Frc consts  --      1.5376                 1.4540                 1.3932
 IR Inten    --     12.3515                12.2628                18.4858

                     55                     56                     57
                      A                      A                      A
 Frequencies --   1155.6518              1160.2429              1192.2281
 Red. masses --      1.8097                 2.1555                 1.7133
 Frc consts  --      1.4240                 1.7096                 1.4349
 IR Inten    --     24.6534                11.5036                 3.1345

                     58                     59                     60
                      A                      A                      A
 Frequencies --   1197.0020              1204.3572              1213.5866
 Red. masses --      1.2115                 1.8649                 1.5555
 Frc consts  --      1.0227                 1.5938                 1.3498
 IR Inten    --      7.0770                29.0878                20.9635

                     61                     62                     63
                      A                      A                      A
 Frequencies --   1218.9028              1243.8986              1261.2815
 Red. masses --      1.6370                 1.8087                 1.5780
 Frc consts  --      1.4330                 1.6489                 1.4790
 IR Inten    --     11.3556                 3.9441                14.9570

                     64                     65                     66
                      A                      A                      A
 Frequencies --   1293.6074              1305.4637              1312.2731
 Red. masses --      1.4415                 1.2383                 1.2726
 Frc consts  --      1.4212                 1.2434                 1.2911
 IR Inten    --      2.8830                 0.6506                 1.5300

                     67                     68                     69
                      A                      A                      A
 Frequencies --   1332.3335              1335.8843              1347.9402
 Red. masses --      1.3692                 1.3953                 1.7856
 Frc consts  --      1.4320                 1.4671                 1.9115
 IR Inten    --      4.7648                12.9735                13.8206

                     70                     71                     72
                      A                      A                      A
 Frequencies --   1361.9064              1370.2615              1376.3282
 Red. masses --      1.2451                 1.3402                 1.3451
 Frc consts  --      1.3606                 1.4826                 1.5012
 IR Inten    --      2.0667                 4.1112                 1.2403

                     73                     74                     75
                      A                      A                      A
 Frequencies --   1385.2666              1392.8247              1394.3937
 Red. masses --      1.3873                 1.3834                 1.3436
 Frc consts  --      1.5685                 1.5812                 1.5392
 IR Inten    --      0.7031                 3.0438                12.8357

                     76                     77                     78
                      A                      A                      A
 Frequencies --   1401.5335              1405.8873              1409.5090
 Red. masses --      1.3893                 1.3337                 1.4717
 Frc consts  --      1.6079                 1.5531                 1.7227
 IR Inten    --      4.5221                12.7327                 0.4865

                     79                     80                     81
                      A                      A                      A
 Frequencies --   1417.9429              1426.1040              1429.7488
 Red. masses --      1.3852                 1.3231                 1.2749
 Frc consts  --      1.6409                 1.5855                 1.5354
 IR Inten    --      3.7760                 7.3121                 5.7909

                     82                     83                     84
                      A                      A                      A
 Frequencies --   1437.6620              1444.9865              1448.9889
 Red. masses --      1.3418                 1.2875                 1.2345
 Frc consts  --      1.6341                 1.5839                 1.5272
 IR Inten    --     39.3791                10.8441                 5.4155

                     85                     86                     87
                      A                      A                      A
 Frequencies --   1458.2523              1496.5767              1505.7284
 Red. masses --      1.3832                 1.0885                 1.0856
 Frc consts  --      1.7330                 1.4364                 1.4502
 IR Inten    --      5.4968                 1.4759                 1.7656

                     88                     89                     90
                      A                      A                      A
 Frequencies --   1508.0426              1517.4872              1519.5966
 Red. masses --      1.0928                 1.0633                 1.0761
 Frc consts  --      1.4642                 1.4427                 1.4640
 IR Inten    --      5.3324                 2.3618                 2.8669

                     91                     92                     93
                      A                      A                      A
 Frequencies --   1521.2901              1524.8939              1525.4051
 Red. masses --      1.0663                 1.0475                 1.0575
 Frc consts  --      1.4540                 1.4352                 1.4498
 IR Inten    --      4.8698                 0.3692                 5.0359

                     94                     95                     96
                      A                      A                      A
 Frequencies --   1532.3502              1535.7769              1539.7336
 Red. masses --      1.0619                 1.0557                 1.0996
 Frc consts  --      1.4692                 1.4670                 1.5360
 IR Inten    --      0.9511                 3.9977                 8.8413

                     97                     98                     99
                      A                      A                      A
 Frequencies --   1542.8799              1695.5296              3020.6800
 Red. masses --      1.0473                 1.0885                 1.0745
 Frc consts  --      1.4689                 1.8437                 5.7765
 IR Inten    --      9.9393                22.1920                12.3830

                    100                    101                    102
                      A                      A                      A
 Frequencies --   3027.8943              3029.1016              3032.1316
 Red. masses --      1.0770                 1.0620                 1.0724
 Frc consts  --      5.8178                 5.7413                 5.8090
 IR Inten    --      8.3547                26.9440                40.0532

                    103                    104                    105
                      A                      A                      A
 Frequencies --   3033.2201              3035.5226              3041.4556
 Red. masses --      1.0695                 1.0373                 1.0640
 Frc consts  --      5.7972                 5.6317                 5.7991
 IR Inten    --      9.5935                26.1332                31.0351

                    106                    107                    108
                      A                      A                      A
 Frequencies --   3042.2385              3043.1725              3048.6801
 Red. masses --      1.0507                 1.0679                 1.0624
 Frc consts  --      5.7294                 5.8271                 5.8181
 IR Inten    --     24.5439                14.1633                28.8013

                    109                    110                    111
                      A                      A                      A
 Frequencies --   3052.3446              3058.0096              3060.9899
 Red. masses --      1.0584                 1.0743                 1.0736
 Frc consts  --      5.8099                 5.9190                 5.9269
 IR Inten    --     10.6294                81.4088                72.6652

                    112                    113                    114
                      A                      A                      A
 Frequencies --   3065.1680              3069.4048              3076.2693
 Red. masses --      1.0855                 1.0995                 1.0966
 Frc consts  --      6.0087                 6.1029                 6.1141
 IR Inten    --     12.2652                59.7150                41.5527

                    115                    116                    117
                      A                      A                      A
 Frequencies --   3080.2640              3096.3013              3096.8894
 Red. masses --      1.0981                 1.1019                 1.0922
 Frc consts  --      6.1389                 6.2239                 6.1718
 IR Inten    --     38.9373                34.1902                 5.0853

                    118                    119                    120
                      A                      A                      A
 Frequencies --   3099.0295              3105.8916              3109.1983
 Red. masses --      1.1010                 1.1006                 1.1021
 Frc consts  --      6.2302                 6.2552                 6.2774
 IR Inten    --      7.3407                72.9669                40.9339

                    121                    122                    123
                      A                      A                      A
 Frequencies --   3114.6913              3117.5292              3122.1918
 Red. masses --      1.0994                 1.1001                 1.0914
 Frc consts  --      6.2840                 6.2995                 6.2683
 IR Inten    --     71.3204                36.8144                79.7895

                    124                    125                    126
                      A                      A                      A
 Frequencies --   3136.9387              3480.3211              3586.7414
 Red. masses --      1.1026                 1.0518                 1.0885
 Frc consts  --      6.3929                 7.5065                 8.2502
 IR Inten    --     32.5724                 3.6457                 0.4667

 - Thermochemistry -
 -------------------
 Temperature   298.150 Kelvin.  Pressure   1.00000 Atm.
 Atom     1 has atomic number  6 and mass  12.00000

 Molecular mass:   224.22525 amu.
 Principal axes and moments of inertia in atomic units:
                           1         2         3
     Eigenvalues --  1769.858525991.734876302.21498
           X            0.99999   0.00052  -0.00351
           Y           -0.00051   1.00000   0.00152
           Z            0.00351  -0.00152   0.99999
 This molecule is an asymmetric top.
 Rotational symmetry number  1.
 Warning -- assumption of classical behavior for rotation
           may cause significant error
 Rotational temperatures (Kelvin)      0.04894     0.01446     0.01374
 Rotational constants (GHZ):           1.01971     0.30121     0.28637
 Zero-point vibrational energy    1085200.4 (Joules/Mol)
                                  259.36913 (Kcal/Mol)
 Warning -- explicit consideration of  26 degrees of freedom as
           vibrations may cause significant error
 Vibrational temperatures:     47.67    57.69    90.98   145.12   149.54
          (Kelvin)            189.19   231.55   277.12   295.33   312.15
                              343.84   348.00   376.05   410.18   470.65
                              499.89   526.70   547.66   558.53   584.47
                              601.76   610.11   632.75   703.82   742.76
                              808.29   895.71   966.77  1005.34  1079.37
                             1110.05  1180.94  1189.71  1206.68  1230.66
                             1233.80  1283.81  1305.73  1344.58  1350.07
                             1356.96  1363.01  1395.70  1402.80  1415.01
                             1465.26  1480.90  1501.89  1506.82  1561.48
                             1578.82  1606.00  1619.81  1636.28  1662.73
                             1669.33  1715.35  1722.22  1732.80  1746.08
                             1753.73  1789.69  1814.70  1861.21  1878.27
                             1888.07  1916.93  1922.04  1939.39  1959.48
                             1971.50  1980.23  1993.09  2003.96  2006.22
                             2016.49  2022.76  2027.97  2040.10  2051.85
                             2057.09  2068.48  2079.01  2084.77  2098.10
                             2153.24  2166.41  2169.74  2183.33  2186.36
                             2188.80  2193.98  2194.72  2204.71  2209.64
                             2215.33  2219.86  2439.49  4346.08  4356.46
                             4358.20  4362.56  4364.13  4367.44  4375.98
                             4377.10  4378.45  4386.37  4391.64  4399.79
                             4404.08  4410.09  4416.19  4426.07  4431.81
                             4454.89  4455.73  4458.81  4468.69  4473.44
                             4481.35  4485.43  4492.14  4513.36  5007.41
                             5160.52

 Zero-point correction=                           0.413331 (Hartree/Particle)
 Thermal correction to Energy=                    0.430503
 Thermal correction to Enthalpy=                  0.431448
 Thermal correction to Gibbs Free Energy=         0.369087
 Sum of electronic and zero-point Energies=           -659.511893
 Sum of electronic and thermal Energies=              -659.494720
 Sum of electronic and thermal Enthalpies=            -659.493776
 Sum of electronic and thermal Free Energies=         -659.556136

                     E (Thermal)             CV                S
                      KCal/Mol        Cal/Mol-Kelvin    Cal/Mol-Kelvin
 Total                  270.145             68.097            131.248
 Electronic               0.000              0.000              0.000
 Translational            0.889              2.981             42.125
 Rotational               0.889              2.981             32.569
 Vibrational            268.368             62.136             56.555
 Vibration     1          0.594              1.983              5.632
 Vibration     2          0.594              1.981              5.254
 Vibration     3          0.597              1.972              4.354
 Vibration     4          0.604              1.948              3.438
 Vibration     5          0.605              1.946              3.379
 Vibration     6          0.612              1.922              2.924
 Vibration     7          0.622              1.890              2.539
 Vibration     8          0.635              1.850              2.203
 Vibration     9          0.640              1.832              2.085
 Vibration    10          0.646              1.815              1.984
 Vibration    11          0.657              1.781              1.810
 Vibration    12          0.658              1.776              1.789
 Vibration    13          0.669              1.743              1.653
 Vibration    14          0.683              1.701              1.503
 Vibration    15          0.711              1.621              1.274
 Vibration    16          0.725              1.580              1.178
 Vibration    17          0.739              1.542              1.096
 Vibration    18          0.750              1.511              1.037
 Vibration    19          0.756              1.495              1.007
 Vibration    20          0.771              1.457              0.940
 Vibration    21          0.781              1.431              0.898
 Vibration    22          0.786              1.418              0.878
 Vibration    23          0.800              1.383              0.827
 Vibration    24          0.845              1.274              0.686
 Vibration    25          0.871              1.214              0.619
 Vibration    26          0.917              1.114              0.520

 Optimization completed.
    -- Stationary point found.
 Normal termination of Gaussian 16 at Thu Dec 10 21:38:25 2020.

 ----------------------------------------------------------------------
 # B3LYP/6-311++G(d,p) empiricaldispersion=gd3bj scf=xqc pop=npa geom=c
 heck
 ----------------------------------------------------------------------

 --------------------------------------
 CID_62713985_JID_6099_Energie_neutraal
 --------------------------------------
 Structure from the checkpoint file:  "JID_6099.chk"
 Charge =  0 Multiplicity = 1

 SCF Done:  E(RB3LYP) =  -660.109674516     A.U. after   14 cycles
 Normal termination of Gaussian 16 at Thu Dec 10 21:47:58 2020.

 ----------------------------------------------------------------------
 # B3LYP/6-311++G(d,p) empiricaldispersion=gd3bj scf=xqc pop=npa geom=c
 heck
 ----------------------------------------------------------------------

 ------------------------------------
 CID_62713985_JID_6099_Energie_kation
 ------------------------------------
 Structure from the checkpoint file:  "JID_6099.chk"
 Charge =  1 Multiplicity = 2

 SCF Done:  E(UB3LYP) =  -659.850298380     A.U. after   22 cycles
 Normal termination of Gaussian 16 at Thu Dec 10 22:11:13 2020.
 Gaussian 16:  ES64L-G16RevA.03 25-Dec-2016

 ----------------------------------------------------------------------
 # B3LYP/6-311++G(d,p) empiricaldispersion=gd3bj scf=xqc pop=npa geom=c
 heck
 ----------------------------------------------------------------------

 -----------------------------------
 CID_62713985_JID_6099_Energie_anion
 -----------------------------------
 Structure from the checkpoint file:  "JID_6099.chk"
 Charge = -1 Multiplicity = 2

                         Standard orientation:
 ---------------------------------------------------------------------
 Center     Atomic      Atomic             Coordinates (Angstroms)
 Number     Number       Type             X           Y           Z
 ---------------------------------------------------------------------
      1          6           0       -3.947656   -0.326350    1.344402
      2          6           0       -3.597120   -0.012723   -0.115946
      3          6           0       -4.381417    1.212409   -0.604331
      4          6           0       -2.087816    0.219484   -0.320163
      5          6           0       -1.151759   -0.933572    0.111858
      6          6           0       -1.444596   -2.217547   -0.678868
      7          7           0        0.281232   -0.643885    0.072602
      8          6           0        0.933432   -0.051167    1.237490
      9          6           0        0.946587    1.496448    1.197870
     10          6           0        1.441504    2.088036   -0.133204
     11          6           0        0.904976    1.323150   -1.350359
     12          6           0        0.926828   -0.211423   -1.164864
     13          6           0        2.331317   -0.859788   -1.194655
     14          6           0        3.182809   -0.797011    0.111862
     15          6           0        2.308336   -0.739661    1.386706
     16          7           0        4.238983    0.226815    0.178986
     17          1           0       -3.596978    0.475012    2.008051
     18          1           0       -3.496676   -1.263881    1.686241
     19          1           0       -5.032240   -0.415477    1.475155
     20          1           0       -3.904857   -0.869185   -0.731663
     21          1           0       -4.125613    2.099811   -0.010981
     22          1           0       -4.156259    1.437395   -1.653471
     23          1           0       -5.462647    1.053771   -0.517096
     24          1           0       -1.915049    0.432573   -1.383670
     25          1           0       -1.805697    1.127608    0.228139
     26          1           0       -1.356814   -1.150635    1.167033
     27          1           0       -1.322831   -2.060228   -1.757444
     28          1           0       -0.754746   -3.007735   -0.369423
     29          1           0       -2.470118   -2.563628   -0.513673
     30          1           0        0.349097   -0.339260    2.119607
     31          1           0        1.545367    1.886672    2.031507
     32          1           0       -0.081716    1.836534    1.372279
     33          1           0        1.152776    3.144243   -0.196763
     34          1           0        2.533582    2.082335   -0.168169
     35          1           0       -0.129587    1.627475   -1.538119
     36          1           0        1.477506    1.595482   -2.246896
     37          1           0        0.368478   -0.642442   -2.003086
     38          1           0        2.921780   -0.455772   -2.028970
     39          1           0        2.162109   -1.920335   -1.416023
     40          1           0        3.730739   -1.747014    0.146007
     41          1           0        2.896472   -0.282436    2.192049
     42          1           0        2.091015   -1.768164    1.693292
     43          1           0        4.690085    0.327776   -0.729063
     44          1           0        3.858764    1.137280    0.417261
 ---------------------------------------------------------------------

 SCF Done:  E(UB3LYP) =  -660.097281821     A.U. after   29 cycles

 The electronic state is 2-A.
 Alpha  occ. eigenvalues --  -14.19443 -14.18950 -10.10112 -10.10010 -10.09818
 Alpha  occ. eigenvalues --  -10.09649 -10.07756 -10.06697 -10.06482 -10.06416
 Alpha  occ. eigenvalues --  -10.06392 -10.06239 -10.06189 -10.06110 -10.06082
 Alpha  occ. eigenvalues --  -10.05717  -0.83140  -0.78754  -0.72091  -0.69455
 Alpha  occ. eigenvalues --   -0.67659  -0.66615  -0.63471  -0.59012  -0.58233
 Alpha  occ. eigenvalues --   -0.57857  -0.54694  -0.51121  -0.49771  -0.48650
 Alpha  occ. eigenvalues --   -0.45744  -0.41629  -0.39413  -0.38902  -0.38283
 Alpha  occ. eigenvalues --   -0.36562  -0.35588  -0.34898  -0.34271  -0.33664
 Alpha  occ. eigenvalues --   -0.33141  -0.32227  -0.31808  -0.31534  -0.30650
 Alpha  occ. eigenvalues --   -0.29504  -0.29038  -0.27958  -0.27262  -0.26848
 Alpha  occ. eigenvalues --   -0.25530  -0.25126  -0.24585  -0.24289  -0.24007
 Alpha  occ. eigenvalues --   -0.23242  -0.22806  -0.22356  -0.21242  -0.20680
 Alpha  occ. eigenvalues --   -0.20000  -0.14370  -0.09750   0.04100
 Alpha virt. eigenvalues --    0.06068   0.06804   0.06876   0.07814   0.08250
 Alpha virt. eigenvalues --    0.08574   0.09082   0.09294   0.09883   0.10360
 Alpha virt. eigenvalues --    0.10733   0.11233   0.11422   0.12031   0.12340

  Beta  occ. eigenvalues --  -14.19426 -14.18950 -10.10107 -10.10000 -10.09814
  Beta  occ. eigenvalues --  -10.09642 -10.07747 -10.06681 -10.06468 -10.06405
  Beta  occ. eigenvalues --  -10.06376 -10.06213 -10.06164 -10.06097 -10.06068
  Beta  occ. eigenvalues --  -10.05696  -0.83127  -0.78725  -0.72066  -0.69428
  Beta  occ. eigenvalues --   -0.67635  -0.66584  -0.63440  -0.58961  -0.58191
  Beta  occ. eigenvalues --   -0.57820  -0.54661  -0.51089  -0.49730  -0.48616
  Beta  occ. eigenvalues --   -0.45693  -0.41586  -0.39382  -0.38873  -0.38248
  Beta  occ. eigenvalues --   -0.36534  -0.35559  -0.34869  -0.34247  -0.33635
  Beta  occ. eigenvalues --   -0.33107  -0.32195  -0.31784  -0.31509  -0.30623
  Beta  occ. eigenvalues --   -0.29474  -0.29011  -0.27930  -0.27235  -0.26823
  Beta  occ. eigenvalues --   -0.25499  -0.25099  -0.24563  -0.24261  -0.23980
  Beta  occ. eigenvalues --   -0.23214  -0.22770  -0.22326  -0.21213  -0.20653
  Beta  occ. eigenvalues --   -0.19974  -0.14349  -0.09742
  Beta virt. eigenvalues --    0.06002   0.06728   0.07355   0.07407   0.08273
  Beta virt. eigenvalues --    0.08514   0.08877   0.09444   0.09640   0.10233
  Beta virt. eigenvalues --    0.10533   0.11016   0.11419   0.11678   0.12356

 Mulliken charges and spin densities:
               1          2
     1  C    0.356896  -1.070116
     2  C   -1.387439   1.583819
     3  C    0.417672  -1.033171
     4  C    0.409699  -0.515063
     5  C   -0.429144   0.240249
     6  C    0.221597  -0.846621
     7  N    0.359573  -0.018231
     8  C   -0.452229   0.688644
     9  C   -0.054729  -0.525375
    10  C    0.452778  -0.694164
    11  C    0.112105  -0.533508
    12  C   -0.804064   1.002847
    13  C    0.560495  -1.490146
    14  C    0.208537   0.104717
    15  C    0.211402  -0.996023
    16  N   -0.335351  -0.037127
    17  H   -0.120567   0.271745
    18  H   -0.056225   0.178203
    19  H   -0.153769   0.299797
    20  H   -0.014817   0.166022
    21  H   -0.119085   0.260007
    22  H   -0.159040   0.289889
    23  H   -0.222484   0.376575
    24  H    0.090471   0.013479
    25  H    0.437161  -0.373603
    26  H    0.119396   0.070208
    27  H   -0.086623   0.232048
    28  H   -0.028220   0.171782
    29  H   -0.045337   0.198627
    30  H    0.009783   0.149717
    31  H   -0.202251   0.367724
    32  H   -0.073496   0.222337
    33  H   -0.369311   0.570243
    34  H    0.267349  -0.216820
    35  H    0.124990   0.026031
    36  H   -0.360584   0.541903
    37  H   -0.072391   0.256696
    38  H   -0.141612   0.294191
    39  H    0.057834   0.077885
    40  H    0.045025   0.186722
    41  H    0.099654   0.079655
    42  H   -0.047616   0.180550
    43  H    0.045696   0.168060
    44  H    0.128267   0.079595
 Sum of Mulliken charges =  -1.00000   1.00000

 Dipole moment (field-independent basis, Debye):
    X=              1.7523    Y=             -1.1340    Z=              0.3416  Tot=              2.1150
 Quadrupole moment (field-independent basis, Debye-Ang):
   XX=           -191.6361   YY=           -150.0354   ZZ=           -145.6902
   XY=              2.4670   XZ=              0.4221   YZ=              1.1323

 Summary of Natural Population Analysis:

                                       Natural Population
                Natural  -----------------------------------------------
    Atom  No    Charge         Core      Valence    Rydberg      Total
 -----------------------------------------------------------------------
      C    1   -0.28487      0.99965     2.28020    0.00502     3.28487
      C    2   -0.11565      0.99962     2.10610    0.00994     3.11565
      C    3   -0.27990      0.99965     2.27531    0.00494     3.27990
      C    4   -0.19658      0.99959     2.18793    0.00906     3.19658
      C    5    0.00366      0.99957     1.98498    0.01179     2.99634
      C    6   -0.28910      0.99964     2.28319    0.00627     3.28910
      N    7   -0.29711      0.99967     2.78122    0.01621     3.79711
      C    8    0.00088      0.99957     1.98697    0.01257     2.99912
      C    9   -0.19761      0.99960     2.18957    0.00844     3.19761
      C   10   -0.19009      0.99961     2.18255    0.00793     3.19009
      C   11   -0.19700      0.99960     2.18851    0.00889     3.19700
      C   12   -0.00433      0.99957     1.99127    0.01348     3.00433
      C   13   -0.19533      0.99959     2.18555    0.01019     3.19533
      C   14   -0.01356      0.99960     2.00191    0.01205     3.01356
      C   15   -0.19256      0.99958     2.18373    0.00925     3.19256
      N   16   -0.42159      0.99977     2.91200    0.00982     3.92159
      H   17    0.09699      0.00000     0.40186    0.00115     0.40301
      H   18    0.09891      0.00000     0.40004    0.00104     0.40109
      H   19    0.09881      0.00000     0.40021    0.00097     0.40119
      H   20    0.09198      0.00000     0.40621    0.00180     0.40802
      H   21    0.09627      0.00000     0.40254    0.00119     0.40373
      H   22    0.09897      0.00000     0.39992    0.00112     0.40103
      H   23    0.09727      0.00000     0.40170    0.00103     0.40273
      H   24    0.09656      0.00000     0.40182    0.00162     0.40344
      H   25    0.09770      0.00000     0.40047    0.00183     0.40230
      H   26    0.09337      0.00000     0.40433    0.00230     0.40663
      H   27    0.09589      0.00000     0.40305    0.00106     0.40411
      H   28    0.10328      0.00000     0.39550    0.00122     0.39672
      H   29    0.09828      0.00000     0.40078    0.00094     0.40172
      H   30    0.09854      0.00000     0.39989    0.00157     0.40146
      H   31    0.09718      0.00000     0.40179    0.00103     0.40282
      H   32    0.09792      0.00000     0.40052    0.00156     0.40208
      H   33    0.09985      0.00000     0.39895    0.00121     0.40015
      H   34    0.08460      0.00000     0.41345    0.00195     0.41540
      H   35    0.09928      0.00000     0.39901    0.00171     0.40072
      H   36    0.09785      0.00000     0.40099    0.00116     0.40215
      H   37    0.10064      0.00000     0.39763    0.00174     0.39936
      H   38    0.09511      0.00000     0.40365    0.00124     0.40489
      H   39    0.10171      0.00000     0.39685    0.00143     0.39829
      H   40    0.08815      0.00000     0.41016    0.00169     0.41185
      H   41    0.10014      0.00000     0.39867    0.00119     0.39986
      H   42    0.10343      0.00000     0.39536    0.00120     0.39657
      H   43    0.17184      0.00000     0.32637    0.00179     0.32816
      H   44    0.17022      0.00000     0.32759    0.00219     0.32978
 =======================================================================
   * Total *    0.00000     15.99390    46.81032    0.19578    63.00000

 Normal termination of Gaussian 16 at Thu Dec 10 22:37:55 2020.
