 Gaussian 16, Revision A.03,

 -----------------------------------------------------------
 # opt freq B3LYP/6-31G(d) empiricaldispersion=gd3bj scf=xqc
 -----------------------------------------------------------

 ------------------------------
 CID_83617547_JID_3130_neutraal
 ------------------------------
 Symbolic Z-matrix:
 Charge =  0 Multiplicity = 1

 SCF Done:  E(RB3LYP) =  -627.373048370     A.U. after   15 cycles
 SCF Done:  E(RB3LYP) =  -627.377030899     A.U. after   13 cycles
 SCF Done:  E(RB3LYP) =  -627.375223291     A.U. after   13 cycles
 SCF Done:  E(RB3LYP) =  -627.378593498     A.U. after   12 cycles
 SCF Done:  E(RB3LYP) =  -627.379424753     A.U. after   12 cycles
 SCF Done:  E(RB3LYP) =  -627.379929592     A.U. after   12 cycles
 SCF Done:  E(RB3LYP) =  -627.380118434     A.U. after   11 cycles
 SCF Done:  E(RB3LYP) =  -627.380202763     A.U. after   11 cycles
 SCF Done:  E(RB3LYP) =  -627.380249377     A.U. after   10 cycles
 SCF Done:  E(RB3LYP) =  -627.380285941     A.U. after   11 cycles
 SCF Done:  E(RB3LYP) =  -627.380313276     A.U. after    9 cycles
 SCF Done:  E(RB3LYP) =  -627.380314127     A.U. after    8 cycles
 SCF Done:  E(RB3LYP) =  -627.380314688     A.U. after    8 cycles
 SCF Done:  E(RB3LYP) =  -627.380314971     A.U. after    7 cycles
 SCF Done:  E(RB3LYP) =  -627.380315079     A.U. after    7 cycles
 SCF Done:  E(RB3LYP) =  -627.380315138     A.U. after    7 cycles
 Optimization completed.
    -- Stationary point found.
 Normal termination of Gaussian 16 at Wed Dec  9 22:28:29 2020.

 --------------------------------------------------------------------
 #N Geom=AllCheck Guess=TCheck SCRF=Check GenChk RB3LYP/6-31G(d) Freq
 --------------------------------------------------------------------

 Structure from the checkpoint file:  "JID_3130.chk"
 ------------------------------
 CID_83617547_JID_3130_neutraal
 ------------------------------
 Charge =  0 Multiplicity = 1

 SCF Done:  E(RB3LYP) =  -627.380315138     A.U. after    1 cycles

  Exact polarizability: 130.577   3.211 110.032  -6.420  -2.946  75.566
 Approx polarizability: 180.618   4.599 173.955 -14.765  -1.944 117.668

                      1                      2                      3
                      A                      A                      A
 Frequencies --     47.1722                51.7890                80.8855
 Red. masses --      4.4136                 3.7498                 3.8373
 Frc consts  --      0.0058                 0.0059                 0.0148
 IR Inten    --      1.5220                 0.9228                 0.2882

                      4                      5                      6
                      A                      A                      A
 Frequencies --     87.3497               151.8536               157.6206
 Red. masses --      5.1034                 4.5107                 2.5527
 Frc consts  --      0.0229                 0.0613                 0.0374
 IR Inten    --      0.4017                 5.0871                 0.4437

                      7                      8                      9
                      A                      A                      A
 Frequencies --    221.2448               232.6689               245.1619
 Red. masses --      1.8358                 2.0093                 1.3773
 Frc consts  --      0.0529                 0.0641                 0.0488
 IR Inten    --      4.2137                 3.4838                10.3881

                     10                     11                     12
                      A                      A                      A
 Frequencies --    264.5976               292.1511               304.6717
 Red. masses --      1.0414                 3.1809                 2.5677
 Frc consts  --      0.0430                 0.1600                 0.1404
 IR Inten    --     17.9315                 2.1594                11.6423

                     13                     14                     15
                      A                      A                      A
 Frequencies --    346.1690               371.4531               418.0205
 Red. masses --      3.7532                 2.9883                 2.5239
 Frc consts  --      0.2650                 0.2429                 0.2598
 IR Inten    --      7.9949                10.0000                 0.3740

                     16                     17                     18
                      A                      A                      A
 Frequencies --    444.9850               478.8623               550.1261
 Red. masses --      2.8545                 2.7110                 4.5141
 Frc consts  --      0.3330                 0.3663                 0.8049
 IR Inten    --      8.6958                 6.9570                22.2813

                     19                     20                     21
                      A                      A                      A
 Frequencies --    611.7046               638.0101               660.7900
 Red. masses --      3.6112                 2.5847                 4.1679
 Frc consts  --      0.7961                 0.6199                 1.0722
 IR Inten    --     15.7973                43.6300                15.0530

                     22                     23                     24
                      A                      A                      A
 Frequencies --    710.0333               730.6989               779.8688
 Red. masses --      3.5612                 2.4232                 4.2556
 Frc consts  --      1.0578                 0.7623                 1.5249
 IR Inten    --     10.5038                17.0624                47.8918

                     25                     26                     27
                      A                      A                      A
 Frequencies --    846.8424               872.0986               892.0790
 Red. masses --      2.7479                 1.6043                 4.8491
 Frc consts  --      1.1611                 0.7189                 2.2736
 IR Inten    --      8.5780                12.9441                30.4261

                     28                     29                     30
                      A                      A                      A
 Frequencies --    909.1501               913.6013               942.9199
 Red. masses --      1.3806                 1.3639                 9.1056
 Frc consts  --      0.6723                 0.6707                 4.7699
 IR Inten    --     44.0145               111.0517                 0.2404

                     31                     32                     33
                      A                      A                      A
 Frequencies --    971.1203              1042.6767              1049.2595
 Red. masses --      1.7354                 1.4862                 1.5542
 Frc consts  --      0.9643                 0.9520                 1.0081
 IR Inten    --      0.4568                 6.2219                 2.5160

                     34                     35                     36
                      A                      A                      A
 Frequencies --   1080.1095              1090.7386              1160.2778
 Red. masses --      3.0226                 1.5003                 2.7506
 Frc consts  --      2.0776                 1.0516                 2.1817
 IR Inten    --     53.6592                 3.7957                16.2878

                     37                     38                     39
                      A                      A                      A
 Frequencies --   1172.7376              1179.8790              1194.1038
 Red. masses --      2.1570                 3.2506                 1.9150
 Frc consts  --      1.7478                 2.6661                 1.6088
 IR Inten    --      6.3258                80.2185                 2.4269

                     40                     41                     42
                      A                      A                      A
 Frequencies --   1221.5728              1277.6167              1301.5844
 Red. masses --      1.5672                 2.0922                 1.5529
 Frc consts  --      1.3779                 2.0121                 1.5500
 IR Inten    --     31.1523                48.7077                 1.6202

                     43                     44                     45
                      A                      A                      A
 Frequencies --   1369.8154              1398.5038              1414.3641
 Red. masses --      1.4727                 1.5525                 1.6979
 Frc consts  --      1.6281                 1.7890                 2.0012
 IR Inten    --     55.4427                52.4613                29.1191

                     46                     47                     48
                      A                      A                      A
 Frequencies --   1419.7802              1430.1330              1440.8416
 Red. masses --      3.0636                 1.4560                 1.3690
 Frc consts  --      3.6385                 1.7546                 1.6745
 IR Inten    --     27.3131                25.6953                 3.2719

                     49                     50                     51
                      A                      A                      A
 Frequencies --   1454.2789              1495.6508              1500.7997
 Red. masses --      1.5071                 1.7391                 2.0370
 Frc consts  --      1.8780                 2.2922                 2.7032
 IR Inten    --     17.5364                42.9102                 0.5839

                     52                     53                     54
                      A                      A                      A
 Frequencies --   1513.6974              1521.7361              1532.1529
 Red. masses --      1.1479                 1.0833                 1.0741
 Frc consts  --      1.5497                 1.4781                 1.4856
 IR Inten    --     11.3692                 0.6657                 5.1615

                     55                     56                     57
                      A                      A                      A
 Frequencies --   1539.9554              1541.6153              1638.4952
 Red. masses --      1.3375                 1.2339                 6.0131
 Frc consts  --      1.8688                 1.7278                 9.5113
 IR Inten    --     32.3737                35.9094               100.0607

                     58                     59                     60
                      A                      A                      A
 Frequencies --   1697.4404              1764.9540              3000.0306
 Red. masses --      1.0902                 7.9005                 1.0748
 Frc consts  --      1.8507                14.5001                 5.6992
 IR Inten    --     29.5523               369.9170                44.2738

                     61                     62                     63
                      A                      A                      A
 Frequencies --   3034.8079              3062.6737              3077.7313
 Red. masses --      1.0367                 1.0389                 1.0847
 Frc consts  --      5.6256                 5.7413                 6.0537
 IR Inten    --     22.6884                 4.4112                12.7705

                     64                     65                     66
                      A                      A                      A
 Frequencies --   3104.1397              3111.8309              3126.9793
 Red. masses --      1.1000                 1.1012                 1.1009
 Frc consts  --      6.2452                 6.2827                 6.3421
 IR Inten    --     51.1934                33.1295                 6.1512

                     67                     68                     69
                      A                      A                      A
 Frequencies --   3155.1210              3172.5859              3296.6880
 Red. masses --      1.1022                 1.0876                 1.0994
 Frc consts  --      6.4647                 6.4500                 7.0398
 IR Inten    --      8.4864                 8.1261                 0.6167

                     70                     71                     72
                      A                      A                      A
 Frequencies --   3451.3637              3538.7595              3577.7800
 Red. masses --      1.0504                 1.0910                 1.0748
 Frc consts  --      7.3722                 8.0497                 8.1061
 IR Inten    --      1.2658                 0.0435                18.7934

 - Thermochemistry -
 -------------------
 Temperature   298.150 Kelvin.  Pressure   1.00000 Atm.
 Atom     1 has atomic number  6 and mass  12.00000

 Molecular mass:   183.10078 amu.
 Principal axes and moments of inertia in atomic units:
                           1         2         3
     Eigenvalues --  1409.388433593.699684583.25809
           X            0.99998   0.00685   0.00112
           Y           -0.00682   0.99972  -0.02262
           Z           -0.00127   0.02261   0.99974
 This molecule is an asymmetric top.
 Rotational symmetry number  1.
 Warning -- assumption of classical behavior for rotation
           may cause significant error
 Rotational temperatures (Kelvin)      0.06145     0.02410     0.01890
 Rotational constants (GHZ):           1.28051     0.50220     0.39377
 Zero-point vibrational energy     570504.8 (Joules/Mol)
                                  136.35393 (Kcal/Mol)
 Warning -- explicit consideration of  19 degrees of freedom as
           vibrations may cause significant error
 Vibrational temperatures:     67.87    74.51   116.38   125.68   218.48
          (Kelvin)            226.78   318.32   334.76   352.73   380.70
                              420.34   438.35   498.06   534.44   601.44
                              640.23   688.98   791.51   880.11   917.95
                              950.73  1021.58  1051.31  1122.06  1218.42
                             1254.76  1283.50  1308.06  1314.47  1356.65
                             1397.23  1500.18  1509.65  1554.04  1569.33
                             1669.38  1687.31  1697.58  1718.05  1757.57
                             1838.21  1872.69  1970.86  2012.14  2034.95
                             2042.75  2057.64  2073.05  2092.38  2151.91
                             2159.32  2177.87  2189.44  2204.43  2215.65
                             2218.04  2357.43  2442.24  2539.38  4316.37
                             4366.41  4406.50  4428.17  4466.16  4477.23
                             4499.03  4539.52  4564.64  4743.20  4965.74
                             5091.49  5147.63

 Zero-point correction=                           0.217294 (Hartree/Particle)
 Thermal correction to Energy=                    0.230540
 Thermal correction to Enthalpy=                  0.231484
 Thermal correction to Gibbs Free Energy=         0.177074
 Sum of electronic and zero-point Energies=           -627.163021
 Sum of electronic and thermal Energies=              -627.149775
 Sum of electronic and thermal Enthalpies=            -627.148831
 Sum of electronic and thermal Free Energies=         -627.203241

                     E (Thermal)             CV                S
                      KCal/Mol        Cal/Mol-Kelvin    Cal/Mol-Kelvin
 Total                  144.666             48.954            114.515
 Electronic               0.000              0.000              0.000
 Translational            0.889              2.981             41.521
 Rotational               0.889              2.981             31.518
 Vibrational            142.888             42.992             41.476
 Vibration     1          0.595              1.979              4.933
 Vibration     2          0.596              1.977              4.748
 Vibration     3          0.600              1.962              3.869
 Vibration     4          0.601              1.958              3.719
 Vibration     5          0.619              1.901              2.649
 Vibration     6          0.621              1.894              2.578
 Vibration     7          0.648              1.809              1.949
 Vibration     8          0.653              1.791              1.858
 Vibration     9          0.660              1.771              1.765
 Vibration    10          0.671              1.738              1.631
 Vibration    11          0.688              1.688              1.461
 Vibration    12          0.696              1.665              1.391
 Vibration    13          0.724              1.583              1.184
 Vibration    14          0.743              1.531              1.074
 Vibration    15          0.781              1.431              0.899
 Vibration    16          0.804              1.372              0.811
 Vibration    17          0.835              1.297              0.713
 Vibration    18          0.905              1.139              0.544
 Vibration    19          0.971              1.007              0.430

 Optimization completed.
    -- Stationary point found.
 Normal termination of Gaussian 16 at Wed Dec  9 22:34:46 2020.

 ----------------------------------------------------------------------
 # B3LYP/6-311++G(d,p) empiricaldispersion=gd3bj scf=xqc pop=npa geom=c
 heck
 ----------------------------------------------------------------------

 --------------------------------------
 CID_83617547_JID_3130_Energie_neutraal
 --------------------------------------
 Structure from the checkpoint file:  "JID_3130.chk"
 Charge =  0 Multiplicity = 1

 SCF Done:  E(RB3LYP) =  -627.567747036     A.U. after   15 cycles
 Normal termination of Gaussian 16 at Wed Dec  9 22:37:36 2020.

 ----------------------------------------------------------------------
 # B3LYP/6-311++G(d,p) empiricaldispersion=gd3bj scf=xqc pop=npa geom=c
 heck
 ----------------------------------------------------------------------

 ------------------------------------
 CID_83617547_JID_3130_Energie_kation
 ------------------------------------
 Structure from the checkpoint file:  "JID_3130.chk"
 Charge =  1 Multiplicity = 2

 SCF Done:  E(UB3LYP) =  -627.240901430     A.U. after   29 cycles
 Normal termination of Gaussian 16 at Wed Dec  9 22:45:46 2020.
 Gaussian 16:  ES64L-G16RevA.03 25-Dec-2016

 ----------------------------------------------------------------------
 # B3LYP/6-311++G(d,p) empiricaldispersion=gd3bj scf=xqc pop=npa geom=c
 heck
 ----------------------------------------------------------------------

 -----------------------------------
 CID_83617547_JID_3130_Energie_anion
 -----------------------------------
 Structure from the checkpoint file:  "JID_3130.chk"
 Charge = -1 Multiplicity = 2

                         Standard orientation:
 ---------------------------------------------------------------------
 Center     Atomic      Atomic             Coordinates (Angstroms)
 Number     Number       Type             X           Y           Z
 ---------------------------------------------------------------------
      1          6           0        0.438208   -1.794009    1.086761
      2          6           0        1.486003   -1.004121    0.364076
      3          7           0        2.616246   -1.595837    0.044904
      4          8           0        3.408531   -0.612245   -0.572186
      5          6           0        2.736855    0.541010   -0.573751
      6          6           0        1.499872    0.384817   -0.018631
      7          6           0        0.577567    1.533460    0.191748
      8          8           0        1.023851    2.643886    0.464066
      9          7           0       -0.777675    1.321288    0.090437
     10          6           0       -1.437553    0.293299   -0.701455
     11          6           0       -2.590301   -0.388346    0.048318
     12          6           0       -3.765654    0.570020    0.281366
     13          7           0       -2.933978   -1.611274   -0.689492
     14          1           0        0.894872   -2.684492    1.524867
     15          1           0       -0.009427   -1.194090    1.884819
     16          1           0       -0.364714   -2.117828    0.415377
     17          1           0        3.238081    1.401963   -0.991478
     18          1           0       -1.284504    2.190412    0.216489
     19          1           0       -1.820525    0.730242   -1.637828
     20          1           0       -0.701602   -0.456994   -0.986309
     21          1           0       -2.201263   -0.704582    1.022291
     22          1           0       -4.172081    0.925758   -0.674712
     23          1           0       -4.573922    0.069125    0.826192
     24          1           0       -3.467356    1.444970    0.872110
     25          1           0       -3.674584   -2.110206   -0.198526
     26          1           0       -3.324165   -1.363445   -1.599863
 ---------------------------------------------------------------------

 SCF Done:  E(UB3LYP) =  -627.563140298     A.U. after   30 cycles

 The electronic state is 2-A.
 Alpha  occ. eigenvalues --  -19.10024 -18.97900 -14.25180 -14.23068 -14.19024
 Alpha  occ. eigenvalues --  -10.16854 -10.12515 -10.11892 -10.10294 -10.09910
 Alpha  occ. eigenvalues --  -10.07938 -10.07846 -10.05553  -1.03893  -0.93227
 Alpha  occ. eigenvalues --   -0.82230  -0.78398  -0.77721  -0.69661  -0.64728
 Alpha  occ. eigenvalues --   -0.62884  -0.59199  -0.54897  -0.49176  -0.48102
 Alpha  occ. eigenvalues --   -0.47402  -0.42087  -0.41220  -0.38324  -0.37158
 Alpha  occ. eigenvalues --   -0.36592  -0.34580  -0.33762  -0.32180  -0.31772
 Alpha  occ. eigenvalues --   -0.31529  -0.30760  -0.29971  -0.29091  -0.28189
 Alpha  occ. eigenvalues --   -0.26911  -0.25173  -0.24260  -0.21403  -0.19061
 Alpha  occ. eigenvalues --   -0.17158  -0.15943  -0.14988  -0.14182   0.04282
 Alpha virt. eigenvalues --    0.06097   0.07824   0.08373   0.08752   0.09449
 Alpha virt. eigenvalues --    0.09672   0.10898   0.11158   0.11637   0.12059
 Alpha virt. eigenvalues --    0.13064   0.13658   0.13953   0.15166   0.15360

  Beta  occ. eigenvalues --  -19.09867 -18.97814 -14.25148 -14.23059 -14.18969
  Beta  occ. eigenvalues --  -10.16753 -10.12255 -10.11898 -10.10266 -10.09900
  Beta  occ. eigenvalues --  -10.07957 -10.07840 -10.05493  -1.03648  -0.93062
  Beta  occ. eigenvalues --   -0.82161  -0.78302  -0.77629  -0.69425  -0.64632
  Beta  occ. eigenvalues --   -0.62851  -0.59100  -0.54645  -0.49055  -0.47933
  Beta  occ. eigenvalues --   -0.47265  -0.42006  -0.41131  -0.38131  -0.36733
  Beta  occ. eigenvalues --   -0.36445  -0.34481  -0.33648  -0.32038  -0.31650
  Beta  occ. eigenvalues --   -0.31407  -0.30660  -0.29765  -0.29004  -0.28100
  Beta  occ. eigenvalues --   -0.26768  -0.25094  -0.24157  -0.21324  -0.18722
  Beta  occ. eigenvalues --   -0.16740  -0.15673  -0.14722  -0.14021
  Beta virt. eigenvalues --    0.07175   0.08008   0.08428   0.08877   0.09003
  Beta virt. eigenvalues --    0.09871   0.10132   0.11129   0.11626   0.12056
  Beta virt. eigenvalues --    0.12357   0.13295   0.13888   0.14054   0.15295

 Mulliken charges and spin densities:
               1          2
     1  C   -0.312969  -0.354337
     2  C    0.425938   0.205184
     3  N   -0.347495   0.020311
     4  O    0.149576   0.022911
     5  C   -0.154526   0.197106
     6  C    0.179681   0.026990
     7  C   -0.642375   0.029741
     8  O   -0.368491   0.032420
     9  N   -0.186947   0.117345
    10  C    0.509607  -1.052030
    11  C   -1.140151   0.949641
    12  C    1.828286  -2.363686
    13  N   -0.350377   0.096543
    14  H    0.115196   0.065403
    15  H    0.151652   0.022611
    16  H    0.128670   0.086342
    17  H    0.194818  -0.011762
    18  H    0.240016   0.063326
    19  H   -0.158646   0.347000
    20  H    0.118442   0.056256
    21  H    0.075841   0.105735
    22  H   -0.364284   0.526693
    23  H   -0.781698   0.932658
    24  H   -0.061996   0.175697
    25  H   -0.198485   0.429476
    26  H   -0.049282   0.272424
 Sum of Mulliken charges =  -1.00000   1.00000

 Dipole moment (field-independent basis, Debye):
    X=              5.7478    Y=              0.7322    Z=              0.2216  Tot=              5.7985
 Quadrupole moment (field-independent basis, Debye-Ang):
   XX=           -161.8643   YY=           -117.1899   ZZ=            -99.2393
   XY=             -4.0200   XZ=             -3.9082   YZ=             -5.3683

 Summary of Natural Population Analysis:

                                       Natural Population
                Natural  -----------------------------------------------
    Atom  No    Charge         Core      Valence    Rydberg      Total
 -----------------------------------------------------------------------
      C    1   -0.30664      0.99962     2.30174    0.00528     3.30664
      C    2    0.08846      0.99959     1.89735    0.01460     2.91154
      N    3   -0.09192      0.99966     2.57927    0.01298     3.59192
      O    4   -0.15063      0.99987     3.14197    0.00880     4.15063
      C    5    0.15861      0.99951     1.82822    0.01365     2.84139
      C    6   -0.14323      0.99941     2.13418    0.00963     3.14323
      C    7    0.34789      0.99963     1.63063    0.02185     2.65211
      O    8   -0.31818      0.99988     3.31287    0.00542     4.31818
      N    9   -0.31697      0.99967     2.80858    0.00872     3.81697
      C   10   -0.09150      0.99958     2.07989    0.01203     3.09150
      C   11   -0.02303      0.99961     2.01091    0.01251     3.02303
      C   12   -0.29475      0.99965     2.28880    0.00631     3.29475
      N   13   -0.42395      0.99977     2.91356    0.01062     3.92395
      H   14    0.10900      0.00000     0.38958    0.00142     0.39100
      H   15    0.10718      0.00000     0.39154    0.00129     0.39282
      H   16    0.11795      0.00000     0.38037    0.00168     0.38205
      H   17    0.09749      0.00000     0.40156    0.00095     0.40251
      H   18    0.19151      0.00000     0.30596    0.00253     0.30849
      H   19    0.09094      0.00000     0.40788    0.00118     0.40906
      H   20    0.10763      0.00000     0.39047    0.00190     0.39237
      H   21    0.08980      0.00000     0.40762    0.00259     0.41020
      H   22    0.09878      0.00000     0.39873    0.00250     0.40122
      H   23    0.10444      0.00000     0.39280    0.00276     0.39556
      H   24    0.09707      0.00000     0.40151    0.00142     0.40293
      H   25    0.17941      0.00000     0.31747    0.00312     0.32059
      H   26    0.17465      0.00000     0.32241    0.00294     0.32535
 =======================================================================
   * Total *    0.00000     12.99544    35.83588    0.16867    49.00000

 Normal termination of Gaussian 16 at Wed Dec  9 22:54:11 2020.
