 Gaussian 16, Revision A.03,

 -----------------------------------------------------------
 # opt freq B3LYP/6-31G(d) empiricaldispersion=gd3bj scf=xqc
 -----------------------------------------------------------

 ------------------------------
 CID_80412478_JID_9251_neutraal
 ------------------------------
 Symbolic Z-matrix:
 Charge =  0 Multiplicity = 1

 SCF Done:  E(RB3LYP) =  -824.985528584     A.U. after   15 cycles
 SCF Done:  E(RB3LYP) =  -824.994576480     A.U. after   13 cycles
 SCF Done:  E(RB3LYP) =  -824.995438698     A.U. after   14 cycles
 SCF Done:  E(RB3LYP) =  -824.998063252     A.U. after   12 cycles
 SCF Done:  E(RB3LYP) =  -824.998723318     A.U. after   13 cycles
 SCF Done:  E(RB3LYP) =  -824.997462772     A.U. after   13 cycles
 SCF Done:  E(RB3LYP) =  -824.997869604     A.U. after   13 cycles
 SCF Done:  E(RB3LYP) =  -824.999640742     A.U. after   11 cycles
 SCF Done:  E(RB3LYP) =  -824.999948515     A.U. after   11 cycles
 SCF Done:  E(RB3LYP) =  -825.000152698     A.U. after   11 cycles
 SCF Done:  E(RB3LYP) =  -825.000201299     A.U. after   10 cycles
 SCF Done:  E(RB3LYP) =  -825.000206274     A.U. after    9 cycles
 SCF Done:  E(RB3LYP) =  -825.000207644     A.U. after    9 cycles
 SCF Done:  E(RB3LYP) =  -825.000208458     A.U. after    8 cycles
 SCF Done:  E(RB3LYP) =  -825.000208594     A.U. after    7 cycles
 Optimization completed.
    -- Stationary point found.
 Normal termination of Gaussian 16 at Sun Dec 13 12:52:33 2020.

 --------------------------------------------------------------------
 #N Geom=AllCheck Guess=TCheck SCRF=Check GenChk RB3LYP/6-31G(d) Freq
 --------------------------------------------------------------------

 Structure from the checkpoint file:  "JID_9251.chk"
 ------------------------------
 CID_80412478_JID_9251_neutraal
 ------------------------------
 Charge =  0 Multiplicity = 1

 SCF Done:  E(RB3LYP) =  -825.000208594     A.U. after    1 cycles

  Exact polarizability: 180.429  -2.177 183.839  18.489  -2.416 146.231
 Approx polarizability: 250.438   6.349 289.714  43.133   1.932 233.889

                      1                      2                      3
                      A                      A                      A
 Frequencies --     33.7849                53.2541                63.8396
 Red. masses --      4.4846                 3.5547                 3.6588
 Frc consts  --      0.0030                 0.0059                 0.0088
 IR Inten    --      0.6533                 2.2969                 0.7380

                      4                      5                      6
                      A                      A                      A
 Frequencies --     78.4504                80.0649                93.9619
 Red. masses --      2.8274                 3.4095                 3.4321
 Frc consts  --      0.0103                 0.0129                 0.0179
 IR Inten    --      2.2532                 0.0897                 0.2470

                      7                      8                      9
                      A                      A                      A
 Frequencies --    130.0271               155.3231               182.9643
 Red. masses --      3.7837                 3.2661                 3.2090
 Frc consts  --      0.0377                 0.0464                 0.0633
 IR Inten    --      1.7309                 3.5093                 2.7677

                     10                     11                     12
                      A                      A                      A
 Frequencies --    195.9360               208.3069               234.9362
 Red. masses --      2.9923                 3.2167                 1.1855
 Frc consts  --      0.0677                 0.0822                 0.0386
 IR Inten    --      3.6860                 0.9084                 2.7245

                     13                     14                     15
                      A                      A                      A
 Frequencies --    245.3520               250.4175               259.8692
 Red. masses --      2.1358                 2.0667                 2.3491
 Frc consts  --      0.0758                 0.0764                 0.0935
 IR Inten    --      6.3277                 8.9425                 4.2409

                     16                     17                     18
                      A                      A                      A
 Frequencies --    274.0797               284.5843               295.3773
 Red. masses --      2.8874                 2.1231                 1.5094
 Frc consts  --      0.1278                 0.1013                 0.0776
 IR Inten    --      2.6450                11.1763                42.3316

                     19                     20                     21
                      A                      A                      A
 Frequencies --    343.0240               358.7366               386.8174
 Red. masses --      3.9667                 1.2111                 3.2468
 Frc consts  --      0.2750                 0.0918                 0.2862
 IR Inten    --      2.2895                 0.7954                 2.1221

                     22                     23                     24
                      A                      A                      A
 Frequencies --    415.4840               461.7571               479.6168
 Red. masses --      4.1872                 4.1207                 3.8476
 Frc consts  --      0.4259                 0.5177                 0.5215
 IR Inten    --      1.5319                 0.9741                 7.2577

                     25                     26                     27
                      A                      A                      A
 Frequencies --    512.1342               547.7701               568.0909
 Red. masses --      4.0469                 4.9201                 4.2450
 Frc consts  --      0.6254                 0.8698                 0.8072
 IR Inten    --      8.4033                 1.2800                16.3909

                     28                     29                     30
                      A                      A                      A
 Frequencies --    578.6469               590.1959               602.4970
 Red. masses --      1.9879                 3.3417                 4.7630
 Frc consts  --      0.3922                 0.6858                 1.0187
 IR Inten    --      0.2949                16.2334                 4.8043

                     31                     32                     33
                      A                      A                      A
 Frequencies --    639.5601               721.5098               758.4043
 Red. masses --      3.5087                 4.1523                 2.6905
 Frc consts  --      0.8456                 1.2736                 0.9118
 IR Inten    --      2.6254                13.1783                 2.4898

                     34                     35                     36
                      A                      A                      A
 Frequencies --    762.4466               777.8470               808.4647
 Red. masses --      2.8516                 1.8676                 3.0748
 Frc consts  --      0.9767                 0.6658                 1.1841
 IR Inten    --     27.6797                12.0802                18.6668

                     37                     38                     39
                      A                      A                      A
 Frequencies --    810.1088               876.9238               886.4007
 Red. masses --      3.1035                 1.6994                 1.2680
 Frc consts  --      1.2000                 0.7700                 0.5870
 IR Inten    --      5.6294                 4.5438                70.5639

                     40                     41                     42
                      A                      A                      A
 Frequencies --    890.5939               901.8497               908.0876
 Red. masses --      1.9417                 1.7992                 1.7761
 Frc consts  --      0.9074                 0.8622                 0.8629
 IR Inten    --      2.4278                 3.0458                38.1790

                     43                     44                     45
                      A                      A                      A
 Frequencies --    933.5847               940.7573               960.1718
 Red. masses --      2.8315                 1.8018                 1.7603
 Frc consts  --      1.4540                 0.9395                 0.9562
 IR Inten    --      4.5258                 1.8570                 1.7199

                     46                     47                     48
                      A                      A                      A
 Frequencies --    973.0978               993.6477              1005.6469
 Red. masses --      1.3596                 1.2499                 1.6685
 Frc consts  --      0.7586                 0.7271                 0.9942
 IR Inten    --      3.8024                 0.4000                 1.9140

                     49                     50                     51
                      A                      A                      A
 Frequencies --   1017.0617              1056.4722              1064.1119
 Red. masses --      1.9335                 1.8290                 2.6618
 Frc consts  --      1.1784                 1.2028                 1.7758
 IR Inten    --     19.4797                 6.5234                13.7182

                     52                     53                     54
                      A                      A                      A
 Frequencies --   1077.7164              1083.1964              1091.9584
 Red. masses --      2.1329                 1.7941                 3.3276
 Frc consts  --      1.4596                 1.2403                 2.3377
 IR Inten    --      1.5269                24.2509                 2.4754

                     55                     56                     57
                      A                      A                      A
 Frequencies --   1122.7669              1129.1488              1157.7789
 Red. masses --      1.7191                 2.3766                 1.6749
 Frc consts  --      1.2768                 1.7853                 1.3228
 IR Inten    --     27.1615                13.0976                 5.7508

                     58                     59                     60
                      A                      A                      A
 Frequencies --   1159.3851              1180.1741              1187.6324
 Red. masses --      1.6282                 1.7563                 1.2563
 Frc consts  --      1.2894                 1.4413                 1.0440
 IR Inten    --      8.5063                 5.8046                 6.7639

                     61                     62                     63
                      A                      A                      A
 Frequencies --   1193.5756              1195.7368              1199.9761
 Red. masses --      2.5134                 1.1149                 1.8156
 Frc consts  --      2.1096                 0.9392                 1.5403
 IR Inten    --     25.1913                 0.9565                 6.0561

                     64                     65                     66
                      A                      A                      A
 Frequencies --   1213.0930              1221.1122              1230.7908
 Red. masses --      1.4994                 2.2947                 1.8088
 Frc consts  --      1.3000                 2.0160                 1.6144
 IR Inten    --      0.1521                15.9588                 0.2480

                     67                     68                     69
                      A                      A                      A
 Frequencies --   1271.9259              1283.7952              1294.4869
 Red. masses --      1.2868                 2.0932                 1.3007
 Frc consts  --      1.2265                 2.0326                 1.2842
 IR Inten    --     12.7925                16.2918                 7.6122

                     70                     71                     72
                      A                      A                      A
 Frequencies --   1300.8578              1320.2417              1338.9761
 Red. masses --      1.6758                 2.2294                 1.3384
 Frc consts  --      1.6708                 2.2896                 1.4138
 IR Inten    --     21.0664                 1.7812                 0.4304

                     73                     74                     75
                      A                      A                      A
 Frequencies --   1352.7475              1363.1077              1372.2434
 Red. masses --      1.4327                 2.0209                 1.2766
 Frc consts  --      1.5447                 2.2123                 1.4163
 IR Inten    --      6.6647                 0.8306                 0.9567

                     76                     77                     78
                      A                      A                      A
 Frequencies --   1386.9904              1393.7518              1408.2355
 Red. masses --      1.4958                 1.3920                 1.3919
 Frc consts  --      1.6954                 1.5931                 1.6264
 IR Inten    --      1.1151                 8.0483                 5.8248

                     79                     80                     81
                      A                      A                      A
 Frequencies --   1431.8239              1436.6708              1448.4341
 Red. masses --      1.6568                 1.4483                 2.7555
 Frc consts  --      2.0012                 1.7613                 3.4061
 IR Inten    --     53.7535                16.4203               149.6919

                     82                     83                     84
                      A                      A                      A
 Frequencies --   1481.8696              1494.4606              1511.7005
 Red. masses --      1.1737                 2.1903                 1.0671
 Frc consts  --      1.5186                 2.8822                 1.4368
 IR Inten    --      3.2338                 9.8318                 4.4400

                     85                     86                     87
                      A                      A                      A
 Frequencies --   1518.1189              1522.4843              1526.1566
 Red. masses --      1.0909                 1.0553                 1.0982
 Frc consts  --      1.4814                 1.4413                 1.5071
 IR Inten    --      2.5739                10.2958                 8.3562

                     88                     89                     90
                      A                      A                      A
 Frequencies --   1535.6454              1539.5082              1547.4839
 Red. masses --      1.4512                 1.3571                 1.1787
 Frc consts  --      2.0164                 1.8950                 1.6631
 IR Inten    --     14.3303                20.4410                 6.8004

                     91                     92                     93
                      A                      A                      A
 Frequencies --   1547.9585              1551.2436              1566.0373
 Red. masses --      1.0594                 1.0874                 1.0834
 Frc consts  --      1.4957                 1.5417                 1.5655
 IR Inten    --      7.2787                 1.4656                 9.9087

                     94                     95                     96
                      A                      A                      A
 Frequencies --   1635.0371              1656.3188              1691.9889
 Red. masses --      6.2578                 5.2230                 1.1032
 Frc consts  --      9.8566                 8.4423                 1.8608
 IR Inten    --      5.9150                 2.4118                31.0940

                     97                     98                     99
                      A                      A                      A
 Frequencies --   1710.4347              3023.9551              3032.0595
 Red. masses --      9.4001                 1.0587                 1.0374
 Frc consts  --     16.2031                 5.7041                 5.6193
 IR Inten    --    245.7114                32.7893                43.6029

                    100                    101                    102
                      A                      A                      A
 Frequencies --   3041.0302              3054.8043              3061.2551
 Red. masses --      1.0731                 1.1027                 1.0678
 Frc consts  --      5.8470                 6.0626                 5.8955
 IR Inten    --     46.6577                19.2377                28.9875

                    103                    104                    105
                      A                      A                      A
 Frequencies --   3065.6741              3072.9452              3079.8617
 Red. masses --      1.0417                 1.0610                 1.0591
 Frc consts  --      5.7681                 5.9031                 5.9191
 IR Inten    --     16.0687                20.9007                23.1122

                    106                    107                    108
                      A                      A                      A
 Frequencies --   3090.6752              3094.8952              3117.0287
 Red. masses --      1.0853                 1.0975                 1.0973
 Frc consts  --      6.1083                 6.1939                 6.2814
 IR Inten    --      9.1178                36.7496                19.4019

                    109                    110                    111
                      A                      A                      A
 Frequencies --   3123.8347              3128.0257              3131.2011
 Red. masses --      1.1031                 1.1016                 1.1037
 Frc consts  --      6.3422                 6.3503                 6.3756
 IR Inten    --     39.4924                10.7242                23.4037

                    112                    113                    114
                      A                      A                      A
 Frequencies --   3132.3206              3136.0431              3176.9993
 Red. masses --      1.1011                 1.1012                 1.0965
 Frc consts  --      6.3650                 6.3807                 6.5209
 IR Inten    --     19.9763                47.6172                20.7153

                    115                    116                    117
                      A                      A                      A
 Frequencies --   3180.1167              3196.7929              3212.8578
 Red. masses --      1.0859                 1.0915                 1.0929
 Frc consts  --      6.4702                 6.5723                 6.6466
 IR Inten    --      4.2244                22.5437                 9.3627

                    118                    119                    120
                      A                      A                      A
 Frequencies --   3218.9057              3462.2166              3550.0405
 Red. masses --      1.0935                 1.0499                 1.0925
 Frc consts  --      6.6754                 7.4146                 8.1124
 IR Inten    --      7.6322                 2.8589                 0.7318

 - Thermochemistry -
 -------------------
 Temperature   298.150 Kelvin.  Pressure   1.00000 Atm.
 Atom     1 has atomic number  6 and mass  12.00000

 Molecular mass:   261.18411 amu.
 Principal axes and moments of inertia in atomic units:
                           1         2         3
     Eigenvalues --  3395.720995433.290256572.37496
           X            0.99905  -0.04327   0.00451
           Y            0.04327   0.99906   0.00025
           Z           -0.00452  -0.00005   0.99999
 This molecule is an asymmetric top.
 Rotational symmetry number  1.
 Warning -- assumption of classical behavior for rotation
           may cause significant error
 Rotational temperatures (Kelvin)      0.02551     0.01594     0.01318
 Rotational constants (GHZ):           0.53148     0.33216     0.27459
 Zero-point vibrational energy     974480.2 (Joules/Mol)
                                  232.90636 (Kcal/Mol)
 Warning -- explicit consideration of  30 degrees of freedom as
           vibrations may cause significant error
 Vibrational temperatures:     48.61    76.62    91.85   112.87   115.20
          (Kelvin)            135.19   187.08   223.48   263.24   281.91
                              299.71   338.02   353.01   360.29   373.89
                              394.34   409.45   424.98   493.53   516.14
                              556.54   597.79   664.37   690.06   736.85
                              788.12   817.36   832.54   849.16   866.86
                              920.18  1038.09  1091.17  1096.99  1119.15
                             1163.20  1165.57  1261.70  1275.33  1281.37
                             1297.56  1306.54  1343.22  1353.54  1381.47
                             1400.07  1429.64  1446.90  1463.32  1520.03
                             1531.02  1550.59  1558.48  1571.08  1615.41
                             1624.59  1665.79  1668.10  1698.01  1708.74
                             1717.29  1720.40  1726.50  1745.37  1756.91
                             1770.83  1830.02  1847.09  1862.48  1871.64
                             1899.53  1926.49  1946.30  1961.21  1974.35
                             1995.57  2005.30  2026.14  2060.08  2067.05
                             2083.97  2132.08  2150.20  2175.00  2184.23
                             2190.52  2195.80  2209.45  2215.01  2226.48
                             2227.17  2231.89  2253.18  2352.45  2383.07
                             2434.39  2460.93  4350.80  4362.46  4375.36
                             4395.18  4404.46  4410.82  4421.28  4431.23
                             4446.79  4452.86  4484.71  4494.50  4500.53
                             4505.10  4506.71  4512.07  4570.99  4575.48
                             4599.47  4622.59  4631.29  4981.36  5107.72

 Zero-point correction=                           0.371160 (Hartree/Particle)
 Thermal correction to Energy=                    0.389777
 Thermal correction to Enthalpy=                  0.390721
 Thermal correction to Gibbs Free Energy=         0.324802
 Sum of electronic and zero-point Energies=           -824.629049
 Sum of electronic and thermal Energies=              -824.610432
 Sum of electronic and thermal Enthalpies=            -824.609488
 Sum of electronic and thermal Free Energies=         -824.675407

                     E (Thermal)             CV                S
                      KCal/Mol        Cal/Mol-Kelvin    Cal/Mol-Kelvin
 Total                  244.589             72.117            138.739
 Electronic               0.000              0.000              0.000
 Translational            0.889              2.981             42.580
 Rotational               0.889              2.981             33.161
 Vibrational            242.811             66.156             62.998
 Vibration     1          0.594              1.983              5.594
 Vibration     2          0.596              1.976              4.693
 Vibration     3          0.597              1.972              4.335
 Vibration     4          0.600              1.964              3.929
 Vibration     5          0.600              1.963              3.889
 Vibration     6          0.603              1.954              3.576
 Vibration     7          0.612              1.923              2.946
 Vibration     8          0.620              1.897              2.606
 Vibration     9          0.630              1.863              2.298
 Vibration    10          0.636              1.846              2.171
 Vibration    11          0.642              1.828              2.058
 Vibration    12          0.655              1.787              1.841
 Vibration    13          0.660              1.770              1.764
 Vibration    14          0.663              1.762              1.728
 Vibration    15          0.668              1.746              1.663
 Vibration    16          0.676              1.721              1.570
 Vibration    17          0.683              1.702              1.506
 Vibration    18          0.690              1.682              1.443
 Vibration    19          0.722              1.589              1.198
 Vibration    20          0.734              1.557              1.128
 Vibration    21          0.755              1.498              1.012
 Vibration    22          0.779              1.437              0.907
 Vibration    23          0.819              1.335              0.761
 Vibration    24          0.836              1.295              0.711
 Vibration    25          0.867              1.223              0.628
 Vibration    26          0.903              1.145              0.549
 Vibration    27          0.924              1.100              0.508
 Vibration    28          0.935              1.077              0.488
 Vibration    29          0.948              1.053              0.467
 Vibration    30          0.961              1.026              0.445

                           ! Non-Optimized Parameters !
 Normal termination of Gaussian 16 at Sun Dec 13 13:20:32 2020.

 ----------------------------------------------------------------------
 # B3LYP/6-311++G(d,p) empiricaldispersion=gd3bj scf=xqc pop=npa geom=c
 heck
 ----------------------------------------------------------------------

 --------------------------------------
 CID_80412478_JID_9251_Energie_neutraal
 --------------------------------------
 Structure from the checkpoint file:  "JID_9251.chk"
 Charge =  0 Multiplicity = 1

 SCF Done:  E(RB3LYP) =  -825.229560216     A.U. after   16 cycles
 Normal termination of Gaussian 16 at Sun Dec 13 13:33:47 2020.

 ----------------------------------------------------------------------
 # B3LYP/6-311++G(d,p) empiricaldispersion=gd3bj scf=xqc pop=npa geom=c
 heck
 ----------------------------------------------------------------------

 ------------------------------------
 CID_80412478_JID_9251_Energie_kation
 ------------------------------------
 Structure from the checkpoint file:  "JID_9251.chk"
 Charge =  1 Multiplicity = 2

 SCF Done:  E(UB3LYP) =  -824.956270501     A.U. after   25 cycles
 Normal termination of Gaussian 16 at Sun Dec 13 14:03:27 2020.
 Gaussian 16:  ES64L-G16RevA.03 25-Dec-2016

 ----------------------------------------------------------------------
 # B3LYP/6-311++G(d,p) empiricaldispersion=gd3bj scf=xqc pop=npa geom=c
 heck
 ----------------------------------------------------------------------

 -----------------------------------
 CID_80412478_JID_9251_Energie_anion
 -----------------------------------
 Structure from the checkpoint file:  "JID_9251.chk"
 Charge = -1 Multiplicity = 2

                         Standard orientation:
 ---------------------------------------------------------------------
 Center     Atomic      Atomic             Coordinates (Angstroms)
 Number     Number       Type             X           Y           Z
 ---------------------------------------------------------------------
      1          6           0        0.255797   -1.730526    1.937293
      2          6           0       -0.154936   -1.981673    0.487246
      3          6           0       -1.532943   -1.472686    0.002642
      4          8           0       -2.098122   -2.126842   -0.880949
      5          7           0       -2.070962   -0.296365    0.433491
      6          6           0       -1.550324    0.674048    1.412473
      7          6           0       -2.602806    1.793688    1.413808
      8          6           0       -3.186161    1.736808   -0.003199
      9          6           0       -3.239074    0.234938   -0.289483
     10          7           0        0.908749   -1.574334   -0.464788
     11          6           0        0.886485   -2.336494   -1.716888
     12          6           0        1.049237   -0.154215   -0.652328
     13          6           0        0.217805    0.536446   -1.548252
     14          6           0        0.320229    1.915565   -1.702031
     15          6           0        1.267117    2.624957   -0.959396
     16          6           0        2.122417    1.942375   -0.098807
     17          6           0        2.037990    0.551447    0.060086
     18          6           0        3.036666   -0.159661    0.951624
     19          7           0        4.357595    0.482302    0.867825
     20          1           0        0.538614   -0.695089    2.124715
     21          1           0        1.118854   -2.360123    2.172456
     22          1           0       -0.559864   -1.994757    2.619529
     23          1           0       -0.248890   -3.063659    0.360682
     24          1           0       -0.574203    1.055490    1.097500
     25          1           0       -1.445504    0.222930    2.401379
     26          1           0       -3.384355    1.573754    2.150760
     27          1           0       -2.163971    2.762780    1.667460
     28          1           0       -4.165568    2.216261   -0.087815
     29          1           0       -2.501432    2.223672   -0.706440
     30          1           0       -4.162514   -0.222651    0.089961
     31          1           0       -3.158826   -0.023487   -1.346980
     32          1           0       -0.044366   -2.233771   -2.290420
     33          1           0        1.729535   -2.013477   -2.334375
     34          1           0        1.014831   -3.398301   -1.480666
     35          1           0       -0.525856   -0.017647   -2.111543
     36          1           0       -0.336214    2.433891   -2.396041
     37          1           0        1.351604    3.702958   -1.066574
     38          1           0        2.897109    2.470298    0.447583
     39          1           0        2.719180   -0.091467    2.000558
     40          1           0        3.023152   -1.227396    0.692389
     41          1           0        5.002785    0.002366    1.493109
     42          1           0        4.728200    0.360842   -0.074056
 ---------------------------------------------------------------------

 SCF Done:  E(UB3LYP) =  -825.218703419     A.U. after   33 cycles
 SCF Done:  E(UB3LYP) =  -825.218703419     a.u. after    1 cycles

 The electronic state is 2-A.
 Alpha  occ. eigenvalues --  -18.98758 -14.24644 -14.22353 -14.19451 -10.17038
 Alpha  occ. eigenvalues --  -10.12049 -10.11027 -10.11014 -10.10775 -10.09628
 Alpha  occ. eigenvalues --  -10.09338 -10.08405 -10.08142 -10.08113 -10.08089
 Alpha  occ. eigenvalues --  -10.08080 -10.07953 -10.07442 -10.07141  -0.94084
 Alpha  occ. eigenvalues --   -0.84639  -0.84308  -0.78774  -0.75245  -0.70310
 Alpha  occ. eigenvalues --   -0.67648  -0.66426  -0.64825  -0.64285  -0.58300
 Alpha  occ. eigenvalues --   -0.56727  -0.56247  -0.53657  -0.50457  -0.49677
 Alpha  occ. eigenvalues --   -0.48119  -0.46023  -0.42790  -0.41396  -0.39866
 Alpha  occ. eigenvalues --   -0.39283  -0.38771  -0.37815  -0.36778  -0.35262
 Alpha  occ. eigenvalues --   -0.34408  -0.33863  -0.33506  -0.33188  -0.32449
 Alpha  occ. eigenvalues --   -0.31844  -0.31401  -0.31235  -0.30575  -0.29812
 Alpha  occ. eigenvalues --   -0.28512  -0.28282  -0.27201  -0.26647  -0.26222
 Alpha  occ. eigenvalues --   -0.25976  -0.25517  -0.25071  -0.24109  -0.23998
 Alpha  occ. eigenvalues --   -0.17602  -0.16429  -0.15967  -0.14829  -0.14270
 Alpha  occ. eigenvalues --   -0.12125   0.03989
 Alpha virt. eigenvalues --    0.05558   0.06526   0.07194   0.07427   0.07579
 Alpha virt. eigenvalues --    0.07878   0.08302   0.08616   0.09173   0.09688
 Alpha virt. eigenvalues --    0.10038   0.10122   0.10725   0.11052   0.11496

  Beta  occ. eigenvalues --  -18.98755 -14.24645 -14.22353 -14.19405 -10.17035
  Beta  occ. eigenvalues --  -10.12042 -10.11013 -10.10997 -10.10767 -10.09624
  Beta  occ. eigenvalues --  -10.09321 -10.08383 -10.08126 -10.08089 -10.08066
  Beta  occ. eigenvalues --  -10.08063 -10.07952 -10.07429 -10.07123  -0.94077
  Beta  occ. eigenvalues --   -0.84629  -0.84292  -0.78696  -0.75202  -0.70288
  Beta  occ. eigenvalues --   -0.67623  -0.66358  -0.64795  -0.64258  -0.58267
  Beta  occ. eigenvalues --   -0.56677  -0.56198  -0.53627  -0.50403  -0.49641
  Beta  occ. eigenvalues --   -0.48076  -0.45992  -0.42762  -0.41373  -0.39829
  Beta  occ. eigenvalues --   -0.39244  -0.38742  -0.37778  -0.36747  -0.35240
  Beta  occ. eigenvalues --   -0.34389  -0.33838  -0.33479  -0.33167  -0.32398
  Beta  occ. eigenvalues --   -0.31810  -0.31371  -0.31216  -0.30557  -0.29763
  Beta  occ. eigenvalues --   -0.28480  -0.28262  -0.27163  -0.26616  -0.26186
  Beta  occ. eigenvalues --   -0.25940  -0.25483  -0.25034  -0.24076  -0.23974
  Beta  occ. eigenvalues --   -0.17578  -0.16355  -0.15887  -0.14804  -0.14195
  Beta  occ. eigenvalues --   -0.12112
  Beta virt. eigenvalues --    0.06048   0.06577   0.06988   0.07360   0.07579
  Beta virt. eigenvalues --    0.07969   0.08159   0.08685   0.08970   0.09364
  Beta virt. eigenvalues --    0.09893   0.10180   0.10569   0.10971   0.11383

 Mulliken charges and spin densities:
               1          2
     1  C   -0.105342  -0.551895
     2  C   -0.401410   0.569984
     3  C   -0.187336  -0.238180
     4  O   -0.289092   0.008783
     5  N    0.099225   0.099343
     6  C   -0.258084   0.217668
     7  C    0.514216  -1.042995
     8  C   -0.048010  -0.281415
     9  C    0.068353  -0.203710
    10  N    0.356132  -0.004903
    11  C   -0.020651  -0.150703
    12  C   -0.831509   0.499793
    13  C    0.055998  -0.020610
    14  C    0.010909  -0.545193
    15  C   -0.473526   0.148168
    16  C    0.284305  -0.589530
    17  C   -0.516024   0.798530
    18  C    1.164382  -1.833721
    19  N   -0.409669   0.095584
    20  H    0.144144   0.000262
    21  H   -0.052651   0.227621
    22  H   -0.077910   0.245650
    23  H    0.168775   0.056140
    24  H    0.798147  -0.702358
    25  H   -0.189677   0.359402
    26  H   -0.119553   0.287046
    27  H   -0.419383   0.601299
    28  H   -0.407733   0.598408
    29  H    0.291563  -0.187683
    30  H    0.020179   0.153520
    31  H    0.114759   0.072395
    32  H    0.134415   0.028858
    33  H    0.064216   0.093915
    34  H    0.084939   0.047741
    35  H    0.212744  -0.041411
    36  H   -0.114289   0.276143
    37  H   -0.150171   0.311580
    38  H    0.116668   0.103451
    39  H   -0.461821   0.716230
    40  H    0.037255   0.112329
    41  H   -0.187875   0.432840
    42  H   -0.019607   0.231621
 Sum of Mulliken charges =  -1.00000   1.00000

 Dipole moment (field-independent basis, Debye):
    X=             -1.5609    Y=             -1.5848    Z=             -3.8316  Tot=              4.4305
 Quadrupole moment (field-independent basis, Debye-Ang):
   XX=           -203.1603   YY=           -161.3680   ZZ=           -158.6751
   XY=              0.7745   XZ=             -6.7611   YZ=             -4.4933

 Summary of Natural Population Analysis:

                                       Natural Population
                Natural  -----------------------------------------------
    Atom  No    Charge         Core      Valence    Rydberg      Total
 -----------------------------------------------------------------------
      C    1   -0.29198      0.99964     2.28596    0.00639     3.29198
      C    2   -0.03226      0.99954     2.01999    0.01273     3.03226
      C    3    0.33958      0.99960     1.63710    0.02372     2.66042
      O    4   -0.33797      0.99988     3.33308    0.00501     4.33797
      N    5   -0.25531      0.99964     2.74474    0.01094     3.75531
      C    6   -0.08569      0.99961     2.07582    0.01026     3.08569
      C    7   -0.19039      0.99963     2.18267    0.00809     3.19039
      C    8   -0.19709      0.99963     2.18985    0.00762     3.19709
      C    9   -0.08180      0.99962     2.07152    0.01066     3.08180
      N   10   -0.28118      0.99969     2.76848    0.01301     3.78118
      C   11   -0.17403      0.99963     2.16783    0.00656     3.17403
      C   12    0.08243      0.99941     1.90498    0.01318     2.91757
      C   13   -0.11452      0.99950     2.10623    0.00878     3.11452
      C   14   -0.10147      0.99956     2.09195    0.00997     3.10147
      C   15   -0.10389      0.99956     2.09489    0.00944     3.10389
      C   16   -0.09684      0.99951     2.08763    0.00970     3.09684
      C   17   -0.02041      0.99945     2.00961    0.01135     3.02041
      C   18   -0.10035      0.99958     2.08888    0.01189     3.10035
      N   19   -0.42055      0.99978     2.91081    0.00996     3.92055
      H   20    0.10317      0.00000     0.39474    0.00208     0.39683
      H   21    0.10546      0.00000     0.39337    0.00117     0.39454
      H   22    0.10136      0.00000     0.39766    0.00097     0.39864
      H   23    0.10472      0.00000     0.39365    0.00163     0.39528
      H   24    0.10142      0.00000     0.39576    0.00282     0.39858
      H   25    0.09996      0.00000     0.39851    0.00153     0.40004
      H   26    0.09751      0.00000     0.40082    0.00167     0.40249
      H   27    0.10514      0.00000     0.39376    0.00110     0.39486
      H   28    0.10279      0.00000     0.39606    0.00115     0.39721
      H   29    0.09920      0.00000     0.39916    0.00164     0.40080
      H   30    0.09435      0.00000     0.40458    0.00107     0.40565
      H   31    0.10646      0.00000     0.39251    0.00103     0.39354
      H   32    0.09366      0.00000     0.40509    0.00126     0.40634
      H   33    0.09544      0.00000     0.40380    0.00075     0.40456
      H   34    0.09339      0.00000     0.40577    0.00084     0.40661
      H   35    0.10619      0.00000     0.39173    0.00207     0.39381
      H   36    0.09910      0.00000     0.39996    0.00094     0.40090
      H   37    0.09979      0.00000     0.39942    0.00079     0.40021
      H   38    0.11267      0.00000     0.38590    0.00143     0.38733
      H   39    0.09732      0.00000     0.40079    0.00189     0.40268
      H   40    0.09422      0.00000     0.40357    0.00221     0.40578
      H   41    0.17842      0.00000     0.31820    0.00338     0.32158
      H   42    0.17198      0.00000     0.32605    0.00197     0.32802
 =======================================================================
   * Total *   -0.00000     18.99245    51.77290    0.23465    71.00000

 Normal termination of Gaussian 16 at Sun Dec 13 14:42:21 2020.
