 Gaussian 16, Revision A.03,

 -----------------------------------------------------------
 # opt freq B3LYP/6-31G(d) empiricaldispersion=gd3bj scf=xqc
 -----------------------------------------------------------

 ------------------------------
 CID_82576654_JID_8595_neutraal
 ------------------------------
 Symbolic Z-matrix:
 Charge =  0 Multiplicity = 1

 SCF Done:  E(RB3LYP) =  -768.432798254     A.U. after   14 cycles
 SCF Done:  E(RB3LYP) =  -768.440716999     A.U. after   13 cycles
 SCF Done:  E(RB3LYP) =  -768.441522223     A.U. after   12 cycles
 SCF Done:  E(RB3LYP) =  -768.442598204     A.U. after   12 cycles
 SCF Done:  E(RB3LYP) =  -768.443056213     A.U. after   12 cycles
 SCF Done:  E(RB3LYP) =  -768.443233170     A.U. after   11 cycles
 SCF Done:  E(RB3LYP) =  -768.443305258     A.U. after   11 cycles
 SCF Done:  E(RB3LYP) =  -768.443339914     A.U. after   10 cycles
 SCF Done:  E(RB3LYP) =  -768.443346368     A.U. after    9 cycles
 SCF Done:  E(RB3LYP) =  -768.443348729     A.U. after    8 cycles
 SCF Done:  E(RB3LYP) =  -768.443351591     A.U. after    9 cycles
 SCF Done:  E(RB3LYP) =  -768.443351981     A.U. after    8 cycles
 SCF Done:  E(RB3LYP) =  -768.443352020     A.U. after    6 cycles
 Optimization completed.
    -- Stationary point found.
 Normal termination of Gaussian 16 at Fri Dec 11 21:18:04 2020.

 --------------------------------------------------------------------
 #N Geom=AllCheck Guess=TCheck SCRF=Check GenChk RB3LYP/6-31G(d) Freq
 --------------------------------------------------------------------

 Structure from the checkpoint file:  "JID_8595.chk"
 ------------------------------
 CID_82576654_JID_8595_neutraal
 ------------------------------
 Charge =  0 Multiplicity = 1

 SCF Done:  E(RB3LYP) =  -768.443352020     A.U. after    1 cycles

  Exact polarizability: 210.092 -10.681 209.841 -17.013  -5.723 108.423
 Approx polarizability: 295.700 -20.652 351.130 -46.658 -18.388 173.815

                      1                      2                      3
                      A                      A                      A
 Frequencies --     35.5525                39.9134                46.7144
 Red. masses --      3.7345                 3.6481                 3.2641
 Frc consts  --      0.0028                 0.0034                 0.0042
 IR Inten    --      0.7924                 0.6559                 0.6312

                      4                      5                      6
                      A                      A                      A
 Frequencies --     66.3071                75.3190                90.1447
 Red. masses --      2.9945                 1.1744                 2.5978
 Frc consts  --      0.0078                 0.0039                 0.0124
 IR Inten    --      1.3488                 0.4220                 0.1908

                      7                      8                      9
                      A                      A                      A
 Frequencies --    110.6611               148.0164               151.9337
 Red. masses --      2.7155                 2.7690                 2.9956
 Frc consts  --      0.0196                 0.0357                 0.0407
 IR Inten    --      2.3004                10.5263                 3.0733

                     10                     11                     12
                      A                      A                      A
 Frequencies --    178.9368               207.0054               218.5957
 Red. masses --      3.6329                 2.7140                 2.7804
 Frc consts  --      0.0685                 0.0685                 0.0783
 IR Inten    --      0.2427                11.6242                 4.0947

                     13                     14                     15
                      A                      A                      A
 Frequencies --    240.6966               256.7542               288.0738
 Red. masses --      1.4497                 1.4451                 2.1454
 Frc consts  --      0.0495                 0.0561                 0.1049
 IR Inten    --     25.8770                30.6738                 1.4892

                     16                     17                     18
                      A                      A                      A
 Frequencies --    320.3054               334.8589               343.7389
 Red. masses --      2.3004                 2.6537                 3.5239
 Frc consts  --      0.1391                 0.1753                 0.2453
 IR Inten    --      2.8172                 5.6399                 0.2239

                     19                     20                     21
                      A                      A                      A
 Frequencies --    388.4159               442.2819               444.5180
 Red. masses --      3.1505                 3.7574                 4.1484
 Frc consts  --      0.2800                 0.4330                 0.4830
 IR Inten    --      2.7069                 1.3021                 4.3890

                     22                     23                     24
                      A                      A                      A
 Frequencies --    472.7488               522.9657               529.8865
 Red. masses --      2.5608                 3.6721                 4.5686
 Frc consts  --      0.3372                 0.5917                 0.7558
 IR Inten    --      7.1786                 2.9710                 0.9795

                     25                     26                     27
                      A                      A                      A
 Frequencies --    544.0520               551.7615               581.3670
 Red. masses --      5.7531                 4.1484                 4.5795
 Frc consts  --      1.0033                 0.7441                 0.9120
 IR Inten    --      0.9652                 4.0744                 2.4717

                     28                     29                     30
                      A                      A                      A
 Frequencies --    625.3235               648.1800               715.5540
 Red. masses --      3.8367                 3.5726                 3.2671
 Frc consts  --      0.8839                 0.8843                 0.9856
 IR Inten    --      1.4449                 0.4978                 3.6050

                     31                     32                     33
                      A                      A                      A
 Frequencies --    731.4829               772.0084               790.7152
 Red. masses --      5.2244                 1.5212                 1.4711
 Frc consts  --      1.6470                 0.5342                 0.5419
 IR Inten    --      8.0585                31.9230                 5.6838

                     34                     35                     36
                      A                      A                      A
 Frequencies --    815.3734               832.5947               839.5146
 Red. masses --      1.2582                 2.7994                 3.0823
 Frc consts  --      0.4928                 1.1434                 1.2799
 IR Inten    --      2.4174                 2.8703                 3.8389

                     37                     38                     39
                      A                      A                      A
 Frequencies --    861.9614               880.4609               896.3987
 Red. masses --      3.4864                 2.9109                 1.4450
 Frc consts  --      1.5262                 1.3295                 0.6841
 IR Inten    --      5.0933                 5.1957                56.7338

                     40                     41                     42
                      A                      A                      A
 Frequencies --    906.9628               917.0190               939.7916
 Red. masses --      1.4405                 1.5405                 2.7779
 Frc consts  --      0.6981                 0.7632                 1.4455
 IR Inten    --     16.0103                34.8845                14.2432

                     43                     44                     45
                      A                      A                      A
 Frequencies --    969.2393               972.1565               989.8437
 Red. masses --      1.4325                 1.8525                 2.3158
 Frc consts  --      0.7929                 1.0315                 1.3369
 IR Inten    --      3.1985                22.4421                 5.5634

                     46                     47                     48
                      A                      A                      A
 Frequencies --   1024.3430              1028.9759              1068.4365
 Red. masses --      1.9504                 1.8056                 3.0320
 Frc consts  --      1.2058                 1.1264                 2.0393
 IR Inten    --      4.0116                 1.2584                54.2052

                     49                     50                     51
                      A                      A                      A
 Frequencies --   1069.8756              1084.4187              1106.4452
 Red. masses --      1.7931                 2.0864                 1.8466
 Frc consts  --      1.2092                 1.4456                 1.3319
 IR Inten    --     25.9967                 7.7674                 7.5022

                     52                     53                     54
                      A                      A                      A
 Frequencies --   1125.2188              1138.4245              1160.0190
 Red. masses --      1.9559                 2.1491                 1.8076
 Frc consts  --      1.4590                 1.6410                 1.4331
 IR Inten    --     36.8388                17.8457                32.0324

                     55                     56                     57
                      A                      A                      A
 Frequencies --   1180.8992              1204.1575              1208.6558
 Red. masses --      1.5915                 1.4872                 1.3427
 Frc consts  --      1.3076                 1.2706                 1.1557
 IR Inten    --     19.2063                 4.3494                 8.5932

                     58                     59                     60
                      A                      A                      A
 Frequencies --   1216.1371              1248.3039              1270.0806
 Red. masses --      1.2770                 1.8338                 3.3854
 Frc consts  --      1.1127                 1.6836                 3.2175
 IR Inten    --      0.7796                29.1750                68.5317

                     61                     62                     63
                      A                      A                      A
 Frequencies --   1287.7909              1295.5253              1338.3055
 Red. masses --      2.1337                 1.4281                 1.1662
 Frc consts  --      2.0849                 1.4123                 1.2306
 IR Inten    --     87.7108                 6.8738                17.9067

                     64                     65                     66
                      A                      A                      A
 Frequencies --   1351.0189              1371.1087              1376.6952
 Red. masses --      1.9453                 2.3052                 1.5710
 Frc consts  --      2.0920                 2.5534                 1.7543
 IR Inten    --      0.6485                11.4136                27.7760

                     67                     68                     69
                      A                      A                      A
 Frequencies --   1382.1324              1397.8281              1405.8076
 Red. masses --      1.7392                 3.2517                 1.6470
 Frc consts  --      1.9575                 3.7434                 1.9178
 IR Inten    --      1.6157                 8.6096                 5.4361

                     70                     71                     72
                      A                      A                      A
 Frequencies --   1418.3982              1430.8643              1442.8125
 Red. masses --      1.3677                 1.3646                 1.3108
 Frc consts  --      1.6211                 1.6461                 1.6077
 IR Inten    --      8.0252                 5.1158                37.2469

                     73                     74                     75
                      A                      A                      A
 Frequencies --   1446.9475              1465.1368              1494.7112
 Red. masses --      1.4298                 2.3430                 1.5456
 Frc consts  --      1.7638                 2.9633                 2.0345
 IR Inten    --      6.1624                31.8131                54.5599

                     76                     77                     78
                      A                      A                      A
 Frequencies --   1505.1069              1510.8771              1513.7779
 Red. masses --      1.0923                 1.0558                 1.0461
 Frc consts  --      1.4579                 1.4200                 1.4124
 IR Inten    --      6.0091                 7.5825                 7.6899

                     79                     80                     81
                      A                      A                      A
 Frequencies --   1518.7518              1523.6688              1529.8870
 Red. masses --      1.2950                 1.3120                 1.1707
 Frc consts  --      1.7600                 1.7946                 1.6144
 IR Inten    --      4.1872                 3.9295                 4.7653

                     82                     83                     84
                      A                      A                      A
 Frequencies --   1533.7161              1540.0690              1563.7446
 Red. masses --      1.0994                 1.1799                 3.0295
 Frc consts  --      1.5236                 1.6488                 4.3647
 IR Inten    --      7.3037                12.6624                58.5935

                     85                     86                     87
                      A                      A                      A
 Frequencies --   1618.5017              1658.2068              1662.1664
 Red. masses --      6.6411                 6.6074                 5.7181
 Frc consts  --     10.2498                10.7043                 9.3078
 IR Inten    --     23.8004                55.1590                23.1348

                     88                     89                     90
                      A                      A                      A
 Frequencies --   1709.9207              2983.5413              3022.5602
 Red. masses --      1.0862                 1.0718                 1.0693
 Frc consts  --      1.8711                 5.6211                 5.7555
 IR Inten    --     13.2562                51.0098                53.6451

                     91                     92                     93
                      A                      A                      A
 Frequencies --   3042.5913              3045.7210              3058.4440
 Red. masses --      1.0627                 1.0393                 1.0378
 Frc consts  --      5.7965                 5.6803                 5.7195
 IR Inten    --     17.2408                22.9049                17.0596

                     94                     95                     96
                      A                      A                      A
 Frequencies --   3061.2446              3077.8983              3092.8003
 Red. masses --      1.0705                 1.0908                 1.1016
 Frc consts  --      5.9106                 6.0882                 6.2083
 IR Inten    --     30.3796                49.3139                50.4980

                     97                     98                     99
                      A                      A                      A
 Frequencies --   3096.4763              3109.4761              3128.1481
 Red. masses --      1.1003                 1.0969                 1.0990
 Frc consts  --      6.2158                 6.2485                 6.3360
 IR Inten    --     17.6473                11.8909                72.4065

                    100                    101                    102
                      A                      A                      A
 Frequencies --   3135.1063              3155.3719              3160.2151
 Red. masses --      1.0923                 1.1023                 1.0995
 Frc consts  --      6.3255                 6.4664                 6.4696
 IR Inten    --     16.5613                17.4448                 7.8897

                    103                    104                    105
                      A                      A                      A
 Frequencies --   3178.1220              3191.9709              3209.3553
 Red. masses --      1.0903                 1.0867                 1.0914
 Frc consts  --      6.4886                 6.5235                 6.6233
 IR Inten    --     16.8729                 6.6378                15.2394

                    106                    107                    108
                      A                      A                      A
 Frequencies --   3220.4416              3477.0486              3556.4215
 Red. masses --      1.0936                 1.0503                 1.0915
 Frc consts  --      6.6826                 7.4815                 8.1342
 IR Inten    --     17.2845                 9.9947                 5.0483

 - Thermochemistry -
 -------------------
 Temperature   298.150 Kelvin.  Pressure   1.00000 Atm.
 Atom     1 has atomic number  6 and mass  12.00000

 Molecular mass:   244.15756 amu.
 Principal axes and moments of inertia in atomic units:
                           1         2         3
     Eigenvalues --  2805.717305923.782277839.57114
           X            0.99995   0.00566   0.00840
           Y           -0.00564   0.99998  -0.00221
           Z           -0.00841   0.00217   0.99996
 This molecule is an asymmetric top.
 Rotational symmetry number  1.
 Warning -- assumption of classical behavior for rotation
           may cause significant error
 Rotational temperatures (Kelvin)      0.03087     0.01462     0.01105
 Rotational constants (GHZ):           0.64324     0.30466     0.23021
 Zero-point vibrational energy     862309.7 (Joules/Mol)
                                  206.09697 (Kcal/Mol)
 Warning -- explicit consideration of  27 degrees of freedom as
           vibrations may cause significant error
 Vibrational temperatures:     51.15    57.43    67.21    95.40   108.37
          (Kelvin)            129.70   159.22   212.96   218.60   257.45
                              297.83   314.51   346.31   369.41   414.47
                              460.85   481.79   494.56   558.84   636.35
                              639.56   680.18   752.43   762.39   782.77
                              793.86   836.46   899.70   932.59  1029.52
                             1052.44  1110.75  1137.66  1173.14  1197.92
                             1207.87  1240.17  1266.79  1289.72  1304.92
                             1319.39  1352.15  1394.52  1398.72  1424.16
                             1473.80  1480.47  1537.24  1539.31  1560.24
                             1591.93  1618.94  1637.94  1669.01  1699.05
                             1732.51  1738.99  1749.75  1796.03  1827.36
                             1852.84  1863.97  1925.52  1943.81  1972.72
                             1980.76  1988.58  2011.16  2022.64  2040.76
                             2058.69  2075.89  2081.83  2108.01  2150.56
                             2165.51  2173.82  2177.99  2185.15  2192.22
                             2201.17  2206.68  2215.82  2249.88  2328.66
                             2385.79  2391.49  2460.19  4292.65  4348.79
                             4377.61  4382.11  4400.42  4404.45  4428.41
                             4449.85  4455.14  4473.84  4500.71  4510.72
                             4539.88  4546.84  4572.61  4592.53  4617.55
                             4633.50  5002.70  5116.90

 Zero-point correction=                           0.328436 (Hartree/Particle)
 Thermal correction to Energy=                    0.346281
 Thermal correction to Enthalpy=                  0.347226
 Thermal correction to Gibbs Free Energy=         0.281757
 Sum of electronic and zero-point Energies=           -768.114916
 Sum of electronic and thermal Energies=              -768.097071
 Sum of electronic and thermal Enthalpies=            -768.096126
 Sum of electronic and thermal Free Energies=         -768.161595

                     E (Thermal)             CV                S
                      KCal/Mol        Cal/Mol-Kelvin    Cal/Mol-Kelvin
 Total                  217.295             67.484            137.791
 Electronic               0.000              0.000              0.000
 Translational            0.889              2.981             42.379
 Rotational               0.889              2.981             33.232
 Vibrational            215.517             61.523             62.180
 Vibration     1          0.594              1.982              5.493
 Vibration     2          0.594              1.981              5.263
 Vibration     3          0.595              1.979              4.952
 Vibration     4          0.598              1.970              4.260
 Vibration     5          0.599              1.965              4.009
 Vibration     6          0.602              1.956              3.657
 Vibration     7          0.606              1.941              3.257
 Vibration     8          0.617              1.905              2.698
 Vibration     9          0.619              1.901              2.648
 Vibration    10          0.629              1.868              2.339
 Vibration    11          0.641              1.830              2.070
 Vibration    12          0.646              1.813              1.971
 Vibration    13          0.658              1.778              1.798
 Vibration    14          0.666              1.751              1.684
 Vibration    15          0.685              1.696              1.485
 Vibration    16          0.706              1.635              1.309
 Vibration    17          0.716              1.606              1.237
 Vibration    18          0.722              1.588              1.195
 Vibration    19          0.757              1.495              1.006
 Vibration    20          0.802              1.378              0.819
 Vibration    21          0.804              1.373              0.813
 Vibration    22          0.830              1.311              0.730
 Vibration    23          0.878              1.199              0.603
 Vibration    24          0.885              1.184              0.587
 Vibration    25          0.899              1.153              0.557
 Vibration    26          0.907              1.136              0.541
 Vibration    27          0.938              1.072              0.483

                           ! Non-Optimized Parameters !
 Normal termination of Gaussian 16 at Fri Dec 11 21:38:20 2020.

 ----------------------------------------------------------------------
 # B3LYP/6-311++G(d,p) empiricaldispersion=gd3bj scf=xqc pop=npa geom=c
 heck
 ----------------------------------------------------------------------

 --------------------------------------
 CID_82576654_JID_8595_Energie_neutraal
 --------------------------------------
 Structure from the checkpoint file:  "JID_8595.chk"
 Charge =  0 Multiplicity = 1

 SCF Done:  E(RB3LYP) =  -768.652004436     A.U. after   15 cycles
 Normal termination of Gaussian 16 at Fri Dec 11 21:47:28 2020.

 ----------------------------------------------------------------------
 # B3LYP/6-311++G(d,p) empiricaldispersion=gd3bj scf=xqc pop=npa geom=c
 heck
 ----------------------------------------------------------------------

 ------------------------------------
 CID_82576654_JID_8595_Energie_kation
 ------------------------------------
 Structure from the checkpoint file:  "JID_8595.chk"
 Charge =  1 Multiplicity = 2

 SCF Done:  E(UB3LYP) =  -768.368559846     A.U. after   23 cycles
 Normal termination of Gaussian 16 at Fri Dec 11 22:07:33 2020.
 Gaussian 16:  ES64L-G16RevA.03 25-Dec-2016

 ----------------------------------------------------------------------
 # B3LYP/6-311++G(d,p) empiricaldispersion=gd3bj scf=xqc pop=npa geom=c
 heck
 ----------------------------------------------------------------------

 -----------------------------------
 CID_82576654_JID_8595_Energie_anion
 -----------------------------------
 Structure from the checkpoint file:  "JID_8595.chk"
 Charge = -1 Multiplicity = 2

                         Standard orientation:
 ---------------------------------------------------------------------
 Center     Atomic      Atomic             Coordinates (Angstroms)
 Number     Number       Type             X           Y           Z
 ---------------------------------------------------------------------
      1          6           0        4.136086    0.512474    0.798972
      2          6           0        4.149304   -0.598674   -0.241064
      3          8           0        2.961627   -0.615633   -1.046089
      4          6           0        1.810754   -0.991348   -0.409599
      5          6           0        1.580160   -2.315708   -0.097808
      6          6           0        0.372774   -2.704374    0.517499
      7          6           0       -0.604355   -1.774413    0.797985
      8          6           0       -0.414922   -0.403548    0.475000
      9          6           0       -1.389729    0.617049    0.719535
     10          6           0       -1.043310    1.915009    0.416299
     11          6           0        0.224625    2.225878   -0.138923
     12          7           0        1.125216    1.300552   -0.410130
     13          6           0        0.826328    0.005396   -0.116618
     14          6           0        0.582665    3.656923   -0.448183
     15          6           0       -2.781465    0.321776    1.233145
     16          6           0       -3.869203    0.520237    0.155228
     17          6           0       -3.666288   -0.309136   -1.115642
     18          7           0       -3.653685   -1.749897   -0.823375
     19          1           0        3.950229    1.476410    0.318986
     20          1           0        5.097959    0.545622    1.324173
     21          1           0        3.346833    0.347156    1.539384
     22          1           0        4.962392   -0.455021   -0.958019
     23          1           0        4.287084   -1.579509    0.237106
     24          1           0        2.339121   -3.052733   -0.341568
     25          1           0        0.214321   -3.748960    0.769564
     26          1           0       -1.515781   -2.094844    1.289730
     27          1           0       -1.753352    2.719330    0.594360
     28          1           0        0.570652    4.271660    0.460674
     29          1           0        1.579798    3.698360   -0.890615
     30          1           0       -0.135544    4.102284   -1.147749
     31          1           0       -2.857116   -0.694467    1.624235
     32          1           0       -2.999884    0.991858    2.073509
     33          1           0       -4.838510    0.259413    0.595794
     34          1           0       -3.908729    1.580984   -0.125301
     35          1           0       -4.508894   -0.110087   -1.787887
     36          1           0       -2.758248    0.039940   -1.635560
     37          1           0       -3.828666   -2.267706   -1.682452
     38          1           0       -2.717939   -2.024468   -0.530075
 ---------------------------------------------------------------------

 SCF Done:  E(UB3LYP) =  -768.656615707     A.U. after   27 cycles

 The electronic state is 2-A.
 Alpha  occ. eigenvalues --  -18.99863 -14.18213 -14.13274 -10.10528 -10.07875
 Alpha  occ. eigenvalues --  -10.06699 -10.05570 -10.05494 -10.04893 -10.04660
 Alpha  occ. eigenvalues --  -10.04188 -10.03850 -10.03744 -10.03157 -10.02409
 Alpha  occ. eigenvalues --  -10.02211 -10.01914 -10.01287  -0.91789  -0.78673
 Alpha  occ. eigenvalues --   -0.77213  -0.70180  -0.67935  -0.64527  -0.62918
 Alpha  occ. eigenvalues --   -0.62370  -0.58523  -0.56670  -0.55247  -0.51525
 Alpha  occ. eigenvalues --   -0.48732  -0.47186  -0.45477  -0.42097  -0.38983
 Alpha  occ. eigenvalues --   -0.38461  -0.38088  -0.35778  -0.35582  -0.35046
 Alpha  occ. eigenvalues --   -0.33824  -0.31624  -0.31067  -0.30564  -0.29843
 Alpha  occ. eigenvalues --   -0.28875  -0.28473  -0.27421  -0.26903  -0.26353
 Alpha  occ. eigenvalues --   -0.26164  -0.25382  -0.24956  -0.23756  -0.22719
 Alpha  occ. eigenvalues --   -0.22396  -0.21507  -0.20703  -0.20164  -0.19083
 Alpha  occ. eigenvalues --   -0.14948  -0.13942  -0.13387  -0.10463  -0.10081
 Alpha  occ. eigenvalues --   -0.08295   0.04778
 Alpha virt. eigenvalues --    0.07741   0.08067   0.08789   0.09362   0.09499
 Alpha virt. eigenvalues --    0.10147   0.10758   0.11055   0.11527   0.11842
 Alpha virt. eigenvalues --    0.12090   0.12367   0.12972   0.13532   0.13772

  Beta  occ. eigenvalues --  -18.99858 -14.18208 -14.12919 -10.10502 -10.07875
  Beta  occ. eigenvalues --  -10.06440 -10.05545 -10.05493 -10.04858 -10.04660
  Beta  occ. eigenvalues --  -10.04216 -10.03855 -10.03829 -10.03133 -10.02330
  Beta  occ. eigenvalues --  -10.01794 -10.01671 -10.01189  -0.91689  -0.78213
  Beta  occ. eigenvalues --   -0.77193  -0.69846  -0.67551  -0.64433  -0.62677
  Beta  occ. eigenvalues --   -0.62175  -0.58158  -0.56514  -0.55141  -0.51418
  Beta  occ. eigenvalues --   -0.48439  -0.47019  -0.45222  -0.41885  -0.38885
  Beta  occ. eigenvalues --   -0.38363  -0.37844  -0.35681  -0.35495  -0.34856
  Beta  occ. eigenvalues --   -0.33687  -0.31499  -0.30978  -0.30411  -0.29602
  Beta  occ. eigenvalues --   -0.28770  -0.28371  -0.27335  -0.26809  -0.26200
  Beta  occ. eigenvalues --   -0.25979  -0.25298  -0.24560  -0.23651  -0.22513
  Beta  occ. eigenvalues --   -0.22304  -0.21248  -0.20513  -0.20026  -0.18057
  Beta  occ. eigenvalues --   -0.14473  -0.13688  -0.12607  -0.09728  -0.09648
  Beta  occ. eigenvalues --   -0.06656
  Beta virt. eigenvalues --    0.07637   0.08019   0.08713   0.09221   0.09413
  Beta virt. eigenvalues --    0.10008   0.10330   0.11014   0.11100   0.11501
  Beta virt. eigenvalues --    0.11798   0.12027   0.12342   0.12989   0.13539

 Mulliken charges and spin densities:
               1          2
     1  C   -0.545722   0.009754
     2  C   -0.089267  -0.027887
     3  O   -0.091911  -0.001861
     4  C   -0.635277   0.110856
     5  C    0.274985   0.078515
     6  C   -0.469564   0.025931
     7  C   -0.538831   0.136971
     8  C    0.400022  -0.062248
     9  C    0.650061   0.160671
    10  C   -0.178657   0.221422
    11  C   -0.092720   0.060330
    12  N    0.089809   0.175671
    13  C   -0.542633  -0.036962
    14  C   -0.533222  -0.025924
    15  C   -0.164083  -0.040525
    16  C    0.142363  -0.203317
    17  C   -0.646656   0.027318
    18  N   -0.387175   0.002661
    19  H    0.168606  -0.002285
    20  H    0.088166   0.002526
    21  H    0.161252  -0.001333
    22  H    0.111256   0.022608
    23  H    0.088807  -0.004540
    24  H    0.111036   0.004096
    25  H    0.116653   0.001207
    26  H    0.085559  -0.016593
    27  H    0.093524   0.043701
    28  H    0.124730   0.004849
    29  H    0.133790   0.004344
    30  H    0.119696   0.003072
    31  H    0.136748   0.031646
    32  H   -0.028376   0.181933
    33  H    0.024650   0.099878
    34  H    0.105710  -0.003087
    35  H    0.110921   0.019503
    36  H    0.151734  -0.001581
    37  H    0.212083   0.000689
    38  H    0.241932  -0.002012
 Sum of Mulliken charges =  -1.00000   1.00000

 Dipole moment (field-independent basis, Debye):
    X=              0.6967    Y=             -0.1342    Z=             -0.4266  Tot=              0.8279
 Quadrupole moment (field-independent basis, Debye-Ang):
   XX=           -147.1174   YY=           -131.7569   ZZ=           -124.3958
   XY=             -2.1121   XZ=             10.6580   YZ=              0.6186

 Summary of Natural Population Analysis:

                                       Natural Population
                Natural  -----------------------------------------------
    Atom  No    Charge         Core      Valence    Rydberg      Total
 -----------------------------------------------------------------------
      C    1   -0.30236      0.99967     2.29846    0.00423     3.30236
      C    2    0.00074      0.99959     1.98980    0.00987     2.99926
      O    3   -0.28897      0.99986     3.27843    0.01068     4.28897
      C    4    0.19326      0.99934     1.79320    0.01420     2.80674
      C    5   -0.12020      0.99952     2.11195    0.00873     3.12020
      C    6   -0.10348      0.99958     2.09479    0.00912     3.10348
      C    7   -0.07619      0.99954     2.06871    0.00794     3.07619
      C    8   -0.05629      0.99946     2.04671    0.01011     3.05629
      C    9    0.07599      0.99948     1.91367    0.01085     2.92401
      C   10   -0.11639      0.99946     2.10779    0.00914     3.11639
      C   11    0.12206      0.99957     1.86503    0.01334     2.87794
      N   12   -0.20493      0.99965     2.69340    0.01188     3.70493
      C   13    0.06211      0.99945     1.92506    0.01338     2.93789
      C   14   -0.29581      0.99964     2.29177    0.00440     3.29581
      C   15   -0.20540      0.99960     2.19575    0.01004     3.20540
      C   16   -0.18376      0.99963     2.17323    0.01091     3.18376
      C   17   -0.09072      0.99964     2.08254    0.00855     3.09072
      N   18   -0.42995      0.99977     2.92084    0.00935     3.92995
      H   19    0.10869      0.00000     0.39027    0.00104     0.39131
      H   20    0.08837      0.00000     0.41065    0.00098     0.41163
      H   21    0.10533      0.00000     0.39380    0.00087     0.39467
      H   22    0.07859      0.00000     0.41965    0.00176     0.42141
      H   23    0.07388      0.00000     0.42466    0.00147     0.42612
      H   24    0.09233      0.00000     0.40620    0.00147     0.40767
      H   25    0.08882      0.00000     0.40975    0.00143     0.41118
      H   26    0.09057      0.00000     0.40775    0.00169     0.40943
      H   27    0.08847      0.00000     0.41031    0.00122     0.41153
      H   28    0.09554      0.00000     0.40349    0.00097     0.40446
      H   29    0.10400      0.00000     0.39494    0.00106     0.39600
      H   30    0.09524      0.00000     0.40378    0.00099     0.40476
      H   31    0.10009      0.00000     0.39862    0.00129     0.39991
      H   32    0.10272      0.00000     0.39600    0.00128     0.39728
      H   33    0.09209      0.00000     0.40622    0.00169     0.40791
      H   34    0.09342      0.00000     0.40561    0.00097     0.40658
      H   35    0.08157      0.00000     0.41682    0.00161     0.41843
      H   36    0.08842      0.00000     0.41039    0.00120     0.41158
      H   37    0.16804      0.00000     0.33031    0.00166     0.33196
      H   38    0.18413      0.00000     0.31385    0.00202     0.31587
 =======================================================================
   * Total *   -0.00000     17.99243    47.80418    0.20340    66.00000

 Normal termination of Gaussian 16 at Fri Dec 11 22:31:18 2020.
