 Gaussian 16, Revision A.03,

 -----------------------------------------------------------
 # opt freq B3LYP/6-31G(d) empiricaldispersion=gd3bj scf=xqc
 -----------------------------------------------------------

 ------------------------------
 CID_62784993_JID_4578_neutraal
 ------------------------------
 Symbolic Z-matrix:
 Charge =  0 Multiplicity = 1

 SCF Done:  E(RB3LYP) =  -631.972634005     A.U. after   14 cycles
 SCF Done:  E(RB3LYP) =  -631.988885088     A.U. after   12 cycles
 SCF Done:  E(RB3LYP) =  -631.991113285     A.U. after   11 cycles
 SCF Done:  E(RB3LYP) =  -631.991948301     A.U. after   11 cycles
 SCF Done:  E(RB3LYP) =  -631.992984905     A.U. after   11 cycles
 SCF Done:  E(RB3LYP) =  -631.993400243     A.U. after   14 cycles
 SCF Done:  E(RB3LYP) =  -631.993809918     A.U. after   11 cycles
 SCF Done:  E(RB3LYP) =  -631.994009780     A.U. after   10 cycles
 SCF Done:  E(RB3LYP) =  -631.994037557     A.U. after    9 cycles
 SCF Done:  E(RB3LYP) =  -631.994445568     A.U. after   12 cycles
 SCF Done:  E(RB3LYP) =  -631.994683022     A.U. after    9 cycles
 SCF Done:  E(RB3LYP) =  -631.994682347     A.U. after    9 cycles
 SCF Done:  E(RB3LYP) =  -631.994687895     A.U. after    9 cycles
 SCF Done:  E(RB3LYP) =  -631.994688498     A.U. after    7 cycles
 SCF Done:  E(RB3LYP) =  -631.994688631     A.U. after    8 cycles
 SCF Done:  E(RB3LYP) =  -631.994688705     A.U. after    7 cycles
 Optimization completed.
    -- Stationary point found.
 Normal termination of Gaussian 16 at Thu Dec 10 10:14:53 2020.

 --------------------------------------------------------------------
 #N Geom=AllCheck Guess=TCheck SCRF=Check GenChk RB3LYP/6-31G(d) Freq
 --------------------------------------------------------------------

 Structure from the checkpoint file:  "JID_4578.chk"
 ------------------------------
 CID_62784993_JID_4578_neutraal
 ------------------------------
 Charge =  0 Multiplicity = 1

 SCF Done:  E(RB3LYP) =  -631.994688705     A.U. after    1 cycles

  Exact polarizability: 147.403  -1.786 117.918  -3.019   3.352  99.511
 Approx polarizability: 184.396 -11.005 181.199 -10.454   8.829 152.377

                      1                      2                      3
                      A                      A                      A
 Frequencies --     44.2888                50.4070                78.8476
 Red. masses --      4.0764                 3.4668                 3.3718
 Frc consts  --      0.0047                 0.0052                 0.0124
 IR Inten    --      1.5590                 0.8611                 2.3864

                      4                      5                      6
                      A                      A                      A
 Frequencies --     96.9760               102.1062               133.7421
 Red. masses --      3.7245                 3.4130                 2.8452
 Frc consts  --      0.0206                 0.0210                 0.0300
 IR Inten    --      2.0340                 3.6372                 9.9410

                      7                      8                      9
                      A                      A                      A
 Frequencies --    140.3659               165.3879               258.0559
 Red. masses --      1.4356                 1.4750                 3.6460
 Frc consts  --      0.0167                 0.0238                 0.1431
 IR Inten    --      2.0443                 1.1167                 0.3584

                     10                     11                     12
                      A                      A                      A
 Frequencies --    296.1837               326.8535               343.3313
 Red. masses --      2.3545                 2.4068                 2.8876
 Frc consts  --      0.1217                 0.1515                 0.2005
 IR Inten    --      0.6498                 1.4900                 2.3086

                     13                     14                     15
                      A                      A                      A
 Frequencies --    349.6684               410.3576               432.2554
 Red. masses --      3.5703                 2.5714                 2.1881
 Frc consts  --      0.2572                 0.2551                 0.2409
 IR Inten    --      1.3529                 3.4363                 5.1449

                     16                     17                     18
                      A                      A                      A
 Frequencies --    465.0314               506.7168               548.6380
 Red. masses --      3.3547                 2.1769                 2.9432
 Frc consts  --      0.4274                 0.3293                 0.5220
 IR Inten    --     14.7380                 1.6019                 5.8349

                     19                     20                     21
                      A                      A                      A
 Frequencies --    562.9723               599.4953               618.1494
 Red. masses --      3.3549                 2.9488                 2.4503
 Frc consts  --      0.6265                 0.6244                 0.5516
 IR Inten    --      4.3249                10.5812                 6.9141

                     22                     23                     24
                      A                      A                      A
 Frequencies --    641.9846               738.6027               765.1893
 Red. masses --      3.1161                 2.9224                 1.3294
 Frc consts  --      0.7567                 0.9393                 0.4586
 IR Inten    --      7.0966                 1.7461                 4.3026

                     25                     26                     27
                      A                      A                      A
 Frequencies --    824.1584               840.1300               862.0646
 Red. masses --      3.1952                 2.2574                 1.4228
 Frc consts  --      1.2787                 0.9387                 0.6230
 IR Inten    --     18.1174                65.8059                13.8109

                     28                     29                     30
                      A                      A                      A
 Frequencies --    866.4038               882.0133               920.9759
 Red. masses --      1.5710                 1.5362                 2.6492
 Frc consts  --      0.6948                 0.7041                 1.3239
 IR Inten    --      4.8542                20.6160                 4.9478

                     31                     32                     33
                      A                      A                      A
 Frequencies --    946.7033               979.6200               985.1878
 Red. masses --      2.1734                 3.3113                 2.0918
 Frc consts  --      1.1477                 1.8722                 1.1962
 IR Inten    --     39.2218                11.5543                 7.3206

                     34                     35                     36
                      A                      A                      A
 Frequencies --    997.6880              1013.1982              1018.4200
 Red. masses --      3.1347                 3.4581                 1.9111
 Frc consts  --      1.8384                 2.0916                 1.1678
 IR Inten    --      0.7808                 4.7991                 7.4784

                     37                     38                     39
                      A                      A                      A
 Frequencies --   1044.5026              1060.8031              1062.5187
 Red. masses --      2.3542                 2.3260                 1.7767
 Frc consts  --      1.5133                 1.5422                 1.1818
 IR Inten    --      4.1156                20.8611                 2.4527

                     40                     41                     42
                      A                      A                      A
 Frequencies --   1079.3372              1107.6908              1130.3353
 Red. masses --      1.2043                 2.2321                 2.0647
 Frc consts  --      0.8266                 1.6136                 1.5543
 IR Inten    --      6.3987                39.1815                 1.3146

                     43                     44                     45
                      A                      A                      A
 Frequencies --   1149.2876              1203.4333              1218.6755
 Red. masses --      2.4438                 1.7482                 2.2199
 Frc consts  --      1.9018                 1.4917                 1.9425
 IR Inten    --     19.4041                61.7224                13.5503

                     46                     47                     48
                      A                      A                      A
 Frequencies --   1233.5490              1262.3606              1264.8357
 Red. masses --      2.2648                 1.3811                 1.3350
 Frc consts  --      2.0305                 1.2967                 1.2583
 IR Inten    --     16.9220                35.0062                25.0108

                     49                     50                     51
                      A                      A                      A
 Frequencies --   1272.7037              1297.5190              1303.6527
 Red. masses --      1.3797                 1.2878                 1.3544
 Frc consts  --      1.3167                 1.2774                 1.3562
 IR Inten    --     17.6003                 5.9809                 7.2547

                     52                     53                     54
                      A                      A                      A
 Frequencies --   1316.5064              1335.9912              1345.1804
 Red. masses --      1.4171                 1.4090                 1.4545
 Frc consts  --      1.4471                 1.4818                 1.5507
 IR Inten    --     36.8265                15.0816                 6.6374

                     55                     56                     57
                      A                      A                      A
 Frequencies --   1369.6971              1390.5557              1405.3717
 Red. masses --      1.4762                 1.3272                 1.4793
 Frc consts  --      1.6317                 1.5120                 1.7214
 IR Inten    --     35.3888                 0.4543                 1.0931

                     58                     59                     60
                      A                      A                      A
 Frequencies --   1409.0472              1414.5536              1418.2991
 Red. masses --      1.1861                 1.2393                 1.2585
 Frc consts  --      1.3875                 1.4610                 1.4915
 IR Inten    --     12.0635                26.9390                30.5458

                     61                     62                     63
                      A                      A                      A
 Frequencies --   1426.7854              1441.6806              1461.0192
 Red. masses --      1.4160                 1.3546                 1.4029
 Frc consts  --      1.6983                 1.6588                 1.7643
 IR Inten    --     19.1729                20.6219                21.1299

                     64                     65                     66
                      A                      A                      A
 Frequencies --   1472.5565              1498.3567              1501.2174
 Red. masses --      1.8935                 1.1152                 1.0693
 Frc consts  --      2.4191                 1.4752                 1.4199
 IR Inten    --    180.2550                 7.5393                12.4354

                     67                     68                     69
                      A                      A                      A
 Frequencies --   1504.4037              1512.4226              1517.9251
 Red. masses --      1.0795                 1.0920                 1.1063
 Frc consts  --      1.4395                 1.4717                 1.5018
 IR Inten    --     11.6928                 7.5991                 7.2756

                     70                     71                     72
                      A                      A                      A
 Frequencies --   1524.3987              1524.7097              1541.9898
 Red. masses --      1.0847                 1.0789                 1.1634
 Frc consts  --      1.4850                 1.4778                 1.6299
 IR Inten    --     13.9823                 4.7788                18.1636

                     73                     74                     75
                      A                      A                      A
 Frequencies --   1549.8063              1763.2216              3021.6410
 Red. masses --      1.1171                 9.3482                 1.0658
 Frc consts  --      1.5808                17.1234                 5.7336
 IR Inten    --      5.6925               280.2981                32.0281

                     76                     77                     78
                      A                      A                      A
 Frequencies --   3039.3117              3044.4185              3049.1877
 Red. masses --      1.0620                 1.0790                 1.0593
 Frc consts  --      5.7798                 5.8921                 5.8028
 IR Inten    --     38.3233                31.9723                80.6277

                     79                     80                     81
                      A                      A                      A
 Frequencies --   3050.5536              3061.0484              3062.1575
 Red. masses --      1.0668                 1.0408                 1.0611
 Frc consts  --      5.8490                 5.7457                 5.8625
 IR Inten    --      4.5778                 4.1303                23.4502

                     82                     83                     84
                      A                      A                      A
 Frequencies --   3066.0866              3074.7245              3082.3892
 Red. masses --      1.0975                 1.0672                 1.0702
 Frc consts  --      6.0789                 5.9446                 5.9911
 IR Inten    --     10.6051                16.1665                27.6584

                     85                     86                     87
                      A                      A                      A
 Frequencies --   3089.7694              3101.4794              3103.9991
 Red. masses --      1.0927                 1.1053                 1.1046
 Frc consts  --      6.1463                 6.2643                 6.2704
 IR Inten    --     59.0906                81.7354                13.7742

                     88                     89                     90
                      A                      A                      A
 Frequencies --   3111.1592              3122.0584              3122.6982
 Red. masses --      1.1025                 1.1011                 1.1040
 Frc consts  --      6.2874                 6.3236                 6.3425
 IR Inten    --     58.9999                17.5585                37.5032

                     91                     92                     93
                      A                      A                      A
 Frequencies --   3145.5758              3179.1922              3484.9744
 Red. masses --      1.1014                 1.1003                 1.0753
 Frc consts  --      6.4207                 6.5525                 7.6946
 IR Inten    --      7.5358                 8.0718                 1.9519

 - Thermochemistry -
 -------------------
 Temperature   298.150 Kelvin.  Pressure   1.00000 Atm.
 Atom     1 has atomic number  6 and mass  12.00000

 Molecular mass:   197.15281 amu.
 Principal axes and moments of inertia in atomic units:
                           1         2         3
     Eigenvalues --  1208.492494376.534234691.84730
           X            0.99987   0.01599   0.00219
           Y           -0.01600   0.99986   0.00431
           Z           -0.00212  -0.00435   0.99999
 This molecule is an asymmetric top.
 Rotational symmetry number  1.
 Warning -- assumption of classical behavior for rotation
           may cause significant error
 Rotational temperatures (Kelvin)      0.07167     0.01979     0.01846
 Rotational constants (GHZ):           1.49338     0.41237     0.38465
 Zero-point vibrational energy     778538.6 (Joules/Mol)
                                  186.07520 (Kcal/Mol)
 Warning -- explicit consideration of  21 degrees of freedom as
           vibrations may cause significant error
 Vibrational temperatures:     63.72    72.52   113.44   139.53   146.91
          (Kelvin)            192.42   201.96   237.96   371.28   426.14
                              470.27   493.98   503.09   590.41   621.92
                              669.08   729.05   789.37   809.99   862.54
                              889.38   923.67  1062.68  1100.94  1185.78
                             1208.76  1240.32  1246.56  1269.02  1325.08
                             1362.09  1409.45  1417.47  1435.45  1457.77
                             1465.28  1502.81  1526.26  1528.73  1552.93
                             1593.72  1626.30  1653.57  1731.47  1753.40
                             1774.80  1816.26  1819.82  1831.14  1866.84
                             1875.67  1894.16  1922.19  1935.41  1970.69
                             2000.70  2022.02  2027.30  2035.23  2040.62
                             2052.83  2074.26  2102.08  2118.68  2155.80
                             2159.92  2164.50  2176.04  2183.96  2193.27
                             2193.72  2218.58  2229.83  2536.88  4347.47
                             4372.89  4380.24  4387.10  4389.07  4404.17
                             4405.76  4411.41  4423.84  4434.87  4445.49
                             4462.34  4465.96  4476.26  4491.95  4492.87
                             4525.78  4574.15  5014.10

 Zero-point correction=                           0.296530 (Hartree/Particle)
 Thermal correction to Energy=                    0.310347
 Thermal correction to Enthalpy=                  0.311291
 Thermal correction to Gibbs Free Energy=         0.255432
 Sum of electronic and zero-point Energies=           -631.698159
 Sum of electronic and thermal Energies=              -631.684342
 Sum of electronic and thermal Enthalpies=            -631.683398
 Sum of electronic and thermal Free Energies=         -631.739256

                     E (Thermal)             CV                S
                      KCal/Mol        Cal/Mol-Kelvin    Cal/Mol-Kelvin
 Total                  194.746             52.896            117.565
 Electronic               0.000              0.000              0.000
 Translational            0.889              2.981             41.741
 Rotational               0.889              2.981             31.584
 Vibrational            192.968             46.935             44.239
 Vibration     1          0.595              1.980              5.057
 Vibration     2          0.595              1.977              4.801
 Vibration     3          0.600              1.963              3.919
 Vibration     4          0.603              1.951              3.514
 Vibration     5          0.604              1.947              3.414
 Vibration     6          0.613              1.920              2.892
 Vibration     7          0.615              1.913              2.799
 Vibration     8          0.624              1.885              2.487
 Vibration     9          0.667              1.749              1.675
 Vibration    10          0.690              1.681              1.438
 Vibration    11          0.711              1.622              1.276
 Vibration    12          0.722              1.589              1.197
 Vibration    13          0.727              1.576              1.168
 Vibration    14          0.775              1.448              0.925
 Vibration    15          0.793              1.400              0.851
 Vibration    16          0.822              1.328              0.752
 Vibration    17          0.862              1.235              0.642
 Vibration    18          0.904              1.143              0.547
 Vibration    19          0.919              1.111              0.518
 Vibration    20          0.958              1.033              0.451
 Vibration    21          0.978              0.994              0.419

                           ! Non-Optimized Parameters !
 Normal termination of Gaussian 16 at Thu Dec 10 10:25:43 2020.

 ----------------------------------------------------------------------
 # B3LYP/6-311++G(d,p) empiricaldispersion=gd3bj scf=xqc pop=npa geom=c
 heck
 ----------------------------------------------------------------------

 --------------------------------------
 CID_62784993_JID_4578_Energie_neutraal
 --------------------------------------
 Structure from the checkpoint file:  "JID_4578.chk"
 Charge =  0 Multiplicity = 1

 SCF Done:  E(RB3LYP) =  -632.174815770     A.U. after   15 cycles
 Normal termination of Gaussian 16 at Thu Dec 10 10:32:35 2020.

 ----------------------------------------------------------------------
 # B3LYP/6-311++G(d,p) empiricaldispersion=gd3bj scf=xqc pop=npa geom=c
 heck
 ----------------------------------------------------------------------

 ------------------------------------
 CID_62784993_JID_4578_Energie_kation
 ------------------------------------
 Structure from the checkpoint file:  "JID_4578.chk"
 Charge =  1 Multiplicity = 2

 SCF Done:  E(UB3LYP) =  -631.898022858     A.U. after   23 cycles
 Normal termination of Gaussian 16 at Thu Dec 10 10:44:54 2020.
 Gaussian 16:  ES64L-G16RevA.03 25-Dec-2016

 ----------------------------------------------------------------------
 # B3LYP/6-311++G(d,p) empiricaldispersion=gd3bj scf=xqc pop=npa geom=c
 heck
 ----------------------------------------------------------------------

 -----------------------------------
 CID_62784993_JID_4578_Energie_anion
 -----------------------------------
 Structure from the checkpoint file:  "JID_4578.chk"
 Charge = -1 Multiplicity = 2

                         Standard orientation:
 ---------------------------------------------------------------------
 Center     Atomic      Atomic             Coordinates (Angstroms)
 Number     Number       Type             X           Y           Z
 ---------------------------------------------------------------------
      1          6           0        3.782218    0.689418    0.077682
      2          6           0        2.795417   -0.468019    0.142890
      3          8           0        3.108742   -1.593183   -0.234912
      4          7           0        1.553084   -0.198534    0.665770
      5          6           0        1.051411    1.147123    0.927302
      6          6           0        0.501931    1.885484   -0.314345
      7          6           0       -0.041155    0.948437   -1.413173
      8          7           0       -0.937608   -0.116415   -0.995661
      9          6           0       -0.297265   -1.349731   -0.562497
     10          6           0        0.570945   -1.280674    0.708136
     11          6           0       -2.203338    0.286079   -0.449629
     12          6           0       -3.429247   -0.660700   -0.504127
     13          7           0       -3.890574   -0.179611    0.837247
     14          6           0       -2.546792    0.432850    1.071767
     15          1           0        4.711598    0.305481   -0.343332
     16          1           0        3.983799    1.102273    1.072625
     17          1           0        3.414595    1.505843   -0.552875
     18          1           0        1.831954    1.745071    1.405503
     19          1           0        0.253204    1.037683    1.666802
     20          1           0       -0.285816    2.574217    0.017043
     21          1           0        1.283599    2.510283   -0.766311
     22          1           0       -0.554166    1.567544   -2.162810
     23          1           0        0.804591    0.474686   -1.924511
     24          1           0        0.349421   -1.692777   -1.379563
     25          1           0       -1.064265   -2.118396   -0.420261
     26          1           0        1.117324   -2.219646    0.817146
     27          1           0       -0.047656   -1.132506    1.598729
     28          1           0       -2.471608    1.226487   -0.947024
     29          1           0       -4.131829   -0.522248   -1.332959
     30          1           0       -3.166294   -1.723014   -0.451856
     31          1           0       -4.577596    0.561501    0.706672
     32          1           0       -1.950633   -0.218748    1.719295
     33          1           0       -2.549214    1.442052    1.501443
 ---------------------------------------------------------------------

 SCF Done:  E(UB3LYP) =  -632.165400730     A.U. after   31 cycles

 The electronic state is 2-A.
 Alpha  occ. eigenvalues --  -18.99107 -14.24550 -14.20791 -14.19772 -10.17671
 Alpha  occ. eigenvalues --  -10.11139 -10.10635 -10.10379 -10.10285 -10.09784
 Alpha  occ. eigenvalues --  -10.09313 -10.09031 -10.07875 -10.06945  -0.94339
 Alpha  occ. eigenvalues --   -0.85365  -0.83598  -0.80783  -0.69272  -0.66142
 Alpha  occ. eigenvalues --   -0.63192  -0.61001  -0.58418  -0.57713  -0.54158
 Alpha  occ. eigenvalues --   -0.50375  -0.45877  -0.44005  -0.41466  -0.40928
 Alpha  occ. eigenvalues --   -0.40127  -0.38416  -0.37515  -0.35931  -0.34885
 Alpha  occ. eigenvalues --   -0.33591  -0.32685  -0.31505  -0.30796  -0.30510
 Alpha  occ. eigenvalues --   -0.30198  -0.29358  -0.27885  -0.27752  -0.27026
 Alpha  occ. eigenvalues --   -0.26169  -0.25701  -0.25058  -0.23957  -0.23128
 Alpha  occ. eigenvalues --   -0.16356  -0.15280  -0.13185  -0.10834   0.04152
 Alpha virt. eigenvalues --    0.06176   0.07466   0.07773   0.08464   0.09087
 Alpha virt. eigenvalues --    0.09433   0.10300   0.10356   0.10700   0.11114
 Alpha virt. eigenvalues --    0.11797   0.12482   0.12847   0.13047   0.13613

  Beta  occ. eigenvalues --  -18.99098 -14.24553 -14.20789 -14.19754 -10.17664
  Beta  occ. eigenvalues --  -10.11120 -10.10632 -10.10373 -10.10265 -10.09769
  Beta  occ. eigenvalues --  -10.09296 -10.09010 -10.07839 -10.06912  -0.94324
  Beta  occ. eigenvalues --   -0.85351  -0.83576  -0.80761  -0.69238  -0.66101
  Beta  occ. eigenvalues --   -0.63150  -0.60964  -0.58377  -0.57661  -0.54123
  Beta  occ. eigenvalues --   -0.50318  -0.45829  -0.43969  -0.41427  -0.40856
  Beta  occ. eigenvalues --   -0.40086  -0.38388  -0.37488  -0.35901  -0.34848
  Beta  occ. eigenvalues --   -0.33548  -0.32653  -0.31483  -0.30764  -0.30486
  Beta  occ. eigenvalues --   -0.30170  -0.29330  -0.27857  -0.27712  -0.26986
  Beta  occ. eigenvalues --   -0.26127  -0.25661  -0.25029  -0.23927  -0.23084
  Beta  occ. eigenvalues --   -0.16343  -0.15256  -0.13158  -0.10798
  Beta virt. eigenvalues --    0.06669   0.07262   0.08000   0.08096   0.08937
  Beta virt. eigenvalues --    0.09608   0.09879   0.10640   0.10647   0.10964
  Beta virt. eigenvalues --    0.11327   0.12162   0.12718   0.13252   0.13427

 Mulliken charges and spin densities:
               1          2
     1  C    0.942565  -1.463143
     2  C   -0.636268   0.673873
     3  O   -0.339520   0.005621
     4  N    0.047584  -0.015943
     5  C    0.002774  -0.295476
     6  C    0.859503  -1.065425
     7  C   -0.183116  -0.123425
     8  N    0.144453   0.090374
     9  C    0.332796  -0.473837
    10  C   -0.541897   0.221076
    11  C   -1.612942   0.965778
    12  C    1.232439  -1.496057
    13  N   -0.164739   0.082840
    14  C    0.934078  -1.358232
    15  H    0.147007   0.025156
    16  H   -0.212661   0.385421
    17  H   -0.084968   0.237422
    18  H   -0.559249   0.739534
    19  H   -0.099836   0.301962
    20  H   -0.174471   0.328724
    21  H   -0.537275   0.723816
    22  H   -0.306087   0.512534
    23  H    0.111478   0.020278
    24  H    0.171428   0.055467
    25  H    0.111720  -0.028082
    26  H    0.172394   0.028682
    27  H    0.033840   0.123324
    28  H   -0.390255   0.545427
    29  H   -0.322051   0.487807
    30  H    0.096612   0.025113
    31  H   -0.027683   0.274385
    32  H    0.187629  -0.035359
    33  H   -0.335280   0.500363
 Sum of Mulliken charges =  -1.00000   1.00000

 Dipole moment (field-independent basis, Debye):
    X=              1.8362    Y=             -5.3273    Z=              0.2494  Tot=              5.6404
 Quadrupole moment (field-independent basis, Debye-Ang):
   XX=           -167.9645   YY=           -136.8479   ZZ=           -120.6187
   XY=              5.7748   XZ=             -0.9007   YZ=             -1.1480

 Summary of Natural Population Analysis:

                                       Natural Population
                Natural  -----------------------------------------------
    Atom  No    Charge         Core      Valence    Rydberg      Total
 -----------------------------------------------------------------------
      C    1   -0.33183      0.99963     2.32725    0.00495     3.33183
      C    2    0.34631      0.99966     1.63119    0.02284     2.65369
      O    3   -0.33111      0.99988     3.32573    0.00551     4.33111
      N    4   -0.26029      0.99964     2.74978    0.01087     3.76029
      C    5   -0.08806      0.99960     2.07643    0.01203     3.08806
      C    6   -0.20681      0.99962     2.19749    0.00971     3.20681
      C    7   -0.08078      0.99960     2.06934    0.01184     3.08078
      N    8   -0.28085      0.99969     2.76750    0.01366     3.78085
      C    9   -0.08691      0.99960     2.07755    0.00976     3.08691
      C   10   -0.09329      0.99960     2.08419    0.00950     3.09329
      C   11   -0.01723      0.99957     2.00062    0.01705     3.01723
      C   12   -0.08622      0.99964     2.07496    0.01162     3.08622
      N   13   -0.34311      0.99978     2.83035    0.01297     3.84311
      C   14   -0.09520      0.99963     2.08440    0.01116     3.09520
      H   15    0.11097      0.00000     0.38823    0.00081     0.38903
      H   16    0.10994      0.00000     0.38899    0.00108     0.39006
      H   17    0.11108      0.00000     0.38757    0.00135     0.38892
      H   18    0.10556      0.00000     0.39264    0.00180     0.39444
      H   19    0.09844      0.00000     0.39998    0.00157     0.40156
      H   20    0.10310      0.00000     0.39413    0.00277     0.39690
      H   21    0.09937      0.00000     0.39859    0.00204     0.40063
      H   22    0.09874      0.00000     0.39995    0.00131     0.40126
      H   23    0.09334      0.00000     0.40519    0.00147     0.40666
      H   24    0.09753      0.00000     0.40139    0.00108     0.40247
      H   25    0.09628      0.00000     0.40267    0.00105     0.40372
      H   26    0.11095      0.00000     0.38785    0.00120     0.38905
      H   27    0.09110      0.00000     0.40746    0.00144     0.40890
      H   28    0.10150      0.00000     0.39527    0.00322     0.39850
      H   29    0.09237      0.00000     0.40588    0.00174     0.40763
      H   30    0.08470      0.00000     0.41375    0.00155     0.41530
      H   31    0.17294      0.00000     0.32367    0.00338     0.32706
      H   32    0.08328      0.00000     0.41483    0.00189     0.41672
      H   33    0.09418      0.00000     0.40399    0.00183     0.40582
 =======================================================================
   * Total *    0.00000     13.99514    39.80881    0.19605    54.00000

 Normal termination of Gaussian 16 at Thu Dec 10 11:02:26 2020.
