 Gaussian 16, Revision A.03,

 -----------------------------------------------------------
 # opt freq B3LYP/6-31G(d) empiricaldispersion=gd3bj scf=xqc
 -----------------------------------------------------------

 -------------------------------
 CID_143826494_JID_2765_neutraal
 -------------------------------
 Symbolic Z-matrix:
 Charge =  0 Multiplicity = 1

 SCF Done:  E(RB3LYP) =  -880.128683808     A.U. after   15 cycles
 SCF Done:  E(RB3LYP) =  -880.134654087     A.U. after   13 cycles
 SCF Done:  E(RB3LYP) =  -880.133410061     A.U. after   13 cycles
 SCF Done:  E(RB3LYP) =  -880.134797047     A.U. after   13 cycles
 SCF Done:  E(RB3LYP) =  -880.135352523     A.U. after   14 cycles
 SCF Done:  E(RB3LYP) =  -880.137616675     A.U. after   13 cycles
 SCF Done:  E(RB3LYP) =  -880.137867192     A.U. after   12 cycles
 SCF Done:  E(RB3LYP) =  -880.138424259     A.U. after   11 cycles
 SCF Done:  E(RB3LYP) =  -880.138668308     A.U. after   12 cycles
 SCF Done:  E(RB3LYP) =  -880.138723218     A.U. after   12 cycles
 SCF Done:  E(RB3LYP) =  -880.138833493     A.U. after   10 cycles
 SCF Done:  E(RB3LYP) =  -880.138836076     A.U. after   10 cycles
 SCF Done:  E(RB3LYP) =  -880.138836489     A.U. after    8 cycles
 SCF Done:  E(RB3LYP) =  -880.138836674     A.U. after    8 cycles
 SCF Done:  E(RB3LYP) =  -880.138836690     A.U. after    7 cycles
 Optimization completed.
    -- Stationary point found.
 Normal termination of Gaussian 16 at Wed Dec  9 18:01:57 2020.

 --------------------------------------------------------------------
 #N Geom=AllCheck Guess=TCheck SCRF=Check GenChk RB3LYP/6-31G(d) Freq
 --------------------------------------------------------------------

 Structure from the checkpoint file:  "JID_2765.chk"
 -------------------------------
 CID_143826494_JID_2765_neutraal
 -------------------------------
 Charge =  0 Multiplicity = 1

 SCF Done:  E(RB3LYP) =  -880.138836690     A.U. after    1 cycles

  Exact polarizability: 136.970   7.471 111.526   8.034  -5.758 105.114
 Approx polarizability: 181.121  19.104 170.181  17.676  -5.451 164.068

                      1                      2                      3
                      A                      A                      A
 Frequencies --     26.9438                46.8503                65.2277
 Red. masses --      3.4331                 4.5921                 3.6426
 Frc consts  --      0.0015                 0.0059                 0.0091
 IR Inten    --      0.6224                 0.7672                 0.2321

                      4                      5                      6
                      A                      A                      A
 Frequencies --     76.8763                96.9658               109.6665
 Red. masses --      3.8247                 3.8270                 3.0362
 Frc consts  --      0.0133                 0.0212                 0.0215
 IR Inten    --      0.4744                 0.1337                 0.2030

                      7                      8                      9
                      A                      A                      A
 Frequencies --    174.3899               199.5313               210.5533
 Red. masses --      3.3684                 4.3268                 2.6485
 Frc consts  --      0.0604                 0.1015                 0.0692
 IR Inten    --      2.0186                 0.1192                 0.7506

                     10                     11                     12
                      A                      A                      A
 Frequencies --    257.0452               265.0532               289.7798
 Red. masses --      2.1941                 1.2229                 3.2139
 Frc consts  --      0.0854                 0.0506                 0.1590
 IR Inten    --      0.5176                 0.2988                 1.0397

                     13                     14                     15
                      A                      A                      A
 Frequencies --    316.5936               373.5723               407.5799
 Red. masses --      3.7194                 3.2568                 2.5811
 Frc consts  --      0.2196                 0.2678                 0.2526
 IR Inten    --      0.1759                 1.6799                 4.5023

                     16                     17                     18
                      A                      A                      A
 Frequencies --    437.5898               491.6325               568.8240
 Red. masses --      2.4395                 4.9827                 3.2070
 Frc consts  --      0.2752                 0.7096                 0.6114
 IR Inten    --      7.0363                18.7998                16.8274

                     19                     20                     21
                      A                      A                      A
 Frequencies --    615.0406               655.9572               676.2884
 Red. masses --      1.7228                 3.0150                 2.2363
 Frc consts  --      0.3840                 0.7643                 0.6026
 IR Inten    --     39.1243                 9.2192                31.8758

                     22                     23                     24
                      A                      A                      A
 Frequencies --    722.9328               775.1044               794.1368
 Red. masses --      1.8053                 3.4292                 1.0794
 Frc consts  --      0.5559                 1.2138                 0.4011
 IR Inten    --     32.7346                15.4783                 0.1387

                     25                     26                     27
                      A                      A                      A
 Frequencies --    844.0496               870.5897               904.7336
 Red. masses --      1.2709                 2.3762                 4.1080
 Frc consts  --      0.5334                 1.0611                 1.9812
 IR Inten    --      9.3025                 4.0435                31.8337

                     28                     29                     30
                      A                      A                      A
 Frequencies --    928.1717               933.2694               938.8480
 Red. masses --      2.4870                 2.0422                 3.2582
 Frc consts  --      1.2623                 1.0480                 1.6921
 IR Inten    --      5.9974                 5.4617                 4.3460

                     31                     32                     33
                      A                      A                      A
 Frequencies --    945.0442               967.1511              1035.3323
 Red. masses --      1.4184                 2.0274                 1.1157
 Frc consts  --      0.7464                 1.1173                 0.7046
 IR Inten    --     34.6918                 7.1930                18.3687

                     34                     35                     36
                      A                      A                      A
 Frequencies --   1056.5156              1065.9992              1068.7091
 Red. masses --      1.4867                 1.4545                 1.2696
 Frc consts  --      0.9777                 0.9738                 0.8544
 IR Inten    --     14.9162                19.3925                 7.0213

                     37                     38                     39
                      A                      A                      A
 Frequencies --   1090.4357              1101.4158              1128.0011
 Red. masses --      1.3384                 1.3321                 2.1404
 Frc consts  --      0.9376                 0.9521                 1.6046
 IR Inten    --      3.8329                 2.4069                29.5904

                     40                     41                     42
                      A                      A                      A
 Frequencies --   1138.7680              1190.1335              1206.8968
 Red. masses --      1.1256                 2.0325                 1.3844
 Frc consts  --      0.8600                 1.6962                 1.1881
 IR Inten    --      1.8822                21.7774                 1.4033

                     43                     44                     45
                      A                      A                      A
 Frequencies --   1237.6173              1255.2377              1313.8041
 Red. masses --      2.3212                 1.5317                 1.3307
 Frc consts  --      2.0947                 1.4219                 1.3533
 IR Inten    --     10.4782                39.8075                 0.3208

                     46                     47                     48
                      A                      A                      A
 Frequencies --   1339.2244              1340.8530              1360.6615
 Red. masses --      1.4331                 1.2413                 3.6550
 Frc consts  --      1.5144                 1.3149                 3.9869
 IR Inten    --     16.2688                 0.6272               229.3992

                     49                     50                     51
                      A                      A                      A
 Frequencies --   1383.2181              1389.9319              1416.9547
 Red. masses --      1.3630                 1.2967                 1.3054
 Frc consts  --      1.5365                 1.4760                 1.5442
 IR Inten    --      3.1101                 3.6384                11.9966

                     52                     53                     54
                      A                      A                      A
 Frequencies --   1441.5983              1475.4665              1491.8664
 Red. masses --      1.2504                 1.1746                 1.0870
 Frc consts  --      1.5310                 1.5065                 1.4255
 IR Inten    --     11.3507                 2.1292                 1.2090

                     55                     56                     57
                      A                      A                      A
 Frequencies --   1514.1653              1523.6906              1525.2744
 Red. masses --      1.1159                 1.1895                 1.1036
 Frc consts  --      1.5074                 1.6271                 1.5127
 IR Inten    --     11.4504                 1.3730                 7.3370

                     58                     59                     60
                      A                      A                      A
 Frequencies --   1547.0238              1729.6045              1764.9446
 Red. masses --      1.0610                 4.4170                 8.1036
 Frc consts  --      1.4960                 7.7852                14.8728
 IR Inten    --     21.9794                 4.7454               266.1991

                     61                     62                     63
                      A                      A                      A
 Frequencies --   3029.7747              3057.2641              3076.2679
 Red. masses --      1.0658                 1.0423                 1.0837
 Frc consts  --      5.7645                 5.7399                 6.0422
 IR Inten    --     29.7252                24.9885                15.9225

                     64                     65                     66
                      A                      A                      A
 Frequencies --   3094.1494              3116.1427              3154.7215
 Red. masses --      1.0962                 1.1001                 1.0540
 Frc consts  --      6.1832                 6.2940                 6.1806
 IR Inten    --     11.9362                35.2173                12.4860

                     67                     68                     69
                      A                      A                      A
 Frequencies --   3155.9284              3162.1322              3164.6613
 Red. masses --      1.0604                 1.0692                 1.0928
 Frc consts  --      6.2225                 6.2989                 6.4483
 IR Inten    --     14.2653                 8.4662                 3.2815

                     70                     71                     72
                      A                      A                      A
 Frequencies --   3168.8780              3169.9927              3234.4402
 Red. masses --      1.0788                 1.0940                 1.1183
 Frc consts  --      6.3828                 6.4771                 6.8928
 IR Inten    --     17.9195                17.5572                 5.9469

                     73                     74                     75
                      A                      A                      A
 Frequencies --   3239.6768              3259.7045              3544.4952
 Red. masses --      1.1158                 1.1132                 1.0751
 Frc consts  --      6.9000                 6.9692                 7.9581
 IR Inten    --     15.1188                 4.8874                21.9182

 - Thermochemistry -
 -------------------
 Temperature   298.150 Kelvin.  Pressure   1.00000 Atm.
 Atom     1 has atomic number  6 and mass  12.00000

 Molecular mass:   185.08744 amu.
 Principal axes and moments of inertia in atomic units:
                           1         2         3
     Eigenvalues --  1554.547353354.031623614.43066
           X            0.99982  -0.01890  -0.00212
           Y            0.01856   0.99380  -0.10962
           Z            0.00418   0.10956   0.99397
 This molecule is an asymmetric top.
 Rotational symmetry number  1.
 Warning -- assumption of classical behavior for rotation
           may cause significant error
 Rotational temperatures (Kelvin)      0.05572     0.02582     0.02396
 Rotational constants (GHZ):           1.16094     0.53808     0.49932
 Zero-point vibrational energy     602604.3 (Joules/Mol)
                                  144.02588 (Kcal/Mol)
 Warning -- explicit consideration of  19 degrees of freedom as
           vibrations may cause significant error
 Vibrational temperatures:     38.77    67.41    93.85   110.61   139.51
          (Kelvin)            157.79   250.91   287.08   302.94   369.83
                              381.35   416.93   455.51   537.49   586.42
                              629.59   707.35   818.41   884.91   943.78
                              973.03  1040.14  1115.20  1142.59  1214.40
                             1252.58  1301.71  1335.43  1342.77  1350.79
                             1359.71  1391.51  1489.61  1520.09  1533.74
                             1537.63  1568.89  1584.69  1622.94  1638.43
                             1712.34  1736.46  1780.66  1806.01  1890.27
                             1926.85  1929.19  1957.69  1990.14  1999.80
                             2038.68  2074.14  2122.87  2146.46  2178.55
                             2192.25  2194.53  2225.82  2488.52  2539.36
                             4359.17  4398.72  4426.06  4451.79  4483.43
                             4538.94  4540.68  4549.60  4553.24  4559.31
                             4560.91  4653.64  4661.17  4689.99  5099.74

 Zero-point correction=                           0.229520 (Hartree/Particle)
 Thermal correction to Energy=                    0.243381
 Thermal correction to Enthalpy=                  0.244325
 Thermal correction to Gibbs Free Energy=         0.187582
 Sum of electronic and zero-point Energies=           -879.909317
 Sum of electronic and thermal Energies=              -879.895456
 Sum of electronic and thermal Enthalpies=            -879.894512
 Sum of electronic and thermal Free Energies=         -879.951255

                     E (Thermal)             CV                S
                      KCal/Mol        Cal/Mol-Kelvin    Cal/Mol-Kelvin
 Total                  152.724             50.164            119.426
 Electronic               0.000              0.000              0.000
 Translational            0.889              2.981             41.553
 Rotational               0.889              2.981             31.311
 Vibrational            150.946             44.203             46.562
 Vibration     1          0.593              1.984              6.043
 Vibration     2          0.595              1.979              4.946
 Vibration     3          0.597              1.971              4.292
 Vibration     4          0.599              1.965              3.969
 Vibration     5          0.603              1.951              3.514
 Vibration     6          0.606              1.941              3.275
 Vibration     7          0.627              1.874              2.388
 Vibration     8          0.638              1.841              2.137
 Vibration     9          0.643              1.825              2.039
 Vibration    10          0.667              1.751              1.682
 Vibration    11          0.671              1.737              1.628
 Vibration    12          0.686              1.693              1.475
 Vibration    13          0.703              1.642              1.328
 Vibration    14          0.745              1.526              1.065
 Vibration    15          0.772              1.454              0.935
 Vibration    16          0.798              1.388              0.834
 Vibration    17          0.847              1.269              0.679
 Vibration    18          0.925              1.099              0.507
 Vibration    19          0.975              1.000              0.425

 Optimization completed.
    -- Stationary point found.
 Normal termination of Gaussian 16 at Wed Dec  9 18:08:48 2020.

 ----------------------------------------------------------------------
 # B3LYP/6-311++G(d,p) empiricaldispersion=gd3bj scf=xqc pop=npa geom=c
 heck
 ----------------------------------------------------------------------

 ---------------------------------------
 CID_143826494_JID_2765_Energie_neutraal
 ---------------------------------------
 Structure from the checkpoint file:  "JID_2765.chk"
 Charge =  0 Multiplicity = 1

 SCF Done:  E(RB3LYP) =  -880.308816124     A.U. after   15 cycles
 Normal termination of Gaussian 16 at Wed Dec  9 18:12:30 2020.

 ----------------------------------------------------------------------
 # B3LYP/6-311++G(d,p) empiricaldispersion=gd3bj scf=xqc pop=npa geom=c
 heck
 ----------------------------------------------------------------------

 -------------------------------------
 CID_143826494_JID_2765_Energie_kation
 -------------------------------------
 Structure from the checkpoint file:  "JID_2765.chk"
 Charge =  1 Multiplicity = 2

 SCF Done:  E(UB3LYP) =  -879.997103893     A.U. after   28 cycles
 Normal termination of Gaussian 16 at Wed Dec  9 18:21:30 2020.
 Gaussian 16:  ES64L-G16RevA.03 25-Dec-2016

 ----------------------------------------------------------------------
 # B3LYP/6-311++G(d,p) empiricaldispersion=gd3bj scf=xqc pop=npa geom=c
 heck
 ----------------------------------------------------------------------

 ------------------------------------
 CID_143826494_JID_2765_Energie_anion
 ------------------------------------
 Structure from the checkpoint file:  "JID_2765.chk"
 Charge = -1 Multiplicity = 2

                         Standard orientation:
 ---------------------------------------------------------------------
 Center     Atomic      Atomic             Coordinates (Angstroms)
 Number     Number       Type             X           Y           Z
 ---------------------------------------------------------------------
      1          6           0       -0.416765   -1.057075    1.808276
      2          6           0       -1.493379   -1.075504    0.718552
      3          6           0       -2.549743    0.055816    0.874083
      4          6           0       -2.023865    1.450480    0.687941
      5          6           0       -2.357916    2.247985   -0.327843
      6          6           0       -1.047904   -1.144158   -0.743029
      7          8           0       -1.697251   -1.812722   -1.537392
      8          7           0        0.044173   -0.444488   -1.238153
      9         16           0        0.969016    0.855523   -0.585371
     10          6           0        2.617924    0.145640   -0.529085
     11          6           0        3.534743    0.670288    0.556107
     12          6           0        3.069687   -0.759847    0.588274
     13          1           0        0.303559   -1.866974    1.654426
     14          1           0       -0.892064   -1.216135    2.783304
     15          1           0        0.131793   -0.115542    1.845595
     16          1           0       -2.050739   -2.011853    0.825672
     17          1           0       -3.353362   -0.132846    0.153791
     18          1           0       -2.983617   -0.045629    1.879083
     19          1           0       -1.319425    1.811754    1.435768
     20          1           0       -1.947138    3.248452   -0.430046
     21          1           0       -3.055201    1.924573   -1.097957
     22          1           0        0.071026   -0.522106   -2.251080
     23          1           0        3.066785   -0.013375   -1.506529
     24          1           0        4.561040    0.890596    0.278529
     25          1           0        3.112676    1.352674    1.288621
     26          1           0        2.344857   -1.038225    1.343878
     27          1           0        3.777661   -1.542279    0.329427
 ---------------------------------------------------------------------

 SCF Done:  E(UB3LYP) =  -880.294286770     A.U. after   33 cycles
 SCF Done:  E(UB3LYP) =  -880.294286770     a.u. after    1 cycles

 The electronic state is 2-A.
 Alpha  occ. eigenvalues --  -88.78051 -19.00203 -14.25822 -10.18617 -10.10928
 Alpha  occ. eigenvalues --  -10.09685 -10.08723 -10.08621 -10.08508 -10.08188
 Alpha  occ. eigenvalues --  -10.07580 -10.06697  -7.86401  -5.82973  -5.82387
 Alpha  occ. eigenvalues --   -5.81647  -0.95389  -0.82861  -0.77341  -0.72840
 Alpha  occ. eigenvalues --   -0.67480  -0.63616  -0.59500  -0.54901  -0.51237
 Alpha  occ. eigenvalues --   -0.49526  -0.48498  -0.45406  -0.41542  -0.39541
 Alpha  occ. eigenvalues --   -0.39065  -0.36940  -0.36196  -0.35392  -0.34458
 Alpha  occ. eigenvalues --   -0.32376  -0.31214  -0.29537  -0.28501  -0.28236
 Alpha  occ. eigenvalues --   -0.27426  -0.26562  -0.25293  -0.23885  -0.22317
 Alpha  occ. eigenvalues --   -0.21546  -0.18293  -0.17473  -0.16419  -0.14147
 Alpha  occ. eigenvalues --    0.04440
 Alpha virt. eigenvalues --    0.06085   0.06947   0.07595   0.08152   0.08273
 Alpha virt. eigenvalues --    0.09123   0.09321   0.09717   0.10240   0.10679
 Alpha virt. eigenvalues --    0.11081   0.12000   0.12395   0.12610   0.13428

  Beta  occ. eigenvalues --  -88.78044 -19.00197 -14.25812 -10.18610 -10.10911
  Beta  occ. eigenvalues --  -10.09679 -10.08709 -10.08606 -10.08466 -10.08165
  Beta  occ. eigenvalues --  -10.07574 -10.06666  -7.86393  -5.82964  -5.82380
  Beta  occ. eigenvalues --   -5.81640  -0.95373  -0.82836  -0.77309  -0.72812
  Beta  occ. eigenvalues --   -0.67455  -0.63582  -0.59458  -0.54858  -0.51139
  Beta  occ. eigenvalues --   -0.49466  -0.48459  -0.45373  -0.41499  -0.39514
  Beta  occ. eigenvalues --   -0.38972  -0.36908  -0.36161  -0.35356  -0.34431
  Beta  occ. eigenvalues --   -0.32340  -0.31186  -0.29494  -0.28468  -0.28202
  Beta  occ. eigenvalues --   -0.27385  -0.26526  -0.25268  -0.23857  -0.22276
  Beta  occ. eigenvalues --   -0.21503  -0.18272  -0.17447  -0.16400  -0.14117
  Beta virt. eigenvalues --    0.06749   0.07208   0.07513   0.07899   0.08485
  Beta virt. eigenvalues --    0.08693   0.09596   0.09667   0.10142   0.10719
  Beta virt. eigenvalues --    0.11041   0.11294   0.12484   0.12714   0.13036

 Mulliken charges and spin densities:
               1          2
     1  C    0.232846  -0.898978
     2  C   -0.633363   0.948579
     3  C    1.313380  -1.925297
     4  C   -0.719429   1.028224
     5  C   -0.109387  -0.407047
     6  C    0.005996  -0.191486
     7  O   -0.314497   0.010571
     8  N   -0.366290   0.112332
     9  S    1.498120  -1.477208
    10  C   -1.462981   1.261770
    11  C    1.448166  -1.939637
    12  C    0.314199  -0.461464
    13  H   -0.112843   0.260603
    14  H   -0.533431   0.702988
    15  H    0.438610  -0.261915
    16  H   -0.010685   0.249818
    17  H    0.178034  -0.004980
    18  H   -0.311712   0.475459
    19  H   -0.273879   0.463149
    20  H    0.025608   0.091398
    21  H    0.049145   0.076019
    22  H    0.327761   0.004783
    23  H   -0.685323   0.955762
    24  H   -0.590662   0.769892
    25  H   -0.414258   0.573923
    26  H    0.035548   0.088502
    27  H   -0.328673   0.494242
 Sum of Mulliken charges =  -1.00000   1.00000

 Dipole moment (field-independent basis, Debye):
    X=             -4.9156    Y=              0.8978    Z=             -2.4373  Tot=              5.5596
 Quadrupole moment (field-independent basis, Debye-Ang):
   XX=           -164.3230   YY=           -119.9750   ZZ=           -123.9166
   XY=             -6.4935   XZ=              6.8846   YZ=             -2.5696

 Summary of Natural Population Analysis:

                                       Natural Population
                Natural  -----------------------------------------------
    Atom  No    Charge         Core      Valence    Rydberg      Total
 -----------------------------------------------------------------------
      C    1   -0.29065      0.99964     2.28449    0.00652     3.29065
      C    2   -0.14534      0.99955     2.13441    0.01139     3.14534
      C    3   -0.20403      0.99959     2.19338    0.01106     3.20403
      C    4   -0.08517      0.99956     2.07500    0.01060     3.08517
      C    5   -0.19224      0.99955     2.18626    0.00643     3.19224
      C    6    0.35112      0.99962     1.62443    0.02483     2.64888
      O    7   -0.31982      0.99988     3.31429    0.00565     4.31982
      N    8   -0.39117      0.99965     2.88121    0.01030     3.89117
      S    9    0.21726      4.99954     2.75976    0.02344     7.78274
      C   10   -0.19648      0.99954     2.18202    0.01492     3.19648
      C   11   -0.19168      0.99960     2.18134    0.01073     3.19168
      C   12   -0.19618      0.99959     2.18577    0.01082     3.19618
      H   13    0.10072      0.00000     0.39788    0.00140     0.39928
      H   14    0.10292      0.00000     0.39537    0.00171     0.39708
      H   15    0.10532      0.00000     0.39267    0.00202     0.39468
      H   16    0.11170      0.00000     0.38656    0.00175     0.38830
      H   17    0.10323      0.00000     0.39559    0.00117     0.39677
      H   18    0.10751      0.00000     0.39088    0.00161     0.39249
      H   19    0.09790      0.00000     0.40054    0.00156     0.40210
      H   20    0.09448      0.00000     0.40452    0.00101     0.40552
      H   21    0.08918      0.00000     0.40970    0.00112     0.41082
      H   22    0.19396      0.00000     0.30353    0.00250     0.30604
      H   23    0.10750      0.00000     0.39012    0.00238     0.39250
      H   24    0.11048      0.00000     0.38543    0.00409     0.38952
      H   25    0.10575      0.00000     0.39270    0.00155     0.39425
      H   26    0.10672      0.00000     0.39191    0.00136     0.39328
      H   27    0.10700      0.00000     0.39137    0.00163     0.39300
 =======================================================================
   * Total *    0.00000     15.99530    33.83113    0.17357    50.00000

 Normal termination of Gaussian 16 at Wed Dec  9 18:32:26 2020.
