 Gaussian 16, Revision A.03,

 -----------------------------------------------------------
 # opt freq B3LYP/6-31G(d) empiricaldispersion=gd3bj scf=xqc
 -----------------------------------------------------------

 ------------------------------
 CID_76874393_JID_6168_neutraal
 ------------------------------
 Symbolic Z-matrix:
 Charge =  0 Multiplicity = 1

 SCF Done:  E(RB3LYP) =  -794.864467843     A.U. after   15 cycles
 SCF Done:  E(RB3LYP) =  -794.872261100     A.U. after   13 cycles
 SCF Done:  E(RB3LYP) =  -794.873331194     A.U. after   12 cycles
 SCF Done:  E(RB3LYP) =  -794.873684710     A.U. after   11 cycles
 SCF Done:  E(RB3LYP) =  -794.873776641     A.U. after   11 cycles
 SCF Done:  E(RB3LYP) =  -794.873798810     A.U. after   10 cycles
 SCF Done:  E(RB3LYP) =  -794.873804084     A.U. after   10 cycles
 SCF Done:  E(RB3LYP) =  -794.873808999     A.U. after    9 cycles
 SCF Done:  E(RB3LYP) =  -794.873810008     A.U. after    8 cycles
 SCF Done:  E(RB3LYP) =  -794.873810194     A.U. after    7 cycles
 SCF Done:  E(RB3LYP) =  -794.873810262     A.U. after    7 cycles
 Optimization completed.
    -- Stationary point found.
 Normal termination of Gaussian 16 at Mon Dec 14 13:11:09 2020.

 --------------------------------------------------------------------
 #N Geom=AllCheck Guess=TCheck SCRF=Check GenChk RB3LYP/6-31G(d) Freq
 --------------------------------------------------------------------

 Structure from the checkpoint file:  "JID_6168.chk"
 ------------------------------
 CID_76874393_JID_6168_neutraal
 ------------------------------
 Charge =  0 Multiplicity = 1

 SCF Done:  E(RB3LYP) =  -794.873810262     A.U. after    1 cycles

  Exact polarizability: 262.508  13.630 139.797   1.829  -0.461  62.025
 Approx polarizability: 353.578  39.265 229.243   3.236  -1.915  94.690

 ******    1 imaginary frequencies (negative Signs) ******

                      1                      2                      3
                      A                      A                      A
 Frequencies --    -23.0144                27.5160                41.2580
 Red. masses --      1.0931                 5.5099                 4.0359
 Frc consts  --      0.0003                 0.0025                 0.0040
 IR Inten    --      0.2384                 0.2728                 3.4743

                      4                      5                      6
                      A                      A                      A
 Frequencies --     60.2211                62.4044                99.5571
 Red. masses --      4.4632                 4.7856                 3.4904
 Frc consts  --      0.0095                 0.0110                 0.0204
 IR Inten    --      0.1401                 0.4130                 0.4673

                      7                      8                      9
                      A                      A                      A
 Frequencies --    125.9841               135.9654               153.2995
 Red. masses --      4.5234                 1.4118                 2.9445
 Frc consts  --      0.0423                 0.0154                 0.0408
 IR Inten    --      1.4589                 2.0218                 4.2626

                     10                     11                     12
                      A                      A                      A
 Frequencies --    198.0731               226.8918               229.1870
 Red. masses --      3.9870                 3.9269                 5.4635
 Frc consts  --      0.0922                 0.1191                 0.1691
 IR Inten    --      4.2299                10.3340                 0.6091

                     13                     14                     15
                      A                      A                      A
 Frequencies --    235.8714               294.5483               313.6185
 Red. masses --      4.8216                 3.6083                 5.6088
 Frc consts  --      0.1580                 0.1844                 0.3250
 IR Inten    --      1.8316                 7.9928                 1.9770

                     16                     17                     18
                      A                      A                      A
 Frequencies --    365.8249               395.4053               419.7429
 Red. masses --      4.3809                 5.1747                 1.1060
 Frc consts  --      0.3454                 0.4767                 0.1148
 IR Inten    --     16.4101                 2.0179               100.8394

                     19                     20                     21
                      A                      A                      A
 Frequencies --    449.6138               472.6817               534.2902
 Red. masses --      1.9734                 1.4112                 4.8400
 Frc consts  --      0.2350                 0.1858                 0.8141
 IR Inten    --     90.0354                69.4576                 8.2109

                     22                     23                     24
                      A                      A                      A
 Frequencies --    537.6808               557.3173               606.4341
 Red. masses --      5.1264                 5.7698                 2.3568
 Frc consts  --      0.8732                 1.0559                 0.5107
 IR Inten    --      6.3702                 5.7107               104.0125

                     25                     26                     27
                      A                      A                      A
 Frequencies --    639.4795               646.2013               696.3251
 Red. masses --      4.5687                 3.4209                 5.1968
 Frc consts  --      1.1008                 0.8416                 1.4846
 IR Inten    --      1.5845                93.0665                13.0810

                     28                     29                     30
                      A                      A                      A
 Frequencies --    723.0755               729.2016               767.8337
 Red. masses --      1.5102                 3.5690                 6.1108
 Frc consts  --      0.4652                 1.1181                 2.1227
 IR Inten    --    424.8873                78.6987                19.6552

                     31                     32                     33
                      A                      A                      A
 Frequencies --    800.3114               805.0730               832.4114
 Red. masses --      2.1836                 5.3385                 4.9564
 Frc consts  --      0.8240                 2.0386                 2.0234
 IR Inten    --    241.5204                28.8537                20.0080

                     34                     35                     36
                      A                      A                      A
 Frequencies --    847.6114               911.4552               969.8012
 Red. masses --      1.4107                 1.3213                 3.5616
 Frc consts  --      0.5972                 0.6467                 1.9736
 IR Inten    --     11.0680                10.6503                 4.4153

                     37                     38                     39
                      A                      A                      A
 Frequencies --    982.4860               999.3390              1023.7340
 Red. masses --      5.0799                 4.8355                 2.2641
 Frc consts  --      2.8891                 2.8452                 1.3980
 IR Inten    --     66.8839                 7.8689                27.4539

                     40                     41                     42
                      A                      A                      A
 Frequencies --   1062.3381              1068.9251              1123.8232
 Red. masses --      3.3863                 1.4659                 3.4569
 Frc consts  --      2.2516                 0.9868                 2.5723
 IR Inten    --     29.9078                 3.8542               167.7039

                     43                     44                     45
                      A                      A                      A
 Frequencies --   1140.0361              1164.5841              1186.3550
 Red. masses --      1.4053                 1.7635                 1.2734
 Frc consts  --      1.0761                 1.4092                 1.0559
 IR Inten    --     15.6210                59.8597                 0.8691

                     46                     47                     48
                      A                      A                      A
 Frequencies --   1213.9441              1221.6213              1261.8147
 Red. masses --      1.9705                 1.5417                 6.5679
 Frc consts  --      1.7109                 1.3556                 6.1612
 IR Inten    --     25.4625                25.1073               340.8575

                     49                     50                     51
                      A                      A                      A
 Frequencies --   1289.5028              1335.8920              1402.9392
 Red. masses --      5.8930                 6.8948                 1.3775
 Frc consts  --      5.7734                 7.2496                 1.5975
 IR Inten    --      7.3549                 9.0374               146.3018

                     52                     53                     54
                      A                      A                      A
 Frequencies --   1437.9788              1464.0523              1490.3661
 Red. masses --      1.2894                 2.4069                 3.0775
 Frc consts  --      1.5709                 3.0396                 4.0275
 IR Inten    --     21.2342                90.5806                72.0110

                     55                     56                     57
                      A                      A                      A
 Frequencies --   1499.7827              1500.3312              1511.7413
 Red. masses --      1.2040                 1.2996                 1.0483
 Frc consts  --      1.5956                 1.7236                 1.4116
 IR Inten    --     32.1195                54.0800                 5.0981

                     58                     59                     60
                      A                      A                      A
 Frequencies --   1514.9328              1526.8976              1561.2665
 Red. masses --      1.1379                 1.0536                 7.9029
 Frc consts  --      1.5386                 1.4473                11.3499
 IR Inten    --      3.4232                 5.7310                 9.4783

                     61                     62                     63
                      A                      A                      A
 Frequencies --   1603.2188              1627.3436              1660.9040
 Red. masses --      1.7486                 6.9009                 1.3582
 Frc consts  --      2.6480                10.7674                 2.2075
 IR Inten    --    226.1412                20.6606               229.0364

                     64                     65                     66
                      A                      A                      A
 Frequencies --   1681.9561              1716.3740              1805.6968
 Red. masses --      3.2245                 3.1106                11.8604
 Frc consts  --      5.3745                 5.3990                22.7845
 IR Inten    --     89.7027               729.1306               338.4587

                     67                     68                     69
                      A                      A                      A
 Frequencies --   3063.5869              3074.1498              3121.9981
 Red. masses --      1.0379                 1.0294                 1.0981
 Frc consts  --      5.7393                 5.7316                 6.3059
 IR Inten    --     14.2629                45.2186                 6.9997

                     70                     71                     72
                      A                      A                      A
 Frequencies --   3147.9209              3158.3105              3161.6607
 Red. masses --      1.1074                 1.1035                 1.0876
 Frc consts  --      6.4654                 6.4855                 6.4054
 IR Inten    --     21.7104                 7.6781                15.5283

                     73                     74                     75
                      A                      A                      A
 Frequencies --   3178.6861              3285.3248              3513.7009
 Red. masses --      1.1071                 1.0969                 1.0487
 Frc consts  --      6.5909                 6.9755                 7.6283
 IR Inten    --     17.7144                 4.1814                31.7279

                     76                     77                     78
                      A                      A                      A
 Frequencies --   3540.7079              3633.7191              3647.4626
 Red. masses --      1.0476                 1.0963                 1.0980
 Frc consts  --      7.7377                 8.5288                 8.6064
 IR Inten    --     13.2692                36.9114                12.4782

 - Thermochemistry -
 -------------------
 Temperature   298.150 Kelvin.  Pressure   1.00000 Atm.
 Atom     1 has atomic number  6 and mass  12.00000

 Molecular mass:   224.09094 amu.
 Principal axes and moments of inertia in atomic units:
                           1         2         3
     Eigenvalues --  1140.999028780.978709881.34511
           X            0.99998  -0.00590   0.00027
           Y            0.00590   0.99998   0.00236
           Z           -0.00028  -0.00235   1.00000
 This molecule is an asymmetric top.
 Rotational symmetry number  1.
 Warning -- assumption of classical behavior for rotation
           may cause significant error
 Rotational temperatures (Kelvin)      0.07591     0.00986     0.00877
 Rotational constants (GHZ):           1.58172     0.20553     0.18264
    1 imaginary frequencies ignored.
 Zero-point vibrational energy     577315.2 (Joules/Mol)
                                  137.98166 (Kcal/Mol)
 Warning -- explicit consideration of  23 degrees of freedom as
           vibrations may cause significant error
 Vibrational temperatures:     39.59    59.36    86.64    89.79   143.24
          (Kelvin)            181.26   195.62   220.56   284.98   326.45
                              329.75   339.37   423.79   451.23   526.34
                              568.90   603.92   646.89   680.08   768.72
                              773.60   801.86   872.52   920.07   929.74
                             1001.86  1040.34  1049.16  1104.74  1151.47
                             1158.32  1197.65  1219.52  1311.38  1395.33
                             1413.58  1437.83  1472.92  1528.47  1537.94
                             1616.93  1640.26  1675.58  1706.90  1746.59
                             1757.64  1815.47  1855.31  1922.05  2018.52
                             2068.93  2106.44  2144.30  2157.85  2158.64
                             2175.06  2179.65  2196.87  2246.31  2306.67
                             2341.38  2389.67  2419.96  2469.48  2597.99
                             4407.82  4423.02  4491.86  4529.16  4544.10
                             4548.92  4573.42  4726.85  5055.43  5094.29
                             5228.11  5247.89

 Zero-point correction=                           0.219888 (Hartree/Particle)
 Thermal correction to Energy=                    0.235387
 Thermal correction to Enthalpy=                  0.236331
 Thermal correction to Gibbs Free Energy=         0.175488
 Sum of electronic and zero-point Energies=           -794.653922
 Sum of electronic and thermal Energies=              -794.638423
 Sum of electronic and thermal Enthalpies=            -794.637479
 Sum of electronic and thermal Free Energies=         -794.698323

                     E (Thermal)             CV                S
                      KCal/Mol        Cal/Mol-Kelvin    Cal/Mol-Kelvin
 Total                  147.708             56.637            128.056
 Electronic               0.000              0.000              0.000
 Translational            0.889              2.981             42.123
 Rotational               0.889              2.981             32.959
 Vibrational            145.930             50.676             52.974
 Vibration     1          0.593              1.984              6.001
 Vibration     2          0.594              1.981              5.198
 Vibration     3          0.597              1.973              4.450
 Vibration     4          0.597              1.972              4.380
 Vibration     5          0.604              1.949              3.463
 Vibration     6          0.611              1.927              3.006
 Vibration     7          0.614              1.917              2.860
 Vibration     8          0.619              1.899              2.631
 Vibration     9          0.637              1.843              2.151
 Vibration    10          0.651              1.800              1.903
 Vibration    11          0.652              1.796              1.885
 Vibration    12          0.655              1.786              1.834
 Vibration    13          0.689              1.684              1.448
 Vibration    14          0.701              1.648              1.343
 Vibration    15          0.739              1.543              1.097
 Vibration    16          0.762              1.480              0.980
 Vibration    17          0.782              1.427              0.893
 Vibration    18          0.809              1.362              0.797
 Vibration    19          0.830              1.311              0.730
 Vibration    20          0.889              1.174              0.578
 Vibration    21          0.893              1.167              0.570
 Vibration    22          0.913              1.124              0.529
 Vibration    23          0.965              1.018              0.439

                           ! Non-Optimized Parameters !
 Normal termination of Gaussian 16 at Mon Dec 14 13:18:21 2020.

 ----------------------------------------------------------------------
 # B3LYP/6-311++G(d,p) empiricaldispersion=gd3bj scf=xqc pop=npa geom=c
 heck
 ----------------------------------------------------------------------

 --------------------------------------
 CID_76874393_JID_6168_Energie_neutraal
 --------------------------------------
 Structure from the checkpoint file:  "JID_6168.chk"
 Charge =  0 Multiplicity = 1

 SCF Done:  E(RB3LYP) =  -795.112810922     A.U. after   15 cycles
 Normal termination of Gaussian 16 at Mon Dec 14 13:21:42 2020.

 ----------------------------------------------------------------------
 # B3LYP/6-311++G(d,p) empiricaldispersion=gd3bj scf=xqc pop=npa geom=c
 heck
 ----------------------------------------------------------------------

 ------------------------------------
 CID_76874393_JID_6168_Energie_kation
 ------------------------------------
 Structure from the checkpoint file:  "JID_6168.chk"
 Charge =  1 Multiplicity = 2

 SCF Done:  E(UB3LYP) =  -794.846776864     A.U. after   23 cycles
 Normal termination of Gaussian 16 at Mon Dec 14 13:29:02 2020.
 Gaussian 16:  ES64L-G16RevA.03 25-Dec-2016

 ----------------------------------------------------------------------
 # B3LYP/6-311++G(d,p) empiricaldispersion=gd3bj scf=xqc pop=npa geom=c
 heck
 ----------------------------------------------------------------------

 -----------------------------------
 CID_76874393_JID_6168_Energie_anion
 -----------------------------------
 Structure from the checkpoint file:  "JID_6168.chk"
 Charge = -1 Multiplicity = 2

                         Standard orientation:
 ---------------------------------------------------------------------
 Center     Atomic      Atomic             Coordinates (Angstroms)
 Number     Number       Type             X           Y           Z
 ---------------------------------------------------------------------
      1          6           0       -1.385507    2.229367    0.023385
      2          6           0       -1.088379    0.772034   -0.003210
      3          6           0       -1.867951   -0.367305   -0.009498
      4          6           0       -0.966106   -1.474061   -0.031548
      5          6           0        0.302712   -0.954028   -0.037358
      6          8           0        0.218801    0.423790   -0.019359
      7          6           0        1.564047   -1.656552   -0.056626
      8          7           0        2.786874   -1.245162   -0.075259
      9          7           0        2.982920    0.124531   -0.098217
     10          6           0        4.253023    0.412218    0.010692
     11          7           0        5.253347   -0.482326    0.311925
     12          7           0        4.649379    1.722676   -0.176619
     13          6           0       -3.327334   -0.483936    0.004444
     14          8           0       -3.938028   -1.534965   -0.010712
     15          8           0       -3.938153    0.730187    0.038549
     16          6           0       -5.371369    0.683404    0.052464
     17          1           0       -1.862864    2.517309    0.966766
     18          1           0       -0.456417    2.792586   -0.091135
     19          1           0       -2.078053    2.500511   -0.778645
     20          1           0       -1.244853   -2.517582   -0.042744
     21          1           0        1.445185   -2.739616   -0.055627
     22          1           0        6.133893   -0.321498   -0.161457
     23          1           0        4.904876   -1.435651    0.243520
     24          1           0        3.851588    2.344924   -0.239243
     25          1           0        5.355988    2.049662    0.472694
     26          1           0       -5.749135    0.185591   -0.844571
     27          1           0       -5.730101    0.143234    0.932603
     28          1           0       -5.697526    1.723556    0.080729
 ---------------------------------------------------------------------

 SCF Done:  E(UB3LYP) =  -795.110740880     A.U. after   33 cycles
 SCF Done:  E(UB3LYP) =  -795.110740880     a.u. after    1 cycles

 The electronic state is 2-A.
 Alpha  occ. eigenvalues --  -19.06556 -19.04945 -18.99808 -14.20864 -14.20585
 Alpha  occ. eigenvalues --  -14.18098 -14.17278 -10.19111 -10.13458 -10.13431
 Alpha  occ. eigenvalues --  -10.10461 -10.09345 -10.06389 -10.05875 -10.05618
 Alpha  occ. eigenvalues --  -10.04300  -1.00237  -0.98252  -0.91164  -0.87748
 Alpha  occ. eigenvalues --   -0.81057  -0.76140  -0.69537  -0.68703  -0.65636
 Alpha  occ. eigenvalues --   -0.63412  -0.58311  -0.51675  -0.50232  -0.46679
 Alpha  occ. eigenvalues --   -0.46117  -0.44931  -0.42584  -0.41907  -0.38788
 Alpha  occ. eigenvalues --   -0.37671  -0.36581  -0.35884  -0.34620  -0.34087
 Alpha  occ. eigenvalues --   -0.33069  -0.31218  -0.30703  -0.29939  -0.29708
 Alpha  occ. eigenvalues --   -0.29166  -0.27561  -0.26905  -0.25915  -0.24470
 Alpha  occ. eigenvalues --   -0.23305  -0.21491  -0.20817  -0.17513  -0.16574
 Alpha  occ. eigenvalues --   -0.16427  -0.13321  -0.09581  -0.07636   0.04454
 Alpha virt. eigenvalues --    0.05945   0.06515   0.07996   0.08414   0.09010
 Alpha virt. eigenvalues --    0.09615   0.10123   0.10540   0.11159   0.12289
 Alpha virt. eigenvalues --    0.12713   0.13114   0.14206   0.14813   0.15086

  Beta  occ. eigenvalues --  -19.06561 -19.04725 -18.99804 -14.20861 -14.20515
  Beta  occ. eigenvalues --  -14.17787 -14.17372 -10.19093 -10.13418 -10.13265
  Beta  occ. eigenvalues --  -10.10092 -10.09329 -10.06412 -10.05721 -10.05708
  Beta  occ. eigenvalues --  -10.04189  -1.00235  -0.97864  -0.91163  -0.87533
  Beta  occ. eigenvalues --   -0.80758  -0.76071  -0.69383  -0.68446  -0.65393
  Beta  occ. eigenvalues --   -0.63313  -0.58139  -0.51543  -0.49884  -0.46399
  Beta  occ. eigenvalues --   -0.45942  -0.44857  -0.42413  -0.41814  -0.38769
  Beta  occ. eigenvalues --   -0.37629  -0.36414  -0.35795  -0.33995  -0.33797
  Beta  occ. eigenvalues --   -0.32918  -0.31012  -0.30543  -0.29888  -0.29417
  Beta  occ. eigenvalues --   -0.28784  -0.27287  -0.26773  -0.25871  -0.24295
  Beta  occ. eigenvalues --   -0.22686  -0.20884  -0.20811  -0.17504  -0.16386
  Beta  occ. eigenvalues --   -0.15820  -0.12580  -0.09412  -0.06694
  Beta virt. eigenvalues --    0.06146   0.07223   0.08371   0.08839   0.09021
  Beta virt. eigenvalues --    0.09583   0.09735   0.10114   0.10645   0.11350
  Beta virt. eigenvalues --    0.12270   0.12681   0.13110   0.14132   0.14698

 Mulliken charges and spin densities:
               1          2
     1  C   -0.128987  -0.353126
     2  C    0.063816   0.408383
     3  C    0.431941  -0.228892
     4  C   -0.114581   0.069472
     5  C    0.178445   0.044310
     6  O    0.059885   0.048682
     7  C   -1.000819   0.147271
     8  N   -0.179389   0.100446
     9  N   -0.207636  -0.071122
    10  C    0.380757  -0.271368
    11  N   -0.397900   0.010977
    12  N   -0.374891   0.053900
    13  C   -0.299600   0.091782
    14  O   -0.314243   0.002272
    15  O   -0.138584   0.014470
    16  C    0.014211  -0.273559
    17  H    0.019627   0.159201
    18  H    0.135509   0.022436
    19  H    0.139061   0.029754
    20  H    0.157186   0.000938
    21  H    0.130088  -0.006509
    22  H    0.177279   0.046879
    23  H    0.260413  -0.002243
    24  H    0.172000   0.071473
    25  H   -0.298055   0.546369
    26  H    0.100460   0.069670
    27  H    0.084442   0.087461
    28  H   -0.050434   0.180673
 Sum of Mulliken charges =  -1.00000   1.00000

 Dipole moment (field-independent basis, Debye):
    X=             -3.7880    Y=             -0.0229    Z=             -1.1685  Tot=              3.9642
 Quadrupole moment (field-independent basis, Debye-Ang):
   XX=           -165.8265   YY=           -116.5328   ZZ=           -107.5303
   XY=            -17.1936   XZ=             -4.3619   YZ=             -2.5921

 Summary of Natural Population Analysis:

                                       Natural Population
                Natural  -----------------------------------------------
    Atom  No    Charge         Core      Valence    Rydberg      Total
 -----------------------------------------------------------------------
      C    1   -0.31213      0.99963     2.30790    0.00460     3.31213
      C    2    0.26083      0.99947     1.72675    0.01295     2.73917
      C    3   -0.15843      0.99940     2.14962    0.00940     3.15843
      C    4   -0.09918      0.99950     2.09202    0.00767     3.09918
      C    5    0.11742      0.99942     1.87092    0.01224     2.88258
      O    6   -0.20130      0.99985     3.19417    0.00729     4.20130
      C    7    0.03717      0.99961     1.94654    0.01668     2.96283
      N    8   -0.13946      0.99967     2.62292    0.01687     3.63946
      N    9   -0.24014      0.99964     2.72608    0.01441     3.74014
      C   10    0.32426      0.99969     1.65706    0.01899     2.67574
      N   11   -0.42024      0.99970     2.91013    0.01041     3.92024
      N   12   -0.40626      0.99971     2.89640    0.01015     3.90626
      C   13    0.39856      0.99961     1.57811    0.02371     2.60144
      O   14   -0.32080      0.99987     3.31556    0.00537     4.32080
      O   15   -0.28317      0.99987     3.27528    0.00802     4.28317
      C   16   -0.10431      0.99960     2.09616    0.00854     3.10431
      H   17    0.10968      0.00000     0.38845    0.00187     0.39032
      H   18    0.10810      0.00000     0.39066    0.00124     0.39190
      H   19    0.10853      0.00000     0.39015    0.00132     0.39147
      H   20    0.10700      0.00000     0.39214    0.00086     0.39300
      H   21    0.08336      0.00000     0.41555    0.00109     0.41664
      H   22    0.18316      0.00000     0.31515    0.00169     0.31684
      H   23    0.20339      0.00000     0.29438    0.00223     0.29661
      H   24    0.19183      0.00000     0.30535    0.00281     0.30817
      H   25    0.18681      0.00000     0.30654    0.00665     0.31319
      H   26    0.08825      0.00000     0.41021    0.00154     0.41175
      H   27    0.08911      0.00000     0.40931    0.00158     0.41089
      H   28    0.08795      0.00000     0.41085    0.00120     0.41205
 =======================================================================
   * Total *   -0.00000     15.99426    42.79436    0.21139    59.00000

 Normal termination of Gaussian 16 at Mon Dec 14 13:39:42 2020.
