 Gaussian 16, Revision A.03,

 -----------------------------------------------------------
 # opt freq B3LYP/6-31G(d) empiricaldispersion=gd3bj scf=xqc
 -----------------------------------------------------------

 -------------------------------
 CID_117185778_JID_6248_neutraal
 -------------------------------
 Symbolic Z-matrix:
 Charge =  0 Multiplicity = 1

 SCF Done:  E(RB3LYP) =  -997.959111469     A.U. after   15 cycles
 SCF Done:  E(RB3LYP) =  -997.962845016     A.U. after   12 cycles
 SCF Done:  E(RB3LYP) =  -997.963269074     A.U. after   11 cycles
 SCF Done:  E(RB3LYP) =  -997.963407737     A.U. after   11 cycles
 SCF Done:  E(RB3LYP) =  -997.963499008     A.U. after   11 cycles
 SCF Done:  E(RB3LYP) =  -997.963564819     A.U. after   11 cycles
 SCF Done:  E(RB3LYP) =  -997.963630140     A.U. after   11 cycles
 SCF Done:  E(RB3LYP) =  -997.963695476     A.U. after   10 cycles
 SCF Done:  E(RB3LYP) =  -997.963719621     A.U. after   11 cycles
 SCF Done:  E(RB3LYP) =  -997.963719298     A.U. after    9 cycles
 SCF Done:  E(RB3LYP) =  -997.963959280     A.U. after    8 cycles
 SCF Done:  E(RB3LYP) =  -997.963959932     A.U. after    8 cycles
 SCF Done:  E(RB3LYP) =  -997.963960002     A.U. after    6 cycles
 SCF Done:  E(RB3LYP) =  -997.963960026     A.U. after    6 cycles
 SCF Done:  E(RB3LYP) =  -997.963960034     A.U. after    6 cycles
 Optimization completed.
    -- Stationary point found.
 Normal termination of Gaussian 16 at Thu Dec 10 21:57:07 2020.

 --------------------------------------------------------------------
 #N Geom=AllCheck Guess=TCheck SCRF=Check GenChk RB3LYP/6-31G(d) Freq
 --------------------------------------------------------------------

 Structure from the checkpoint file:  "JID_6248.chk"
 -------------------------------
 CID_117185778_JID_6248_neutraal
 -------------------------------
 Charge =  0 Multiplicity = 1

 SCF Done:  E(RB3LYP) =  -997.963960034     A.U. after    1 cycles

  Exact polarizability: 202.250  -9.652 197.220   9.472  -3.281 112.567
 Approx polarizability: 289.269 -17.000 319.784  24.811  -5.225 170.424

                      1                      2                      3
                      A                      A                      A
 Frequencies --     29.2412                48.6158                60.7439
 Red. masses --      3.3347                 3.9538                 3.4597
 Frc consts  --      0.0017                 0.0055                 0.0075
 IR Inten    --      0.5818                 0.0216                 1.5284

                      4                      5                      6
                      A                      A                      A
 Frequencies --     62.9415                87.0912                90.3150
 Red. masses --      1.0762                 3.0667                 3.3000
 Frc consts  --      0.0025                 0.0137                 0.0159
 IR Inten    --      0.2666                 1.1656                 0.4797

                      7                      8                      9
                      A                      A                      A
 Frequencies --    135.8214               154.0211               175.9628
 Red. masses --      3.9904                 3.1131                 1.2419
 Frc consts  --      0.0434                 0.0435                 0.0227
 IR Inten    --      1.1710                 0.2793                 0.1040

                     10                     11                     12
                      A                      A                      A
 Frequencies --    199.1890               210.0027               224.7361
 Red. masses --      1.6680                 1.4438                 1.6993
 Frc consts  --      0.0390                 0.0375                 0.0506
 IR Inten    --      0.6760                 2.7325                 2.0793

                     13                     14                     15
                      A                      A                      A
 Frequencies --    234.3459               264.6657               288.9159
 Red. masses --      1.4571                 2.7279                 2.5169
 Frc consts  --      0.0471                 0.1126                 0.1238
 IR Inten    --      0.9104                 0.8627                 0.3470

                     16                     17                     18
                      A                      A                      A
 Frequencies --    301.9525               329.7218               362.9087
 Red. masses --      3.6518                 3.5375                 2.7773
 Frc consts  --      0.1962                 0.2266                 0.2155
 IR Inten    --      0.4479                 0.7609                 0.7858

                     19                     20                     21
                      A                      A                      A
 Frequencies --    436.7218               442.4479               450.0193
 Red. masses --      2.7981                 3.1400                 3.9273
 Frc consts  --      0.3144                 0.3622                 0.4686
 IR Inten    --      0.7249                 4.2106                 0.2086

                     22                     23                     24
                      A                      A                      A
 Frequencies --    490.6220               525.6549               589.1643
 Red. masses --      4.9507                 3.7946                 4.1451
 Frc consts  --      0.7021                 0.6178                 0.8477
 IR Inten    --      0.6105                 0.8156                 5.7098

                     25                     26                     27
                      A                      A                      A
 Frequencies --    615.9292               621.2576               663.8065
 Red. masses --      3.4440                 4.1056                 3.4710
 Frc consts  --      0.7698                 0.9336                 0.9011
 IR Inten    --      8.5562                 5.4835                 2.7103

                     28                     29                     30
                      A                      A                      A
 Frequencies --    681.9282               705.5470               729.2183
 Red. masses --      3.7304                 4.2603                 5.8875
 Frc consts  --      1.0221                 1.2495                 1.8446
 IR Inten    --     14.2362                11.6934                 6.7112

                     31                     32                     33
                      A                      A                      A
 Frequencies --    777.1818               791.5954               798.9718
 Red. masses --      3.1709                 3.0997                 1.8305
 Frc consts  --      1.1284                 1.1444                 0.6885
 IR Inten    --      0.3760                 5.2428                16.5551

                     34                     35                     36
                      A                      A                      A
 Frequencies --    823.0012               865.7495               867.4973
 Red. masses --      1.6912                 2.7358                 1.3841
 Frc consts  --      0.6749                 1.2082                 0.6137
 IR Inten    --     18.0669                 3.5104                 4.1878

                     37                     38                     39
                      A                      A                      A
 Frequencies --    892.8015               928.7880               943.8697
 Red. masses --      1.7139                 2.7950                 1.2642
 Frc consts  --      0.8049                 1.4206                 0.6636
 IR Inten    --      1.9878                 2.0448                 0.0960

                     40                     41                     42
                      A                      A                      A
 Frequencies --    944.8539               961.7660               989.5694
 Red. masses --      1.2423                 1.3896                 1.1917
 Frc consts  --      0.6535                 0.7573                 0.6875
 IR Inten    --      0.4847                 0.0406                 5.8119

                     43                     44                     45
                      A                      A                      A
 Frequencies --   1009.5211              1014.9594              1044.6753
 Red. masses --      1.7637                 1.5707                 1.8204
 Frc consts  --      1.0590                 0.9533                 1.1705
 IR Inten    --      7.7861                 6.2836                10.6558

                     46                     47                     48
                      A                      A                      A
 Frequencies --   1073.9708              1099.4188              1159.3757
 Red. masses --      1.4858                 2.5884                 1.9080
 Frc consts  --      1.0097                 1.8434                 1.5111
 IR Inten    --      3.6552                26.9404                18.2283

                     49                     50                     51
                      A                      A                      A
 Frequencies --   1160.4387              1173.9793              1188.7143
 Red. masses --      2.1654                 1.2985                 1.4065
 Frc consts  --      1.7180                 1.0544                 1.1709
 IR Inten    --      9.7905                 7.9497                21.2922

                     52                     53                     54
                      A                      A                      A
 Frequencies --   1199.4813              1229.2085              1247.1966
 Red. masses --      1.4802                 2.0131                 2.0796
 Frc consts  --      1.2547                 1.7921                 1.9059
 IR Inten    --      2.6066                44.5521                 3.7160

                     55                     56                     57
                      A                      A                      A
 Frequencies --   1276.9798              1295.9090              1331.0308
 Red. masses --      1.7979                 1.4945                 1.7759
 Frc consts  --      1.7273                 1.4787                 1.8537
 IR Inten    --     23.4993                13.1114                 7.0487

                     58                     59                     60
                      A                      A                      A
 Frequencies --   1368.6666              1379.1810              1386.9051
 Red. masses --      1.3541                 4.5779                 1.1834
 Frc consts  --      1.4945                 5.1305                 1.3411
 IR Inten    --      4.3363                16.1582                 5.5350

                     61                     62                     63
                      A                      A                      A
 Frequencies --   1400.1223              1409.8245              1431.1052
 Red. masses --      2.8167                 3.7759                 1.2526
 Frc consts  --      3.2533                 4.4218                 1.5115
 IR Inten    --     52.5661                22.1220                 9.2946

                     64                     65                     66
                      A                      A                      A
 Frequencies --   1442.1840              1443.3596              1451.9914
 Red. masses --      1.4992                 1.4225                 1.3427
 Frc consts  --      1.8371                 1.7460                 1.6678
 IR Inten    --     13.4804                 8.0017                35.7358

                     67                     68                     69
                      A                      A                      A
 Frequencies --   1494.9674              1500.3366              1503.5145
 Red. masses --      1.0740                 1.6052                 1.4467
 Frc consts  --      1.4142                 2.1289                 1.9269
 IR Inten    --      1.0401                10.7864                22.2795

                     70                     71                     72
                      A                      A                      A
 Frequencies --   1513.1614              1513.6016              1515.7237
 Red. masses --      1.0599                 1.0450                 1.0453
 Frc consts  --      1.4298                 1.4106                 1.4149
 IR Inten    --     17.6216                 7.0473                 0.1612

                     73                     74                     75
                      A                      A                      A
 Frequencies --   1519.5410              1520.0877              1528.4239
 Red. masses --      1.4935                 1.0509                 1.0570
 Frc consts  --      2.0318                 1.4307                 1.4549
 IR Inten    --     36.7996                 0.5056                 9.8820

                     76                     77                     78
                      A                      A                      A
 Frequencies --   1539.5605              1547.1287              1603.6095
 Red. masses --      1.0769                 2.1273                 5.4046
 Frc consts  --      1.5039                 3.0001                 8.1886
 IR Inten    --      3.4882                 2.6121                33.6663

                     79                     80                     81
                      A                      A                      A
 Frequencies --   1620.5739              1680.0388              3038.9842
 Red. masses --      6.1923                 6.3619                 1.0373
 Frc consts  --      9.5816                10.5798                 5.6441
 IR Inten    --      1.4599                13.0618                49.6399

                     82                     83                     84
                      A                      A                      A
 Frequencies --   3061.3428              3062.1205              3065.9814
 Red. masses --      1.0315                 1.0360                 1.0527
 Frc consts  --      5.6957                 5.7237                 5.8302
 IR Inten    --     19.7626                18.1949                15.3713

                     85                     86                     87
                      A                      A                      A
 Frequencies --   3068.2951              3069.1565              3088.9820
 Red. masses --      1.0680                 1.0587                 1.1009
 Frc consts  --      5.9243                 5.8759                 6.1892
 IR Inten    --     21.7454                24.7513                22.9895

                     88                     89                     90
                      A                      A                      A
 Frequencies --   3116.9299              3120.3879              3130.7366
 Red. masses --      1.1063                 1.1007                 1.1021
 Frc consts  --      6.3326                 6.3145                 6.3643
 IR Inten    --      8.8922                19.0836                 8.3190

                     91                     92                     93
                      A                      A                      A
 Frequencies --   3134.5069              3142.7929              3145.0224
 Red. masses --      1.1027                 1.1050                 1.1025
 Frc consts  --      6.3831                 6.4302                 6.4248
 IR Inten    --     48.9449                10.0167                 5.2248

                     94                     95                     96
                      A                      A                      A
 Frequencies --   3148.7519              3159.8417              3175.2226
 Red. masses --      1.1012                 1.1054                 1.0864
 Frc consts  --      6.4326                 6.5028                 6.4533
 IR Inten    --     37.7058                 9.1786                12.3121

                     97                     98                     99
                      A                      A                      A
 Frequencies --   3194.6249              3211.5401              3257.8567
 Red. masses --      1.0942                 1.0896                 1.0962
 Frc consts  --      6.5793                 6.6212                 6.8548
 IR Inten    --     30.3808                16.3007                 0.8489

 - Thermochemistry -
 -------------------
 Temperature   298.150 Kelvin.  Pressure   1.00000 Atm.
 Atom     1 has atomic number  6 and mass  12.00000

 Molecular mass:   233.12382 amu.
 Principal axes and moments of inertia in atomic units:
                           1         2         3
     Eigenvalues --  3046.245935134.692247197.73053
           X            0.99962   0.02743   0.00405
           Y           -0.02742   0.99962  -0.00361
           Z           -0.00414   0.00350   0.99999
 This molecule is an asymmetric top.
 Rotational symmetry number  1.
 Warning -- assumption of classical behavior for rotation
           may cause significant error
 Rotational temperatures (Kelvin)      0.02843     0.01687     0.01203
 Rotational constants (GHZ):           0.59245     0.35148     0.25074
 Zero-point vibrational energy     789599.3 (Joules/Mol)
                                  188.71877 (Kcal/Mol)
 Warning -- explicit consideration of  25 degrees of freedom as
           vibrations may cause significant error
 Vibrational temperatures:     42.07    69.95    87.40    90.56   125.30
          (Kelvin)            129.94   195.42   221.60   253.17   286.59
                              302.15   323.35   337.17   380.79   415.69
                              434.44   474.40   522.14   628.35   636.58
                              647.48   705.90   756.30   847.68   886.18
                              893.85   955.07   981.14  1015.12  1049.18
                             1118.19  1138.93  1149.54  1184.12  1245.62
                             1248.14  1284.54  1336.32  1358.02  1359.43
                             1383.77  1423.77  1452.48  1460.30  1503.05
                             1545.20  1581.82  1668.08  1669.61  1689.09
                             1710.29  1725.79  1768.56  1794.44  1837.29
                             1864.52  1915.06  1969.21  1984.33  1995.45
                             2014.46  2028.42  2059.04  2074.98  2076.67
                             2089.09  2150.92  2158.65  2163.22  2177.10
                             2177.74  2180.79  2186.28  2187.07  2199.06
                             2215.08  2225.97  2307.24  2331.64  2417.20
                             4372.42  4404.59  4405.71  4411.26  4414.59
                             4415.83  4444.36  4484.57  4489.54  4504.43
                             4509.86  4521.78  4524.99  4530.35  4546.31
                             4568.44  4596.35  4620.69  4687.33

 Zero-point correction=                           0.300743 (Hartree/Particle)
 Thermal correction to Energy=                    0.317837
 Thermal correction to Enthalpy=                  0.318782
 Thermal correction to Gibbs Free Energy=         0.255034
 Sum of electronic and zero-point Energies=           -997.663218
 Sum of electronic and thermal Energies=              -997.646123
 Sum of electronic and thermal Enthalpies=            -997.645178
 Sum of electronic and thermal Free Energies=         -997.708926

                     E (Thermal)             CV                S
                      KCal/Mol        Cal/Mol-Kelvin    Cal/Mol-Kelvin
 Total                  199.446             63.753            134.167
 Electronic               0.000              0.000              0.000
 Translational            0.889              2.981             42.241
 Rotational               0.889              2.981             33.087
 Vibrational            197.669             57.792             58.839
 Vibration     1          0.593              1.984              5.880
 Vibration     2          0.595              1.978              4.873
 Vibration     3          0.597              1.973              4.433
 Vibration     4          0.597              1.972              4.363
 Vibration     5          0.601              1.958              3.724
 Vibration     6          0.602              1.956              3.653
 Vibration     7          0.614              1.918              2.862
 Vibration     8          0.620              1.898              2.622
 Vibration     9          0.628              1.872              2.371
 Vibration    10          0.637              1.841              2.141
 Vibration    11          0.642              1.826              2.044
 Vibration    12          0.649              1.803              1.921
 Vibration    13          0.654              1.788              1.845
 Vibration    14          0.671              1.738              1.631
 Vibration    15          0.685              1.694              1.480
 Vibration    16          0.694              1.670              1.406
 Vibration    17          0.713              1.616              1.261
 Vibration    18          0.737              1.549              1.110
 Vibration    19          0.797              1.390              0.837
 Vibration    20          0.802              1.378              0.819
 Vibration    21          0.809              1.361              0.796
 Vibration    22          0.846              1.271              0.682
 Vibration    23          0.881              1.193              0.597
 Vibration    24          0.946              1.055              0.469
 Vibration    25          0.976              0.998              0.423

 Optimization completed.
    -- Stationary point found.
 Normal termination of Gaussian 16 at Thu Dec 10 22:09:09 2020.

 ----------------------------------------------------------------------
 # B3LYP/6-311++G(d,p) empiricaldispersion=gd3bj scf=xqc pop=npa geom=c
 heck
 ----------------------------------------------------------------------

 ---------------------------------------
 CID_117185778_JID_6248_Energie_neutraal
 ---------------------------------------
 Structure from the checkpoint file:  "JID_6248.chk"
 Charge =  0 Multiplicity = 1

 SCF Done:  E(RB3LYP) =  -998.144604773     A.U. after   15 cycles
 Normal termination of Gaussian 16 at Thu Dec 10 22:14:32 2020.

 ----------------------------------------------------------------------
 # B3LYP/6-311++G(d,p) empiricaldispersion=gd3bj scf=xqc pop=npa geom=c
 heck
 ----------------------------------------------------------------------

 -------------------------------------
 CID_117185778_JID_6248_Energie_kation
 -------------------------------------
 Structure from the checkpoint file:  "JID_6248.chk"
 Charge =  1 Multiplicity = 2

 SCF Done:  E(UB3LYP) =  -997.887852360     A.U. after   25 cycles
 Normal termination of Gaussian 16 at Thu Dec 10 22:26:22 2020.
 Gaussian 16:  ES64L-G16RevA.03 25-Dec-2016

 ----------------------------------------------------------------------
 # B3LYP/6-311++G(d,p) empiricaldispersion=gd3bj scf=xqc pop=npa geom=c
 heck
 ----------------------------------------------------------------------

 ------------------------------------
 CID_117185778_JID_6248_Energie_anion
 ------------------------------------
 Structure from the checkpoint file:  "JID_6248.chk"
 Charge = -1 Multiplicity = 2

                         Standard orientation:
 ---------------------------------------------------------------------
 Center     Atomic      Atomic             Coordinates (Angstroms)
 Number     Number       Type             X           Y           Z
 ---------------------------------------------------------------------
      1          6           0        3.210753   -2.994138    0.356301
      2          6           0        1.999067   -2.146232    0.051533
      3          6           0        2.071029   -0.757979    0.120774
      4          6           0        0.924139   -0.004354   -0.167269
      5          6           0       -0.303687   -0.628960   -0.527348
      6          6           0       -0.357562   -2.031243   -0.594906
      7          6           0        0.779771   -2.768256   -0.307941
      8          6           0       -1.267757    0.416170   -0.757120
      9          6           0       -0.607914    1.598788   -0.528845
     10          7           0        0.710099    1.366581   -0.175236
     11          6           0        1.671684    2.429093    0.130103
     12          6           0        2.143126    2.358398    1.587257
     13          6           0        2.829076    2.448781   -0.875148
     14          6           0       -2.702429    0.238610   -1.122615
     15         16           0       -3.894133    0.372090    0.293343
     16          6           0       -3.201277   -0.894264    1.408303
     17          1           0        4.076954   -2.376519    0.614210
     18          1           0        3.489480   -3.617965   -0.502303
     19          1           0        3.023209   -3.673574    1.197336
     20          1           0        3.006916   -0.284382    0.395848
     21          1           0       -1.281970   -2.533067   -0.868179
     22          1           0        0.741921   -3.853754   -0.358089
     23          1           0       -0.980502    2.613063   -0.578366
     24          1           0        1.105859    3.359024    0.006791
     25          1           0        2.714373    1.446790    1.782740
     26          1           0        2.784393    3.216347    1.816058
     27          1           0        1.285587    2.373302    2.266758
     28          1           0        2.445929    2.523035   -1.897432
     29          1           0        3.478076    3.309813   -0.682579
     30          1           0        3.438528    1.543551   -0.807215
     31          1           0       -3.040019    1.012932   -1.818373
     32          1           0       -2.858477   -0.727997   -1.612060
     33          1           0       -3.253338   -1.891434    0.960748
     34          1           0       -2.163644   -0.662839    1.660055
     35          1           0       -3.805959   -0.882313    2.318751
 ---------------------------------------------------------------------

 SCF Done:  E(UB3LYP) =  -998.132323570     A.U. after   33 cycles
 SCF Done:  E(UB3LYP) =  -998.132323570     a.u. after    1 cycles

 The electronic state is 2-A.
 Alpha  occ. eigenvalues --  -88.74897 -14.26370 -10.12494 -10.11655 -10.10965
 Alpha  occ. eigenvalues --  -10.10670 -10.10426 -10.08586 -10.08038 -10.07710
 Alpha  occ. eigenvalues --  -10.07703 -10.07597 -10.07497 -10.07265 -10.06745
 Alpha  occ. eigenvalues --  -10.06536  -7.83492  -5.79895  -5.79539  -5.78837
 Alpha  occ. eigenvalues --   -0.89336  -0.76102  -0.73515  -0.70775  -0.67422
 Alpha  occ. eigenvalues --   -0.65911  -0.64387  -0.60924  -0.59818  -0.58362
 Alpha  occ. eigenvalues --   -0.54188  -0.52369  -0.50188  -0.46924  -0.46455
 Alpha  occ. eigenvalues --   -0.41745  -0.39618  -0.37643  -0.36916  -0.35983
 Alpha  occ. eigenvalues --   -0.35359  -0.34707  -0.34520  -0.34110  -0.33268
 Alpha  occ. eigenvalues --   -0.32767  -0.31768  -0.30519  -0.29732  -0.29251
 Alpha  occ. eigenvalues --   -0.28759  -0.28227  -0.27770  -0.26978  -0.26001
 Alpha  occ. eigenvalues --   -0.25257  -0.23972  -0.23138  -0.22496  -0.17956
 Alpha  occ. eigenvalues --   -0.13889  -0.13006  -0.10823   0.04147
 Alpha virt. eigenvalues --    0.05991   0.06311   0.06554   0.07341   0.07945
 Alpha virt. eigenvalues --    0.08131   0.08586   0.09057   0.09545   0.09759
 Alpha virt. eigenvalues --    0.10044   0.10403   0.10901   0.11552   0.11848

  Beta  occ. eigenvalues --  -88.74895 -14.26371 -10.12475 -10.11649 -10.10963
  Beta  occ. eigenvalues --  -10.10650 -10.10416 -10.08585 -10.08025 -10.07710
  Beta  occ. eigenvalues --  -10.07683 -10.07596 -10.07473 -10.07255 -10.06710
  Beta  occ. eigenvalues --  -10.06494  -7.83491  -5.79894  -5.79538  -5.78836
  Beta  occ. eigenvalues --   -0.89322  -0.76085  -0.73495  -0.70754  -0.67395
  Beta  occ. eigenvalues --   -0.65889  -0.64363  -0.60899  -0.59743  -0.58320
  Beta  occ. eigenvalues --   -0.54143  -0.52347  -0.50141  -0.46892  -0.46421
  Beta  occ. eigenvalues --   -0.41708  -0.39593  -0.37608  -0.36879  -0.35947
  Beta  occ. eigenvalues --   -0.35321  -0.34684  -0.34496  -0.34083  -0.33245
  Beta  occ. eigenvalues --   -0.32739  -0.31749  -0.30486  -0.29703  -0.29214
  Beta  occ. eigenvalues --   -0.28733  -0.28190  -0.27745  -0.26949  -0.25961
  Beta  occ. eigenvalues --   -0.25218  -0.23937  -0.23111  -0.22469  -0.17922
  Beta  occ. eigenvalues --   -0.13881  -0.12980  -0.10784
  Beta virt. eigenvalues --    0.05979   0.06557   0.06783   0.07111   0.07414
  Beta virt. eigenvalues --    0.08281   0.08737   0.09035   0.09207   0.09795
  Beta virt. eigenvalues --    0.10185   0.10358   0.10609   0.11055   0.11645

 Mulliken charges and spin densities:
               1          2
     1  C    2.234493  -2.621926
     2  C    0.145618   0.456015
     3  C   -0.040799  -0.427924
     4  C   -0.567972   0.157443
     5  C    1.076773  -0.662691
     6  C   -0.158139  -0.274200
     7  C   -1.720003   0.960265
     8  C    1.486356  -0.789789
     9  C   -1.584389   1.433411
    10  N    0.499651  -0.087014
    11  C   -2.407576   2.369928
    12  C    1.453905  -1.920648
    13  C    1.665812  -2.137656
    14  C    0.012854  -0.853119
    15  S    0.041480   0.045897
    16  C   -0.570222  -0.180572
    17  H   -0.464311   0.627077
    18  H    0.005192   0.144959
    19  H    0.017830   0.131516
    20  H    0.642102  -0.564653
    21  H    0.025942   0.083337
    22  H   -0.234727   0.385920
    23  H   -0.301436   0.479509
    24  H   -0.860126   1.024956
    25  H   -0.407886   0.539567
    26  H   -0.469924   0.634975
    27  H    0.037634   0.113583
    28  H   -0.076864   0.234991
    29  H   -0.519185   0.686589
    30  H   -0.456857   0.587223
    31  H    0.075121   0.139528
    32  H    0.097864   0.095043
    33  H    0.113256   0.059677
    34  H    0.163247   0.026230
    35  H    0.045285   0.102553
 Sum of Mulliken charges =  -1.00000   1.00000

 Dipole moment (field-independent basis, Debye):
    X=             -6.2524    Y=             -5.3070    Z=             -0.4379  Tot=              8.2127
 Quadrupole moment (field-independent basis, Debye-Ang):
   XX=           -183.7527   YY=           -177.5791   ZZ=           -137.7923
   XY=             -9.5295   XZ=             -2.0005   YZ=             -1.4314

 Summary of Natural Population Analysis:

                                       Natural Population
                Natural  -----------------------------------------------
    Atom  No    Charge         Core      Valence    Rydberg      Total
 -----------------------------------------------------------------------
      C    1   -0.28912      0.99964     2.28448    0.00500     3.28912
      C    2   -0.02113      0.99953     2.01118    0.01042     3.02113
      C    3   -0.11556      0.99947     2.10771    0.00837     3.11556
      C    4    0.08877      0.99947     1.90046    0.01129     2.91123
      C    5   -0.04590      0.99947     2.03635    0.01007     3.04590
      C    6   -0.09273      0.99953     2.08497    0.00823     3.09273
      C    7   -0.11240      0.99952     2.10357    0.00931     3.11240
      C    8   -0.07626      0.99948     2.06449    0.01229     3.07626
      C    9    0.02184      0.99948     1.96677    0.01191     2.97816
      N   10   -0.20702      0.99962     2.69572    0.01168     3.70702
      C   11   -0.00225      0.99960     1.98995    0.01269     3.00225
      C   12   -0.28661      0.99964     2.28121    0.00576     3.28661
      C   13   -0.28672      0.99964     2.28116    0.00592     3.28672
      C   14   -0.24482      0.99954     2.23576    0.00952     3.24482
      S   15    0.07482      4.99966     2.90610    0.01941     7.92518
      C   16   -0.35227      0.99962     2.34729    0.00535     3.35227
      H   17    0.10296      0.00000     0.39596    0.00108     0.39704
      H   18    0.10169      0.00000     0.39705    0.00127     0.39831
      H   19    0.10128      0.00000     0.39750    0.00121     0.39872
      H   20    0.10319      0.00000     0.39482    0.00199     0.39681
      H   21    0.09700      0.00000     0.40104    0.00196     0.40300
      H   22    0.09707      0.00000     0.40202    0.00091     0.40293
      H   23    0.10222      0.00000     0.39601    0.00177     0.39778
      H   24    0.09992      0.00000     0.39690    0.00317     0.40008
      H   25    0.09937      0.00000     0.39923    0.00140     0.40063
      H   26    0.10570      0.00000     0.39268    0.00161     0.39430
      H   27    0.10224      0.00000     0.39660    0.00116     0.39776
      H   28    0.10348      0.00000     0.39520    0.00133     0.39652
      H   29    0.10560      0.00000     0.39252    0.00188     0.39440
      H   30    0.09972      0.00000     0.39875    0.00153     0.40028
      H   31    0.11058      0.00000     0.38829    0.00114     0.38942
      H   32    0.10307      0.00000     0.39515    0.00178     0.39693
      H   33    0.09832      0.00000     0.39980    0.00188     0.40168
      H   34    0.10956      0.00000     0.38887    0.00156     0.39044
      H   35    0.10440      0.00000     0.39453    0.00107     0.39560
 =======================================================================
   * Total *   -0.00000     19.99293    42.82013    0.18694    63.00000

 Normal termination of Gaussian 16 at Thu Dec 10 22:42:34 2020.
