 Gaussian 16, Revision A.03,

 -----------------------------------------------------------
 # opt freq B3LYP/6-31G(d) empiricaldispersion=gd3bj scf=xqc
 -----------------------------------------------------------

 ------------------------------
 CID_101670164_JID_633_neutraal
 ------------------------------
 Symbolic Z-matrix:
 Charge =  0 Multiplicity = 1

 SCF Done:  E(RB3LYP) =  -832.335420898     A.U. after   17 cycles
 SCF Done:  E(RB3LYP) =  -832.339312828     A.U. after   13 cycles
 SCF Done:  E(RB3LYP) =  -832.340045965     A.U. after   15 cycles
 SCF Done:  E(RB3LYP) =  -832.340779875     A.U. after   13 cycles
 SCF Done:  E(RB3LYP) =  -832.340815378     A.U. after   12 cycles
 SCF Done:  E(RB3LYP) =  -832.340818447     A.U. after   11 cycles
 SCF Done:  E(RB3LYP) =  -832.340821107     A.U. after   10 cycles
 SCF Done:  E(RB3LYP) =  -832.340821312     A.U. after    9 cycles
 Optimization completed.
    -- Stationary point found.
 Normal termination of Gaussian 16 at Sun Dec 13 20:00:38 2020.

 --------------------------------------------------------------------
 #N Geom=AllCheck Guess=TCheck SCRF=Check GenChk RB3LYP/6-31G(d) Freq
 --------------------------------------------------------------------

 Structure from the checkpoint file:  "JID_633.chk"
 ------------------------------
 CID_101670164_JID_633_neutraal
 ------------------------------
 Charge =  0 Multiplicity = 1

 SCF Done:  E(RB3LYP) =  -832.340821312     A.U. after    1 cycles

  Exact polarizability: 145.501   7.203 100.274  -0.015   0.018  47.633
 Approx polarizability: 255.848  27.283 166.907  -0.050   0.036  74.205

 ******    1 imaginary frequencies (negative Signs) ******

                      1                      2                      3
                      A                      A                      A
 Frequencies --    -44.5049                88.7966               160.8519
 Red. masses --      3.0938                 4.4258                 5.2164
 Frc consts  --      0.0036                 0.0206                 0.0795
 IR Inten    --      0.0638                 0.9774                 0.3465

                      4                      5                      6
                      A                      A                      A
 Frequencies --    173.9527               191.8096               223.4063
 Red. masses --      7.8656                 1.6751                 2.2179
 Frc consts  --      0.1402                 0.0363                 0.0652
 IR Inten    --      2.1502                 0.2300                 2.1961

                      7                      8                      9
                      A                      A                      A
 Frequencies --    272.0334               279.8317               335.3245
 Red. masses --      2.8880                 1.3761                 5.5487
 Frc consts  --      0.1259                 0.0635                 0.3676
 IR Inten    --      0.3241                 0.7710                 1.2815

                     10                     11                     12
                      A                      A                      A
 Frequencies --    357.9789               401.4350               484.7781
 Red. masses --      3.4826                 4.0372                 8.7161
 Frc consts  --      0.2629                 0.3833                 1.2069
 IR Inten    --      1.3426                 1.2901                25.3341

                     13                     14                     15
                      A                      A                      A
 Frequencies --    560.8818               563.1896               614.0037
 Red. masses --      6.8796                 4.2714                 4.8690
 Frc consts  --      1.2751                 0.7982                 1.0815
 IR Inten    --      0.8002                 1.0831                 5.5366

                     16                     17                     18
                      A                      A                      A
 Frequencies --    648.6385               722.9798               795.2932
 Red. masses --      7.4642                 1.2426                 6.2002
 Frc consts  --      1.8503                 0.3827                 2.3105
 IR Inten    --      8.9897                22.8967                 2.6776

                     19                     20                     21
                      A                      A                      A
 Frequencies --    855.8506               962.4311              1001.6749
 Red. masses --      4.3062                 6.1966                 3.9492
 Frc consts  --      1.8584                 3.3817                 2.3346
 IR Inten    --     16.5841                45.8795               194.1787

                     22                     23                     24
                      A                      A                      A
 Frequencies --   1041.8268              1058.2453              1080.4587
 Red. masses --      1.4241                 6.9180                 1.4629
 Frc consts  --      0.9107                 4.5646                 1.0062
 IR Inten    --     24.0064               228.8829                 2.6292

                     25                     26                     27
                      A                      A                      A
 Frequencies --   1156.3252              1167.7740              1228.5875
 Red. masses --      1.2942                 1.8804                 1.6398
 Frc consts  --      1.0195                 1.5108                 1.4583
 IR Inten    --      0.1364                10.9311                 8.0822

                     28                     29                     30
                      A                      A                      A
 Frequencies --   1302.9882              1392.5057              1449.4037
 Red. masses --      5.7688                 3.6962                 1.3110
 Frc consts  --      5.7706                 4.2228                 1.6227
 IR Inten    --     63.3005                70.5524                35.2768

                     31                     32                     33
                      A                      A                      A
 Frequencies --   1471.0957              1499.8756              1509.0159
 Red. masses --      1.9980                 1.0407                 1.3148
 Frc consts  --      2.5476                 1.3794                 1.7640
 IR Inten    --    505.2269                16.2116                73.7563

                     34                     35                     36
                      A                      A                      A
 Frequencies --   1519.5504              1520.0325              1537.2931
 Red. masses --      1.1251                 1.0524                 1.5321
 Frc consts  --      1.5306                 1.4326                 2.1333
 IR Inten    --     20.7837                 2.6904               379.9098

                     37                     38                     39
                      A                      A                      A
 Frequencies --   1643.0610              1671.2925              3050.1503
 Red. masses --     12.2545                 6.7203                 1.0390
 Frc consts  --     19.4918                11.0598                 5.6951
 IR Inten    --      9.5084                10.5639                19.2099

                     40                     41                     42
                      A                      A                      A
 Frequencies --   3103.8071              3104.0884              3149.8705
 Red. masses --      1.1020                 1.0318                 1.0987
 Frc consts  --      6.2546                 5.8572                 6.4226
 IR Inten    --     11.4604                19.7728                 9.0456

                     43                     44                     45
                      A                      A                      A
 Frequencies --   3178.1774              3198.1636              3287.9475
 Red. masses --      1.1060                 1.1054                 1.0955
 Frc consts  --      6.5821                 6.6614                 6.9777
 IR Inten    --      3.4576                12.5969                 3.5985

 - Thermochemistry -
 -------------------
 Temperature   298.150 Kelvin.  Pressure   1.00000 Atm.
 Atom     1 has atomic number  6 and mass  12.00000

 Molecular mass:   157.03098 amu.
 Principal axes and moments of inertia in atomic units:
                           1         2         3
     Eigenvalues --   912.675552071.618692961.81044
           X            0.99952  -0.03082  -0.00005
           Y            0.03082   0.99952  -0.00008
           Z            0.00005   0.00008   1.00000
 This molecule is an asymmetric top.
 Rotational symmetry number  1.
 Warning -- assumption of classical behavior for rotation
           may cause significant error
 Rotational temperatures (Kelvin)      0.09490     0.04181     0.02924
 Rotational constants (GHZ):           1.97742     0.87117     0.60934
    1 imaginary frequencies ignored.
 Zero-point vibrational energy     329072.8 (Joules/Mol)
                                   78.65029 (Kcal/Mol)
 Warning -- explicit consideration of  14 degrees of freedom as
           vibrations may cause significant error
 Vibrational temperatures:    127.76   231.43   250.28   275.97   321.43
          (Kelvin)            391.40   402.62   482.46   515.05   577.58
                              697.49   806.98   810.30   883.41   933.25
                             1040.21  1144.25  1231.38  1384.72  1441.19
                             1498.96  1522.58  1554.54  1663.69  1680.17
                             1767.66  1874.71  2003.51  2085.37  2116.58
                             2157.99  2171.14  2186.29  2186.99  2211.82
                             2364.00  2404.62  4388.49  4465.69  4466.09
                             4531.96  4572.69  4601.44  4730.62

 Zero-point correction=                           0.125337 (Hartree/Particle)
 Thermal correction to Energy=                    0.134606
 Thermal correction to Enthalpy=                  0.135551
 Thermal correction to Gibbs Free Energy=         0.090765
 Sum of electronic and zero-point Energies=           -832.215484
 Sum of electronic and thermal Energies=              -832.206215
 Sum of electronic and thermal Enthalpies=            -832.205271
 Sum of electronic and thermal Free Energies=         -832.250056

                     E (Thermal)             CV                S
                      KCal/Mol        Cal/Mol-Kelvin    Cal/Mol-Kelvin
 Total                   84.467             34.118             94.259
 Electronic               0.000              0.000              0.000
 Translational            0.889              2.981             41.063
 Rotational               0.889              2.981             30.105
 Vibrational             82.689             28.156             23.090
 Vibration     1          0.602              1.957              3.686
 Vibration     2          0.622              1.890              2.540
 Vibration     3          0.627              1.875              2.392
 Vibration     4          0.634              1.851              2.210
 Vibration     5          0.649              1.805              1.931
 Vibration     6          0.675              1.725              1.583
 Vibration     7          0.680              1.711              1.535
 Vibration     8          0.716              1.605              1.234
 Vibration     9          0.733              1.559              1.131
 Vibration    10          0.767              1.467              0.957
 Vibration    11          0.841              1.284              0.697
 Vibration    12          0.917              1.116              0.522
 Vibration    13          0.919              1.111              0.518
 Vibration    14          0.973              1.002              0.426

                           ! Non-Optimized Parameters !
 Normal termination of Gaussian 16 at Sun Dec 13 20:03:15 2020.

 ----------------------------------------------------------------------
 # B3LYP/6-311++G(d,p) empiricaldispersion=gd3bj scf=xqc pop=npa geom=c
 heck
 ----------------------------------------------------------------------

 --------------------------------------
 CID_101670164_JID_633_Energie_neutraal
 --------------------------------------
 Structure from the checkpoint file:  "JID_633.chk"
 Charge =  0 Multiplicity = 1

 SCF Done:  E(RB3LYP) =  -832.490973376     A.U. after   16 cycles
 Normal termination of Gaussian 16 at Sun Dec 13 20:04:16 2020.

 ----------------------------------------------------------------------
 # B3LYP/6-311++G(d,p) empiricaldispersion=gd3bj scf=xqc pop=npa geom=c
 heck
 ----------------------------------------------------------------------

 ------------------------------------
 CID_101670164_JID_633_Energie_kation
 ------------------------------------
 Structure from the checkpoint file:  "JID_633.chk"
 Charge =  1 Multiplicity = 2

 SCF Done:  E(UB3LYP) =  -832.202015682     A.U. after   33 cycles
 SCF Done:  E(UB3LYP) =  -832.202029655     a.u. after    4 cycles
 Normal termination of Gaussian 16 at Sun Dec 13 20:15:13 2020.
 Gaussian 16:  ES64L-G16RevA.03 25-Dec-2016

 ----------------------------------------------------------------------
 # B3LYP/6-311++G(d,p) empiricaldispersion=gd3bj scf=xqc pop=npa geom=c
 heck
 ----------------------------------------------------------------------

 -----------------------------------
 CID_101670164_JID_633_Energie_anion
 -----------------------------------
 Structure from the checkpoint file:  "JID_633.chk"
 Charge = -1 Multiplicity = 2

                         Standard orientation:
 ---------------------------------------------------------------------
 Center     Atomic      Atomic             Coordinates (Angstroms)
 Number     Number       Type             X           Y           Z
 ---------------------------------------------------------------------
      1          6           0       -2.776059    1.452564    0.001971
      2          6           0       -1.756955    0.357679    0.000812
      3          6           0       -2.023963   -0.964157    0.001246
      4         16           0       -0.566745   -1.927032   -0.000712
      5          6           0        0.430637   -0.475416   -0.001086
      6          7           0        1.733436   -0.658448   -0.002348
      7          7           0        2.478680    0.508084    0.005523
      8          8           0        3.676497    0.286751    0.000514
      9          7           0       -0.376960    0.639742   -0.000973
     10          6           0        0.147651    2.009945   -0.003613
     11          1           0       -2.690375    2.093985    0.887093
     12          1           0       -3.774682    1.009870    0.005307
     13          1           0       -2.695356    2.091435   -0.885481
     14          1           0       -3.001833   -1.421885    0.002348
     15          1           0        0.762828    2.180472    0.880153
     16          1           0        0.773376    2.172105   -0.881464
     17          1           0       -0.691958    2.703175   -0.012075
 ---------------------------------------------------------------------

 SCF Done:  E(UB3LYP) =  -832.496441777     A.U. after   33 cycles
 SCF Done:  E(UB3LYP) =  -832.496441777     a.u. after    1 cycles

 The electronic state is 2-A.
 Alpha  occ. eigenvalues --  -88.71821 -18.89762 -14.22375 -14.17184 -14.12917
 Alpha  occ. eigenvalues --  -10.09698 -10.08459 -10.08346 -10.07580 -10.05754
 Alpha  occ. eigenvalues --   -7.80525  -5.76867  -5.76499  -5.76017  -0.91272
 Alpha  occ. eigenvalues --   -0.85319  -0.73070  -0.68974  -0.65342  -0.57556
 Alpha  occ. eigenvalues --   -0.55980  -0.47041  -0.46206  -0.40572  -0.35582
 Alpha  occ. eigenvalues --   -0.34825  -0.32216  -0.31429  -0.30178  -0.29338
 Alpha  occ. eigenvalues --   -0.28291  -0.25781  -0.25723  -0.23468  -0.21874
 Alpha  occ. eigenvalues --   -0.20556  -0.15291  -0.14296  -0.10302  -0.05533
 Alpha  occ. eigenvalues --   -0.00402   0.06265
 Alpha virt. eigenvalues --    0.06911   0.08947   0.10449   0.10715   0.12644
 Alpha virt. eigenvalues --    0.12987   0.13371   0.14601   0.15425   0.15578
 Alpha virt. eigenvalues --    0.15986   0.16737   0.17708   0.17974   0.18897

  Beta  occ. eigenvalues --  -88.71779 -18.88821 -14.22302 -14.16406 -14.13212
  Beta  occ. eigenvalues --  -10.09747 -10.08343 -10.07845 -10.07586 -10.05636
  Beta  occ. eigenvalues --   -7.80488  -5.76857  -5.76491  -5.75862  -0.89748
  Beta  occ. eigenvalues --   -0.84976  -0.72729  -0.68834  -0.65237  -0.57462
  Beta  occ. eigenvalues --   -0.55486  -0.46592  -0.45344  -0.40305  -0.35483
  Beta  occ. eigenvalues --   -0.34610  -0.31984  -0.31225  -0.29973  -0.28600
  Beta  occ. eigenvalues --   -0.28164  -0.25525  -0.24709  -0.21434  -0.20560
  Beta  occ. eigenvalues --   -0.19898  -0.14010  -0.12642  -0.10131  -0.04341
  Beta  occ. eigenvalues --    0.00442
  Beta virt. eigenvalues --    0.06867   0.08900   0.10397   0.10670   0.12637
  Beta virt. eigenvalues --    0.12943   0.13346   0.14611   0.15121   0.15532
  Beta virt. eigenvalues --    0.15892   0.16624   0.16768   0.17668   0.18498

 Mulliken charges and spin densities:
               1          2
     1  C   -0.960008   0.008199
     2  C   -0.442273  -0.066052
     3  C    0.415782   0.107638
     4  S   -0.237717   0.074972
     5  C   -0.109393   0.329313
     6  N    0.132861  -0.142302
     7  N   -0.519865   0.346010
     8  O   -0.270176   0.327235
     9  N    0.196706   0.027453
    10  C   -0.336291  -0.000972
    11  H    0.152223  -0.001486
    12  H    0.140708  -0.000331
    13  H    0.152141  -0.001386
    14  H    0.211689  -0.006171
    15  H    0.205603   0.001243
    16  H    0.206397   0.001230
    17  H    0.061611  -0.004592
 Sum of Mulliken charges =  -1.00000   1.00000

 Dipole moment (field-independent basis, Debye):
    X=            -11.6202    Y=              3.0508    Z=             -0.0060  Tot=             12.0140
 Quadrupole moment (field-independent basis, Debye-Ang):
   XX=           -112.6201   YY=            -75.9258   ZZ=            -72.3577
   XY=             -1.9824   XZ=             -0.0210   YZ=             -0.0360

 Summary of Natural Population Analysis:

                                       Natural Population
                Natural  -----------------------------------------------
    Atom  No    Charge         Core      Valence    Rydberg      Total
 -----------------------------------------------------------------------
      C    1   -0.29821      0.99963     2.29399    0.00459     3.29821
      C    2    0.06372      0.99948     1.92740    0.00940     2.93628
      C    3   -0.20057      0.99943     2.19140    0.00974     3.20057
      S    4    0.17368      4.99948     2.80211    0.02474     7.82632
      C    5    0.24398      0.99961     1.73101    0.02539     2.75602
      N    6   -0.28437      0.99963     2.76157    0.02317     3.78437
      N    7    0.11942      0.99982     2.33979    0.04096     3.38058
      O    8   -0.11184      0.99990     3.09894    0.01300     4.11184
      N    9   -0.23069      0.99957     2.72223    0.00889     3.73069
      C   10   -0.17257      0.99964     2.16508    0.00785     3.17257
      H   11    0.09934      0.00000     0.39917    0.00149     0.40066
      H   12    0.10386      0.00000     0.39527    0.00087     0.39614
      H   13    0.09929      0.00000     0.39922    0.00149     0.40071
      H   14    0.10063      0.00000     0.39844    0.00093     0.39937
      H   15    0.10679      0.00000     0.39095    0.00226     0.39321
      H   16    0.10713      0.00000     0.39063    0.00224     0.39287
      H   17    0.08040      0.00000     0.41840    0.00120     0.41960
 =======================================================================
   * Total *    0.00000     13.99620    26.82559    0.17820    41.00000

 Normal termination of Gaussian 16 at Sun Dec 13 20:18:28 2020.
