 Gaussian 16, Revision A.03,

 -----------------------------------------------------------
 # opt freq B3LYP/6-31G(d) empiricaldispersion=gd3bj scf=xqc
 -----------------------------------------------------------

 -------------------------------
 CID_152356240_JID_3948_neutraal
 -------------------------------
 Symbolic Z-matrix:
 Charge =  0 Multiplicity = 1

 SCF Done:  E(RB3LYP) =  -681.945023597     A.U. after   15 cycles
 SCF Done:  E(RB3LYP) =  -681.952211503     A.U. after   13 cycles
 SCF Done:  E(RB3LYP) =  -681.951362612     A.U. after   13 cycles
 SCF Done:  E(RB3LYP) =  -681.952940845     A.U. after   13 cycles
 SCF Done:  E(RB3LYP) =  -681.952884310     A.U. after   12 cycles
 SCF Done:  E(RB3LYP) =  -681.953577745     A.U. after   12 cycles
 SCF Done:  E(RB3LYP) =  -681.954076861     A.U. after   13 cycles
 SCF Done:  E(RB3LYP) =  -681.955133683     A.U. after   14 cycles
 SCF Done:  E(RB3LYP) =  -681.956134810     A.U. after   12 cycles
 SCF Done:  E(RB3LYP) =  -681.957962573     A.U. after   13 cycles
 SCF Done:  E(RB3LYP) =  -681.958605785     A.U. after   13 cycles
 SCF Done:  E(RB3LYP) =  -681.958726230     A.U. after   12 cycles
 SCF Done:  E(RB3LYP) =  -681.958803083     A.U. after   10 cycles
 SCF Done:  E(RB3LYP) =  -681.958818189     A.U. after   11 cycles
 SCF Done:  E(RB3LYP) =  -681.958819313     A.U. after    9 cycles
 SCF Done:  E(RB3LYP) =  -681.958819487     A.U. after    8 cycles
 Optimization completed.
    -- Stationary point found.
 Normal termination of Gaussian 16 at Sun Dec 13 16:00:30 2020.

 --------------------------------------------------------------------
 #N Geom=AllCheck Guess=TCheck SCRF=Check GenChk RB3LYP/6-31G(d) Freq
 --------------------------------------------------------------------

 Structure from the checkpoint file:  "JID_3948.chk"
 -------------------------------
 CID_152356240_JID_3948_neutraal
 -------------------------------
 Charge =  0 Multiplicity = 1

 SCF Done:  E(RB3LYP) =  -681.958819487     A.U. after    1 cycles

  Exact polarizability: 107.802  10.240 103.039  15.830  -9.681  72.362
 Approx polarizability: 159.302  28.562 162.920  42.668 -13.043 131.974

                      1                      2                      3
                      A                      A                      A
 Frequencies --     35.6796                59.1184                79.8357
 Red. masses --      5.7281                 6.1365                 8.0497
 Frc consts  --      0.0043                 0.0126                 0.0302
 IR Inten    --      0.7433                 0.1160                 1.0797

                      4                      5                      6
                      A                      A                      A
 Frequencies --    107.6369               125.7634               144.3615
 Red. masses --      4.3460                 1.2080                 3.4337
 Frc consts  --      0.0297                 0.0113                 0.0422
 IR Inten    --      1.6287                 0.3360                 1.3896

                      7                      8                      9
                      A                      A                      A
 Frequencies --    180.6162               188.9639               288.8398
 Red. masses --      4.9061                 6.0022                 4.9527
 Frc consts  --      0.0943                 0.1263                 0.2434
 IR Inten    --      2.0747                 2.2205                18.2641

                     10                     11                     12
                      A                      A                      A
 Frequencies --    331.9733               365.2259               389.2943
 Red. masses --      4.1152                 8.0181                 6.4396
 Frc consts  --      0.2672                 0.6302                 0.5750
 IR Inten    --      0.6778                 4.7577                 9.1042

                     13                     14                     15
                      A                      A                      A
 Frequencies --    428.1165               521.8414               540.9313
 Red. masses --      5.9455                 3.6250                 3.1733
 Frc consts  --      0.6420                 0.5816                 0.5471
 IR Inten    --     13.1268                38.7143                64.4705

                     16                     17                     18
                      A                      A                      A
 Frequencies --    552.4778               613.3267               645.5572
 Red. masses --      4.8394                 1.4418                 4.0818
 Frc consts  --      0.8703                 0.3195                 1.0022
 IR Inten    --     16.6039               112.3421                55.4318

                     19                     20                     21
                      A                      A                      A
 Frequencies --    648.3733               685.9725               761.5324
 Red. masses --      3.5821                 2.2386                 6.2181
 Frc consts  --      0.8872                 0.6207                 2.1246
 IR Inten    --     21.0594                68.0278                49.5193

                     22                     23                     24
                      A                      A                      A
 Frequencies --    799.0438               815.0088               862.1852
 Red. masses --      4.6760                 4.5660                 1.2935
 Frc consts  --      1.7590                 1.7869                 0.5665
 IR Inten    --     13.3870                28.0457                 8.5626

                     25                     26                     27
                      A                      A                      A
 Frequencies --    909.1095               964.0813               975.8818
 Red. masses --      6.7096                 1.4984                 5.8195
 Frc consts  --      3.2672                 0.8205                 3.2653
 IR Inten    --      5.0608                 2.3948                22.3856

                     28                     29                     30
                      A                      A                      A
 Frequencies --   1028.1730              1046.2051              1071.5517
 Red. masses --      4.4385                 2.2706                 2.2886
 Frc consts  --      2.7645                 1.4643                 1.5483
 IR Inten    --     29.8596                30.8380                36.0256

                     31                     32                     33
                      A                      A                      A
 Frequencies --   1106.6900              1164.9323              1186.0177
 Red. masses --      5.0978                 2.8510                 1.2742
 Frc consts  --      3.6786                 2.2796                 1.0560
 IR Inten    --     54.2169               144.6668                 0.1617

                     34                     35                     36
                      A                      A                      A
 Frequencies --   1208.2491              1219.5017              1257.2735
 Red. masses --      1.9042                 1.5384                 3.8049
 Frc consts  --      1.6379                 1.3480                 3.5436
 IR Inten    --    223.6143                14.8298               310.7856

                     37                     38                     39
                      A                      A                      A
 Frequencies --   1305.9990              1354.0269              1373.6103
 Red. masses --      1.5481                 1.4169                 1.9227
 Frc consts  --      1.5557                 1.5305                 2.1375
 IR Inten    --     92.3342                22.0734                60.9809

                     40                     41                     42
                      A                      A                      A
 Frequencies --   1404.9122              1422.0962              1491.9390
 Red. masses --      2.5912                 1.9504                 1.1999
 Frc consts  --      3.0133                 2.3240                 1.5737
 IR Inten    --     60.2695                14.8480                 4.4181

                     43                     44                     45
                      A                      A                      A
 Frequencies --   1504.7317              1512.7509              1523.7751
 Red. masses --      1.6959                 1.0476                 1.0487
 Frc consts  --      2.2623                 1.4124                 1.4346
 IR Inten    --     29.8389                 7.1860                 7.9989

                     46                     47                     48
                      A                      A                      A
 Frequencies --   1604.4227              1703.5116              1820.0137
 Red. masses --      2.9351                 6.8990                 9.7642
 Frc consts  --      4.4515                11.7958                19.0562
 IR Inten    --     58.3775                40.6042               311.5653

                     49                     50                     51
                      A                      A                      A
 Frequencies --   1837.3639              3080.5746              3086.9263
 Red. masses --     11.8779                 1.0294                 1.0843
 Frc consts  --     23.6255                 5.7557                 6.0876
 IR Inten    --    165.6469                29.7039                 3.9791

                     52                     53                     54
                      A                      A                      A
 Frequencies --   3158.0928              3189.1372              3216.2945
 Red. masses --      1.1079                 1.1077                 1.0896
 Frc consts  --      6.5102                 6.6377                 6.6409
 IR Inten    --     16.6893                14.7607                 8.3793

                     55                     56                     57
                      A                      A                      A
 Frequencies --   3228.4758              3605.3410              3703.2225
 Red. masses --      1.0939                 1.0771                 1.0642
 Frc consts  --      6.7175                 8.2493                 8.5983
 IR Inten    --      6.1742                38.7398                81.1199

 - Thermochemistry -
 -------------------
 Temperature   298.150 Kelvin.  Pressure   1.00000 Atm.
 Atom     1 has atomic number  6 and mass  12.00000

 Molecular mass:   184.04841 amu.
 Principal axes and moments of inertia in atomic units:
                           1         2         3
     Eigenvalues --  1626.610252605.695163611.16136
           X            0.99929  -0.03752  -0.00354
           Y            0.03746   0.99917  -0.01596
           Z            0.00413   0.01582   0.99987
 This molecule is an asymmetric top.
 Rotational symmetry number  1.
 Warning -- assumption of classical behavior for rotation
           may cause significant error
 Rotational temperatures (Kelvin)      0.05325     0.03324     0.02399
 Rotational constants (GHZ):           1.10951     0.69261     0.49977
 Zero-point vibrational energy     415322.9 (Joules/Mol)
                                   99.26455 (Kcal/Mol)
 Warning -- explicit consideration of  17 degrees of freedom as
           vibrations may cause significant error
 Vibrational temperatures:     51.33    85.06   114.87   154.87   180.95
          (Kelvin)            207.70   259.87   271.88   415.58   477.64
                              525.48   560.11   615.96   750.81   778.28
                              794.89   882.44   928.81   932.86   986.96
                             1095.68  1149.65  1172.62  1240.49  1308.01
                             1387.10  1404.08  1479.31  1505.26  1541.72
                             1592.28  1676.08  1706.41  1738.40  1754.59
                             1808.94  1879.04  1948.14  1976.32  2021.36
                             2046.08  2146.57  2164.97  2176.51  2192.37
                             2308.41  2450.97  2618.59  2643.56  4432.26
                             4441.40  4543.79  4588.46  4627.53  4645.06
                             5187.28  5328.11

 Zero-point correction=                           0.158188 (Hartree/Particle)
 Thermal correction to Energy=                    0.170311
 Thermal correction to Enthalpy=                  0.171256
 Thermal correction to Gibbs Free Energy=         0.118585
 Sum of electronic and zero-point Energies=           -681.800631
 Sum of electronic and thermal Energies=              -681.788508
 Sum of electronic and thermal Enthalpies=            -681.787564
 Sum of electronic and thermal Free Energies=         -681.840235

                     E (Thermal)             CV                S
                      KCal/Mol        Cal/Mol-Kelvin    Cal/Mol-Kelvin
 Total                  106.872             43.489            110.855
 Electronic               0.000              0.000              0.000
 Translational            0.889              2.981             41.536
 Rotational               0.889              2.981             31.104
 Vibrational            105.095             37.527             38.214
 Vibration     1          0.594              1.982              5.486
 Vibration     2          0.596              1.974              4.486
 Vibration     3          0.600              1.963              3.895
 Vibration     4          0.606              1.943              3.311
 Vibration     5          0.611              1.927              3.010
 Vibration     6          0.616              1.909              2.745
 Vibration     7          0.630              1.866              2.322
 Vibration     8          0.633              1.855              2.238
 Vibration     9          0.685              1.694              1.481
 Vibration    10          0.714              1.612              1.250
 Vibration    11          0.738              1.544              1.100
 Vibration    12          0.757              1.493              1.003
 Vibration    13          0.790              1.409              0.865
 Vibration    14          0.877              1.202              0.606
 Vibration    15          0.896              1.160              0.563
 Vibration    16          0.908              1.134              0.539
 Vibration    17          0.973              1.004              0.427

                           ! Non-Optimized Parameters !
 Normal termination of Gaussian 16 at Sun Dec 13 16:05:20 2020.

 ----------------------------------------------------------------------
 # B3LYP/6-311++G(d,p) empiricaldispersion=gd3bj scf=xqc pop=npa geom=c
 heck
 ----------------------------------------------------------------------

 ---------------------------------------
 CID_152356240_JID_3948_Energie_neutraal
 ---------------------------------------
 Structure from the checkpoint file:  "JID_3948.chk"
 Charge =  0 Multiplicity = 1

 SCF Done:  E(RB3LYP) =  -682.168355502     A.U. after   17 cycles
 Normal termination of Gaussian 16 at Sun Dec 13 16:07:26 2020.

 ----------------------------------------------------------------------
 # B3LYP/6-311++G(d,p) empiricaldispersion=gd3bj scf=xqc pop=npa geom=c
 heck
 ----------------------------------------------------------------------

 -------------------------------------
 CID_152356240_JID_3948_Energie_kation
 -------------------------------------
 Structure from the checkpoint file:  "JID_3948.chk"
 Charge =  1 Multiplicity = 2

 SCF Done:  E(UB3LYP) =  -681.861991810     A.U. after   23 cycles
 Normal termination of Gaussian 16 at Sun Dec 13 16:11:25 2020.
 Gaussian 16:  ES64L-G16RevA.03 25-Dec-2016

 ----------------------------------------------------------------------
 # B3LYP/6-311++G(d,p) empiricaldispersion=gd3bj scf=xqc pop=npa geom=c
 heck
 ----------------------------------------------------------------------

 ------------------------------------
 CID_152356240_JID_3948_Energie_anion
 ------------------------------------
 Structure from the checkpoint file:  "JID_3948.chk"
 Charge = -1 Multiplicity = 2

                         Standard orientation:
 ---------------------------------------------------------------------
 Center     Atomic      Atomic             Coordinates (Angstroms)
 Number     Number       Type             X           Y           Z
 ---------------------------------------------------------------------
      1          6           0       -3.460630    1.114924    0.433690
      2          8           0       -2.432448    0.435032   -0.309493
      3          6           0       -1.173716    0.643070    0.124870
      4          8           0       -0.876068    1.357473    1.052659
      5          6           0       -0.164513   -0.124825   -0.755122
      6          6           0        1.167665   -0.240602   -0.051559
      7          6           0        1.394317   -1.349078    0.684868
      8          6           0        0.438969   -2.429375    0.656198
      9          7           0       -0.514944   -2.494911   -0.227619
     10          7           0       -0.605355   -1.473494   -1.107059
     11          6           0        2.147570    0.856914   -0.079788
     12          8           0        3.192102    0.888120    0.539880
     13          8           0        1.758812    1.866596   -0.905487
     14          1           0       -4.400724    0.830336   -0.038331
     15          1           0       -3.312384    2.196388    0.382873
     16          1           0       -3.441398    0.799691    1.479647
     17          1           0       -0.072677    0.444097   -1.685888
     18          1           0        2.311380   -1.438317    1.258214
     19          1           0        0.535892   -3.285428    1.315309
     20          1           0       -1.472848   -1.515036   -1.625882
     21          1           0        2.457701    2.543165   -0.842634
 ---------------------------------------------------------------------

 SCF Done:  E(UB3LYP) =  -682.193162823     A.U. after   25 cycles

 The electronic state is 2-A.
 Alpha  occ. eigenvalues --  -19.05877 -19.00906 -18.98926 -18.93040 -14.19218
 Alpha  occ. eigenvalues --  -14.15777 -10.17005 -10.12914 -10.11697 -10.07685
 Alpha  occ. eigenvalues --  -10.02266  -9.99763  -9.99404  -0.99449  -0.94258
 Alpha  occ. eigenvalues --   -0.90294  -0.85153  -0.84696  -0.68287  -0.64871
 Alpha  occ. eigenvalues --   -0.62672  -0.53478  -0.51636  -0.46259  -0.44903
 Alpha  occ. eigenvalues --   -0.40436  -0.38712  -0.37940  -0.36363  -0.34347
 Alpha  occ. eigenvalues --   -0.32334  -0.31989  -0.30849  -0.30564  -0.28505
 Alpha  occ. eigenvalues --   -0.27608  -0.26453  -0.25802  -0.23339  -0.23183
 Alpha  occ. eigenvalues --   -0.20481  -0.19942  -0.16977  -0.16436  -0.13208
 Alpha  occ. eigenvalues --   -0.11895  -0.10661  -0.05857   0.04197
 Alpha virt. eigenvalues --    0.07251   0.09832   0.10368   0.11164   0.11624
 Alpha virt. eigenvalues --    0.12057   0.12908   0.13993   0.14227   0.14612
 Alpha virt. eigenvalues --    0.17220   0.17678   0.17824   0.18493   0.18822

  Beta  occ. eigenvalues --  -19.05874 -19.00827 -18.98901 -18.92810 -14.19022
  Beta  occ. eigenvalues --  -14.15077 -10.17003 -10.12909 -10.11499 -10.07684
  Beta  occ. eigenvalues --  -10.02369  -9.99533  -9.99063  -0.99432  -0.93996
  Beta  occ. eigenvalues --   -0.90258  -0.84438  -0.84322  -0.67790  -0.64320
  Beta  occ. eigenvalues --   -0.62510  -0.53204  -0.50777  -0.46190  -0.44628
  Beta  occ. eigenvalues --   -0.40253  -0.38566  -0.37703  -0.36299  -0.34128
  Beta  occ. eigenvalues --   -0.32144  -0.31714  -0.30577  -0.30286  -0.27793
  Beta  occ. eigenvalues --   -0.27190  -0.26269  -0.25548  -0.22922  -0.21685
  Beta  occ. eigenvalues --   -0.20267  -0.19880  -0.16140  -0.15755  -0.11666
  Beta  occ. eigenvalues --   -0.11430  -0.09709  -0.04219
  Beta virt. eigenvalues --    0.07198   0.09814   0.10334   0.11123   0.11225
  Beta virt. eigenvalues --    0.11598   0.12073   0.12930   0.13996   0.14206
  Beta virt. eigenvalues --    0.14595   0.17261   0.17758   0.18307   0.18805

 Mulliken charges and spin densities:
               1          2
     1  C   -0.211080  -0.010172
     2  O   -0.069273   0.004056
     3  C   -0.185008   0.000328
     4  O   -0.240018   0.003552
     5  C   -0.086889  -0.009696
     6  C    0.012353   0.062380
     7  C   -0.164923   0.375613
     8  C   -0.465568  -0.062120
     9  N   -0.272725   0.325344
    10  N    0.109656   0.064695
    11  C   -0.215139   0.132276
    12  O   -0.428799   0.084032
    13  O   -0.235923   0.016091
    14  H    0.105195   0.016169
    15  H    0.155192   0.008760
    16  H    0.166409   0.003393
    17  H    0.243800   0.002651
    18  H    0.176622  -0.017533
    19  H    0.114023   0.000845
    20  H    0.236175   0.000316
    21  H    0.255919  -0.000979
 Sum of Mulliken charges =  -1.00000   1.00000

 Dipole moment (field-independent basis, Debye):
    X=             -6.3021    Y=              3.4741    Z=             -1.9481  Tot=              7.4552
 Quadrupole moment (field-independent basis, Debye-Ang):
   XX=            -95.7216   YY=            -96.0550   ZZ=            -84.0283
   XY=             -4.8683   XZ=             -3.8142   YZ=             -5.5518

 Summary of Natural Population Analysis:

                                       Natural Population
                Natural  -----------------------------------------------
    Atom  No    Charge         Core      Valence    Rydberg      Total
 -----------------------------------------------------------------------
      C    1   -0.10702      0.99961     2.09855    0.00886     3.10702
      O    2   -0.28605      0.99986     3.27666    0.00954     4.28605
      C    3    0.40851      0.99969     1.56622    0.02558     2.59149
      O    4   -0.29970      0.99987     3.29281    0.00703     4.29970
      C    5   -0.06541      0.99951     2.05348    0.01241     3.06541
      C    6   -0.05135      0.99942     2.03727    0.01467     3.05135
      C    7   -0.02212      0.99949     2.01395    0.00869     3.02212
      C    8   -0.06124      0.99965     2.04366    0.01793     3.06124
      N    9   -0.03015      0.99970     2.51385    0.01660     3.53015
      N   10   -0.19182      0.99971     2.67658    0.01553     3.69182
      C   11    0.41764      0.99963     1.55880    0.02393     2.58236
      O   12   -0.31678      0.99987     3.31035    0.00657     4.31678
      O   13   -0.35585      0.99988     3.34995    0.00603     4.35585
      H   14    0.08557      0.00000     0.41354    0.00089     0.41443
      H   15    0.08790      0.00000     0.41087    0.00124     0.41210
      H   16    0.09128      0.00000     0.40752    0.00120     0.40872
      H   17    0.11221      0.00000     0.38541    0.00237     0.38779
      H   18    0.10089      0.00000     0.39790    0.00121     0.39911
      H   19    0.08209      0.00000     0.41653    0.00138     0.41791
      H   20    0.17517      0.00000     0.32162    0.00321     0.32483
      H   21    0.22625      0.00000     0.26800    0.00575     0.27375
 =======================================================================
   * Total *   -0.00000     12.99588    34.81351    0.19061    48.00000

 Normal termination of Gaussian 16 at Sun Dec 13 16:15:39 2020.
