 Gaussian 16, Revision A.03,

 -----------------------------------------------------------
 # opt freq B3LYP/6-31G(d) empiricaldispersion=gd3bj scf=xqc
 -----------------------------------------------------------

 ------------------------------
 CID_43187788_JID_6596_neutraal
 ------------------------------
 Symbolic Z-matrix:
 Charge =  0 Multiplicity = 1

 SCF Done:  E(RB3LYP) =  -1454.36932337     A.U. after   16 cycles
 SCF Done:  E(RB3LYP) =  -1454.37426861     A.U. after   13 cycles
 SCF Done:  E(RB3LYP) =  -1454.37567273     A.U. after   13 cycles
 SCF Done:  E(RB3LYP) =  -1454.37658292     A.U. after   15 cycles
 SCF Done:  E(RB3LYP) =  -1454.37787935     A.U. after   13 cycles
 SCF Done:  E(RB3LYP) =  -1454.37872539     A.U. after   15 cycles
 SCF Done:  E(RB3LYP) =  -1454.37895418     A.U. after   13 cycles
 SCF Done:  E(RB3LYP) =  -1454.37910772     A.U. after   12 cycles
 SCF Done:  E(RB3LYP) =  -1454.37920067     A.U. after   13 cycles
 SCF Done:  E(RB3LYP) =  -1454.37923150     A.U. after   11 cycles
 SCF Done:  E(RB3LYP) =  -1454.37971955     A.U. after   13 cycles
 SCF Done:  E(RB3LYP) =  -1454.37966874     A.U. after   13 cycles
 SCF Done:  E(RB3LYP) =  -1454.37981209     A.U. after   11 cycles
 SCF Done:  E(RB3LYP) =  -1454.37981930     A.U. after   11 cycles
 SCF Done:  E(RB3LYP) =  -1454.37982151     A.U. after   10 cycles
 SCF Done:  E(RB3LYP) =  -1454.37982188     A.U. after    9 cycles
 Optimization completed.
    -- Stationary point found.
 Normal termination of Gaussian 16 at Thu Dec 10 23:51:23 2020.

 --------------------------------------------------------------------
 #N Geom=AllCheck Guess=TCheck SCRF=Check GenChk RB3LYP/6-31G(d) Freq
 --------------------------------------------------------------------

 Structure from the checkpoint file:  "JID_6596.chk"
 ------------------------------
 CID_43187788_JID_6596_neutraal
 ------------------------------
 Charge =  0 Multiplicity = 1

 SCF Done:  E(RB3LYP) =  -1454.37982188     A.U. after    1 cycles

  Exact polarizability: 287.328  -8.292 145.290  -0.446   3.265  65.358
 Approx polarizability: 389.876 -11.106 298.430  -1.309   8.061 108.077

                      1                      2                      3
                      A                      A                      A
 Frequencies --      8.9138                28.1027                69.4852
 Red. masses --     13.9285                 6.1107                 6.7345
 Frc consts  --      0.0007                 0.0028                 0.0192
 IR Inten    --      2.6205                 2.9694                 0.2423

                      4                      5                      6
                      A                      A                      A
 Frequencies --     72.8838                82.6838               145.5799
 Red. masses --      5.7968                 7.1072                 8.0380
 Frc consts  --      0.0181                 0.0286                 0.1004
 IR Inten    --      1.8514                 1.2674                 1.0115

                      7                      8                      9
                      A                      A                      A
 Frequencies --    195.2828               200.1333               221.9640
 Red. masses --      9.7119                10.7537                 7.3991
 Frc consts  --      0.2182                 0.2538                 0.2148
 IR Inten    --      1.6984                 1.8694                 1.5543

                     10                     11                     12
                      A                      A                      A
 Frequencies --    255.9318               299.4414               329.9426
 Red. masses --      6.9111                 1.5621                 5.1109
 Frc consts  --      0.2667                 0.0825                 0.3278
 IR Inten    --      2.7905                83.2121                 8.2883

                     13                     14                     15
                      A                      A                      A
 Frequencies --    364.6566               371.6578               417.4630
 Red. masses --      2.8719                 3.3968                 3.4107
 Frc consts  --      0.2250                 0.2764                 0.3502
 IR Inten    --     36.1519                33.9733                 8.8263

                     16                     17                     18
                      A                      A                      A
 Frequencies --    424.7642               456.3713               490.7153
 Red. masses --      1.5915                 2.9839                 7.1052
 Frc consts  --      0.1692                 0.3662                 1.0081
 IR Inten    --     46.7843                 2.8423                 1.2091

                     19                     20                     21
                      A                      A                      A
 Frequencies --    515.1820               526.8140               531.3129
 Red. masses --     10.0394                 3.7598                 8.2426
 Frc consts  --      1.5699                 0.6148                 1.3709
 IR Inten    --     21.8959                24.2569                 2.1507

                     22                     23                     24
                      A                      A                      A
 Frequencies --    606.2085               616.9132               646.4150
 Red. masses --     11.3742                 1.7517                 8.8699
 Frc consts  --      2.4627                 0.3928                 2.1837
 IR Inten    --      3.1193               113.6646                 1.1925

                     25                     26                     27
                      A                      A                      A
 Frequencies --    657.4073               724.7876               729.6398
 Red. masses --     13.8619                 3.5949                 6.8971
 Frc consts  --      3.5297                 1.1126                 2.1634
 IR Inten    --      2.6202                57.8966                61.1835

                     28                     29                     30
                      A                      A                      A
 Frequencies --    740.7604               758.3623               804.6446
 Red. masses --      5.9979                 4.9090                 1.2045
 Frc consts  --      1.9391                 1.6634                 0.4595
 IR Inten    --      2.3728                16.8090                19.5100

                     31                     32                     33
                      A                      A                      A
 Frequencies --    844.5481               883.3457               899.4272
 Red. masses --      4.5087                 1.4103                 4.8131
 Frc consts  --      1.8948                 0.6484                 2.2941
 IR Inten    --     47.7736                26.2788                29.8676

                     34                     35                     36
                      A                      A                      A
 Frequencies --    962.9245               975.3114              1011.4393
 Red. masses --      2.3512                 2.6078                 1.2964
 Frc consts  --      1.2845                 1.4615                 0.7814
 IR Inten    --     99.2396                71.3371                 0.2610

                     37                     38                     39
                      A                      A                      A
 Frequencies --   1032.3696              1041.0554              1061.8164
 Red. masses --      9.8549                 3.7125                 6.7635
 Frc consts  --      6.1883                 2.3707                 4.4928
 IR Inten    --     77.2162                14.6580                87.3040

                     40                     41                     42
                      A                      A                      A
 Frequencies --   1110.1921              1135.4929              1185.8365
 Red. masses --      3.5915                 2.4691                 1.4509
 Frc consts  --      2.6081                 1.8757                 1.2021
 IR Inten    --     90.8971                11.9866                49.2879

                     43                     44                     45
                      A                      A                      A
 Frequencies --   1186.7698              1261.6285              1312.1616
 Red. masses --      1.7565                 1.4236                 5.6293
 Frc consts  --      1.4576                 1.3351                 5.7106
 IR Inten    --      1.2430                 0.3159                25.3782

                     46                     47                     48
                      A                      A                      A
 Frequencies --   1334.0717              1358.0016              1418.7592
 Red. masses --      1.5702                 1.5865                 2.4652
 Frc consts  --      1.6465                 1.7238                 2.9236
 IR Inten    --      4.1079               174.0520                29.6243

                     49                     50                     51
                      A                      A                      A
 Frequencies --   1439.2996              1456.5469              1486.0055
 Red. masses --      9.1450                 2.2630                 8.3999
 Frc consts  --     11.1619                 2.8286                10.9286
 IR Inten    --     61.0456                29.5211                19.9658

                     52                     53                     54
                      A                      A                      A
 Frequencies --   1515.8137              1599.8462              1647.1377
 Red. masses --      3.0566                 6.2562                 5.1026
 Frc consts  --      4.1380                 9.4345                 8.1565
 IR Inten    --    136.9930                29.7336                85.6163

                     55                     56                     57
                      A                      A                      A
 Frequencies --   1655.3985              1721.3893              3209.5673
 Red. masses --      1.2896                 4.5906                 1.0906
 Frc consts  --      2.0822                 8.0146                 6.6190
 IR Inten    --     43.2625               122.2602                 4.0503

                     58                     59                     60
                      A                      A                      A
 Frequencies --   3216.3230              3261.8967              3266.7168
 Red. masses --      1.0913                 1.0939                 1.0948
 Frc consts  --      6.6515                 6.8573                 6.8837
 IR Inten    --      7.0127                27.5416                 1.0644

                     61                     62                     63
                      A                      A                      A
 Frequencies --   3559.1916              3662.8998              3782.0165
 Red. masses --      1.0466                 1.0994                 1.0679
 Frc consts  --      7.8118                 8.6905                 8.9997
 IR Inten    --     31.6426                24.5832               117.3341

 - Thermochemistry -
 -------------------
 Temperature   298.150 Kelvin.  Pressure   1.00000 Atm.
 Atom     1 has atomic number  6 and mass  12.00000

 Molecular mass:   253.00920 amu.
 Principal axes and moments of inertia in atomic units:
                           1         2         3
     Eigenvalues --  1140.94612********************
           X            1.00000   0.00023   0.00135
           Y           -0.00024   0.99997   0.00781
           Z           -0.00134  -0.00781   0.99997
 This molecule is an asymmetric top.
 Rotational symmetry number  1.
 Warning -- assumption of classical behavior for rotation
           may cause significant error
 Rotational temperatures (Kelvin)      0.07591     0.00764     0.00700
 Rotational constants (GHZ):           1.58179     0.15912     0.14582
 Zero-point vibrational energy     411453.3 (Joules/Mol)
                                   98.33970 (Kcal/Mol)
 Warning -- explicit consideration of  23 degrees of freedom as
           vibrations may cause significant error
 Vibrational temperatures:     12.82    40.43    99.97   104.86   118.96
          (Kelvin)            209.46   280.97   287.95   319.36   368.23
                              430.83   474.71   524.66   534.73   600.64
                              611.14   656.62   706.03   741.23   757.97
                              764.44   872.20   887.60   930.05   945.86
                             1042.81  1049.79  1065.79  1091.11  1157.70
                             1215.12  1270.94  1294.08  1385.43  1403.26
                             1455.24  1485.35  1497.85  1527.72  1597.32
                             1633.72  1706.15  1707.50  1815.20  1887.91
                             1919.43  1953.86  2041.28  2070.83  2095.65
                             2138.03  2180.92  2301.82  2369.86  2381.75
                             2476.70  4617.85  4627.57  4693.14  4700.08
                             5120.88  5270.10  5441.48

 Zero-point correction=                           0.156714 (Hartree/Particle)
 Thermal correction to Energy=                    0.171262
 Thermal correction to Enthalpy=                  0.172206
 Thermal correction to Gibbs Free Energy=         0.111862
 Sum of electronic and zero-point Energies=          -1454.223108
 Sum of electronic and thermal Energies=             -1454.208560
 Sum of electronic and thermal Enthalpies=           -1454.207616
 Sum of electronic and thermal Free Energies=        -1454.267960

                     E (Thermal)             CV                S
                      KCal/Mol        Cal/Mol-Kelvin    Cal/Mol-Kelvin
 Total                  107.468             53.843            127.004
 Electronic               0.000              0.000              0.000
 Translational            0.889              2.981             42.485
 Rotational               0.889              2.981             33.437
 Vibrational            105.691             47.881             51.082
 Vibration     1          0.593              1.987              8.240
 Vibration     2          0.593              1.984              5.959
 Vibration     3          0.598              1.969              4.168
 Vibration     4          0.599              1.967              4.074
 Vibration     5          0.600              1.961              3.826
 Vibration     6          0.617              1.907              2.729
 Vibration     7          0.636              1.846              2.177
 Vibration     8          0.638              1.840              2.132
 Vibration     9          0.648              1.808              1.943
 Vibration    10          0.666              1.753              1.689
 Vibration    11          0.692              1.675              1.420
 Vibration    12          0.713              1.616              1.260
 Vibration    13          0.738              1.545              1.102
 Vibration    14          0.743              1.530              1.073
 Vibration    15          0.780              1.432              0.901
 Vibration    16          0.787              1.416              0.876
 Vibration    17          0.815              1.347              0.777
 Vibration    18          0.847              1.271              0.682
 Vibration    19          0.870              1.216              0.621
 Vibration    20          0.882              1.191              0.594
 Vibration    21          0.886              1.181              0.584
 Vibration    22          0.965              1.019              0.439
 Vibration    23          0.977              0.996              0.421

                           ! Non-Optimized Parameters !
 Normal termination of Gaussian 16 at Thu Dec 10 23:56:55 2020.

 ----------------------------------------------------------------------
 # B3LYP/6-311++G(d,p) empiricaldispersion=gd3bj scf=xqc pop=npa geom=c
 heck
 ----------------------------------------------------------------------

 --------------------------------------
 CID_43187788_JID_6596_Energie_neutraal
 --------------------------------------
 Structure from the checkpoint file:  "JID_6596.chk"
 Charge =  0 Multiplicity = 1

 SCF Done:  E(RB3LYP) =  -1454.62258295     A.U. after   17 cycles
 Normal termination of Gaussian 16 at Thu Dec 10 23:59:20 2020.

 ----------------------------------------------------------------------
 # B3LYP/6-311++G(d,p) empiricaldispersion=gd3bj scf=xqc pop=npa geom=c
 heck
 ----------------------------------------------------------------------

 ------------------------------------
 CID_43187788_JID_6596_Energie_kation
 ------------------------------------
 Structure from the checkpoint file:  "JID_6596.chk"
 Charge =  1 Multiplicity = 2

 SCF Done:  E(UB3LYP) =  -1454.33487040     A.U. after   26 cycles
 Normal termination of Gaussian 16 at Fri Dec 11 00:04:21 2020.
 Gaussian 16:  ES64L-G16RevA.03 25-Dec-2016

 ----------------------------------------------------------------------
 # B3LYP/6-311++G(d,p) empiricaldispersion=gd3bj scf=xqc pop=npa geom=c
 heck
 ----------------------------------------------------------------------

 -----------------------------------
 CID_43187788_JID_6596_Energie_anion
 -----------------------------------
 Structure from the checkpoint file:  "JID_6596.chk"
 Charge = -1 Multiplicity = 2

                         Standard orientation:
 ---------------------------------------------------------------------
 Center     Atomic      Atomic             Coordinates (Angstroms)
 Number     Number       Type             X           Y           Z
 ---------------------------------------------------------------------
      1          6           0        1.557335    1.051299   -0.026567
      2          6           0        0.208920    0.709995    0.037174
      3          6           0       -0.094991   -0.647761    0.150645
      4          7           0        0.821333   -1.617365    0.218165
      5          6           0        2.105340   -1.270124    0.169948
      6          6           0        2.540624    0.057855    0.040048
      7          6           0        3.979047    0.381201   -0.012936
      8          7           0        4.782237   -0.537312   -0.442517
      9          8           0        6.120770   -0.065172   -0.380997
     10          7           0        4.369961    1.662017    0.336007
     11         16           0       -1.728262   -1.393983    0.239157
     12          6           0       -2.912337   -0.105598    0.055999
     13          7           0       -2.739902    1.184790    0.145935
     14          7           0       -3.900732    1.897858   -0.023353
     15          6           0       -4.930684    1.135695   -0.225503
     16         16           0       -4.586124   -0.574705   -0.253920
     17          1           0        1.842942    2.091640   -0.148991
     18          1           0       -0.574334    1.454306    0.001137
     19          1           0        2.833426   -2.072646    0.237924
     20          1           0        6.615215   -0.818501   -0.735182
     21          1           0        3.855614    2.079307    1.101051
     22          1           0        5.374354    1.761034    0.422326
     23          1           0       -5.933012    1.519967   -0.366596
 ---------------------------------------------------------------------

 SCF Done:  E(UB3LYP) =  -1454.63784300     A.U. after   31 cycles

 The electronic state is 2-A.
 Alpha  occ. eigenvalues --  -88.76059 -88.75001 -19.05250 -14.22070 -14.22026
 Alpha  occ. eigenvalues --  -14.21757 -14.20630 -14.18130 -10.12434 -10.11915
 Alpha  occ. eigenvalues --  -10.10397 -10.09972 -10.07982 -10.05707 -10.05083
 Alpha  occ. eigenvalues --  -10.04822  -7.84754  -7.83528  -5.81028  -5.80711
 Alpha  occ. eigenvalues --   -5.80347  -5.79931  -5.79469  -5.78970  -0.96803
 Alpha  occ. eigenvalues --   -0.90218  -0.83026  -0.82029  -0.72313  -0.71813
 Alpha  occ. eigenvalues --   -0.68626  -0.67785  -0.65647  -0.60391  -0.52894
 Alpha  occ. eigenvalues --   -0.50323  -0.49122  -0.46342  -0.44121  -0.43480
 Alpha  occ. eigenvalues --   -0.41330  -0.39051  -0.35916  -0.35313  -0.34344
 Alpha  occ. eigenvalues --   -0.32723  -0.31779  -0.30984  -0.30829  -0.28676
 Alpha  occ. eigenvalues --   -0.28495  -0.28369  -0.25572  -0.23405  -0.22413
 Alpha  occ. eigenvalues --   -0.20475  -0.17978  -0.17624  -0.17577  -0.16965
 Alpha  occ. eigenvalues --   -0.15444  -0.14433  -0.13952  -0.12418  -0.09608
 Alpha  occ. eigenvalues --    0.03719
 Alpha virt. eigenvalues --    0.06839   0.07173   0.08184   0.08618   0.09523
 Alpha virt. eigenvalues --    0.10573   0.10871   0.11540   0.11709   0.12536
 Alpha virt. eigenvalues --    0.12691   0.13660   0.14334   0.14883   0.15404

  Beta  occ. eigenvalues --  -88.76007 -88.75031 -19.05206 -14.22063 -14.22055
  Beta  occ. eigenvalues --  -14.21506 -14.20531 -14.18052 -10.12112 -10.11896
  Beta  occ. eigenvalues --  -10.10131 -10.09668 -10.07985 -10.05577 -10.04861
  Beta  occ. eigenvalues --  -10.04854  -7.84707  -7.83554  -5.81009  -5.80691
  Beta  occ. eigenvalues --   -5.80168  -5.79962  -5.79499  -5.79029  -0.96621
  Beta  occ. eigenvalues --   -0.90005  -0.82838  -0.81825  -0.72027  -0.71509
  Beta  occ. eigenvalues --   -0.68287  -0.67446  -0.65368  -0.60207  -0.52603
  Beta  occ. eigenvalues --   -0.50048  -0.48768  -0.46142  -0.43842  -0.43385
  Beta  occ. eigenvalues --   -0.41228  -0.38866  -0.35752  -0.35149  -0.34201
  Beta  occ. eigenvalues --   -0.32559  -0.30951  -0.30605  -0.30298  -0.28520
  Beta  occ. eigenvalues --   -0.28309  -0.27564  -0.25426  -0.23021  -0.22257
  Beta  occ. eigenvalues --   -0.19772  -0.17909  -0.17246  -0.16752  -0.16026
  Beta  occ. eigenvalues --   -0.14533  -0.14254  -0.13800  -0.11709  -0.08877
  Beta virt. eigenvalues --    0.06813   0.08176   0.08434   0.08608   0.09346
  Beta virt. eigenvalues --    0.09874   0.10587   0.10958   0.11591   0.11743
  Beta virt. eigenvalues --    0.12621   0.13027   0.13673   0.14647   0.15097

 Mulliken charges and spin densities:
               1          2
     1  C   -0.204557   0.143988
     2  C   -0.381553  -0.017405
     3  C   -0.490333   0.189520
     4  N    0.098925   0.031562
     5  C   -0.190816   0.012828
     6  C    1.084093   0.113155
     7  C   -0.553163  -0.031340
     8  N   -0.383526   0.125295
     9  O   -0.136178   0.002106
    10  N   -0.344652  -0.000450
    11  S   -0.125920  -0.046344
    12  C   -0.322240   0.196817
    13  N   -0.005433   0.043516
    14  N   -0.067597  -0.026003
    15  C   -0.312186   0.176093
    16  S   -0.275025   0.086817
    17  H    0.151914   0.000958
    18  H    0.290334   0.000198
    19  H    0.211608   0.000649
    20  H    0.256073   0.006553
    21  H    0.219292  -0.004615
    22  H    0.277162   0.008558
    23  H    0.203778  -0.012454
 Sum of Mulliken charges =  -1.00000   1.00000

 Dipole moment (field-independent basis, Debye):
    X=              1.5165    Y=              0.2941    Z=              0.7799  Tot=              1.7305
 Quadrupole moment (field-independent basis, Debye-Ang):
   XX=           -155.6019   YY=           -125.0305   ZZ=           -114.5782
   XY=              7.5827   XZ=              5.7526   YZ=              2.9723

 Summary of Natural Population Analysis:

                                       Natural Population
                Natural  -----------------------------------------------
    Atom  No    Charge         Core      Valence    Rydberg      Total
 -----------------------------------------------------------------------
      C    1   -0.05449      0.99955     2.04678    0.00816     3.05449
      C    2   -0.14216      0.99949     2.13316    0.00951     3.14216
      C    3    0.08862      0.99946     1.89524    0.01668     2.91138
      N    4   -0.24135      0.99965     2.72860    0.01310     3.74135
      C    5    0.04596      0.99956     1.94032    0.01416     2.95404
      C    6   -0.03871      0.99947     2.03081    0.00843     3.03871
      C    7    0.18889      0.99961     1.79441    0.01709     2.81111
      N    8   -0.09566      0.99962     2.58109    0.01495     3.59566
      O    9   -0.31161      0.99990     3.30449    0.00722     4.31161
      N   10   -0.40827      0.99971     2.89942    0.00914     3.90827
      S   11    0.15369      4.99941     2.82472    0.02218     7.84631
      C   12   -0.01773      0.99962     1.99963    0.01848     3.01773
      N   13   -0.16952      0.99959     2.65290    0.01703     3.66952
      N   14   -0.15482      0.99968     2.63923    0.01591     3.65482
      C   15   -0.03040      0.99968     2.01372    0.01700     3.03040
      S   16    0.16721      4.99944     2.81269    0.02066     7.83279
      H   17    0.09679      0.00000     0.40199    0.00122     0.40321
      H   18    0.12562      0.00000     0.37265    0.00174     0.37438
      H   19    0.09340      0.00000     0.40518    0.00142     0.40660
      H   20    0.23092      0.00000     0.26584    0.00324     0.26908
      H   21    0.18636      0.00000     0.31191    0.00173     0.31364
      H   22    0.19400      0.00000     0.30444    0.00156     0.30600
      H   23    0.09325      0.00000     0.40525    0.00150     0.40675
 =======================================================================
   * Total *    0.00000     23.99344    40.76447    0.24209    65.00000

 Normal termination of Gaussian 16 at Fri Dec 11 00:10:13 2020.
