 Gaussian 16, Revision A.03,

 -----------------------------------------------------------
 # opt freq B3LYP/6-31G(d) empiricaldispersion=gd3bj scf=xqc
 -----------------------------------------------------------

 ------------------------------
 CID_80452164_JID_9206_neutraal
 ------------------------------
 Symbolic Z-matrix:
 Charge =  0 Multiplicity = 1

 SCF Done:  E(RB3LYP) =  -1206.08459534     A.U. after   15 cycles
 SCF Done:  E(RB3LYP) =  -1206.09397569     A.U. after   12 cycles
 SCF Done:  E(RB3LYP) =  -1206.09534113     A.U. after   12 cycles
 SCF Done:  E(RB3LYP) =  -1206.09593299     A.U. after   11 cycles
 SCF Done:  E(RB3LYP) =  -1206.09620994     A.U. after   11 cycles
 SCF Done:  E(RB3LYP) =  -1206.09643095     A.U. after   11 cycles
 SCF Done:  E(RB3LYP) =  -1206.09654943     A.U. after   11 cycles
 SCF Done:  E(RB3LYP) =  -1206.09662149     A.U. after   11 cycles
 SCF Done:  E(RB3LYP) =  -1206.09666115     A.U. after   11 cycles
 SCF Done:  E(RB3LYP) =  -1206.09666846     A.U. after    9 cycles
 SCF Done:  E(RB3LYP) =  -1206.09667685     A.U. after    7 cycles
 SCF Done:  E(RB3LYP) =  -1206.09667697     A.U. after    7 cycles
 SCF Done:  E(RB3LYP) =  -1206.09667706     A.U. after    7 cycles
 SCF Done:  E(RB3LYP) =  -1206.09667710     A.U. after    7 cycles
 SCF Done:  E(RB3LYP) =  -1206.09667712     A.U. after    6 cycles
 Optimization completed.
    -- Stationary point found.
 Normal termination of Gaussian 16 at Mon Dec 14 13:33:56 2020.

 --------------------------------------------------------------------
 #N Geom=AllCheck Guess=TCheck SCRF=Check GenChk RB3LYP/6-31G(d) Freq
 --------------------------------------------------------------------

 Structure from the checkpoint file:  "JID_9206.chk"
 ------------------------------
 CID_80452164_JID_9206_neutraal
 ------------------------------
 Charge =  0 Multiplicity = 1

 SCF Done:  E(RB3LYP) =  -1206.09667712     A.U. after    1 cycles

  Exact polarizability: 223.716  -6.263 198.433  -6.094  -5.714 141.184
 Approx polarizability: 291.120 -13.562 308.233 -18.842 -11.595 213.663

                      1                      2                      3
                      A                      A                      A
 Frequencies --     20.1327                27.0559                37.5165
 Red. masses --      3.8357                 3.1165                 4.5755
 Frc consts  --      0.0009                 0.0013                 0.0038
 IR Inten    --      0.1518                 0.3542                 0.8512

                      4                      5                      6
                      A                      A                      A
 Frequencies --     41.0185                52.2351                70.7825
 Red. masses --      3.7378                 3.9614                 2.1273
 Frc consts  --      0.0037                 0.0064                 0.0063
 IR Inten    --      0.3594                 1.3327                 0.0998

                      7                      8                      9
                      A                      A                      A
 Frequencies --     73.7287                85.7222                99.7973
 Red. masses --      3.7319                 2.8452                 4.5690
 Frc consts  --      0.0120                 0.0123                 0.0268
 IR Inten    --      0.9546                 3.0798                 0.7376

                     10                     11                     12
                      A                      A                      A
 Frequencies --    103.8322               120.5112               140.4848
 Red. masses --      2.4791                 2.9447                 3.1500
 Frc consts  --      0.0157                 0.0252                 0.0366
 IR Inten    --      1.9396                 1.7627                 1.2395

                     13                     14                     15
                      A                      A                      A
 Frequencies --    182.0431               203.0354               219.1696
 Red. masses --      3.3328                 3.1598                 1.0547
 Frc consts  --      0.0651                 0.0767                 0.0298
 IR Inten    --      0.9947                 0.3421                 0.3256

                     16                     17                     18
                      A                      A                      A
 Frequencies --    229.1523               236.0916               250.0274
 Red. masses --      1.6365                 2.4333                 2.7810
 Frc consts  --      0.0506                 0.0799                 0.1024
 IR Inten    --      2.4546                 7.2043                 1.0714

                     19                     20                     21
                      A                      A                      A
 Frequencies --    258.8466               273.5930               318.4984
 Red. masses --      2.2163                 1.7546                 3.3445
 Frc consts  --      0.0875                 0.0774                 0.1999
 IR Inten    --      1.8693                 0.6966                 2.7793

                     22                     23                     24
                      A                      A                      A
 Frequencies --    323.8477               337.3063               356.7362
 Red. masses --      2.9635                 3.0286                 1.9429
 Frc consts  --      0.1831                 0.2030                 0.1457
 IR Inten    --      0.2828                 1.0642                71.5619

                     25                     26                     27
                      A                      A                      A
 Frequencies --    392.5286               395.8722               429.6962
 Red. masses --      2.6271                 1.7515                 3.4859
 Frc consts  --      0.2385                 0.1617                 0.3792
 IR Inten    --     18.1067                62.3994                 3.4580

                     28                     29                     30
                      A                      A                      A
 Frequencies --    450.1310               470.1533               486.4110
 Red. masses --      3.1377                 3.0873                 3.0358
 Frc consts  --      0.3746                 0.4021                 0.4232
 IR Inten    --      3.1902                 0.1736                 9.6971

                     31                     32                     33
                      A                      A                      A
 Frequencies --    535.2102               583.7069               604.9321
 Red. masses --      3.2707                 3.4805                 7.4181
 Frc consts  --      0.5520                 0.6987                 1.5994
 IR Inten    --      3.5169                10.6567                 2.6919

                     34                     35                     36
                      A                      A                      A
 Frequencies --    636.1747               686.1589               711.4716
 Red. masses --      4.3509                 5.5009                 7.8547
 Frc consts  --      1.0375                 1.5259                 2.3426
 IR Inten    --     10.5939                 1.4153                 1.8785

                     37                     38                     39
                      A                      A                      A
 Frequencies --    732.8191               766.9629               788.1890
 Red. masses --      4.3203                 1.3583                 1.3775
 Frc consts  --      1.3670                 0.4707                 0.5042
 IR Inten    --     14.9356                 2.3457                 1.3351

                     40                     41                     42
                      A                      A                      A
 Frequencies --    810.5817               820.5265               846.2962
 Red. masses --      1.5116                 1.3396                 1.9989
 Frc consts  --      0.5852                 0.5314                 0.8435
 IR Inten    --      3.6120                 5.5923                 2.2167

                     43                     44                     45
                      A                      A                      A
 Frequencies --    873.5589               893.6236               946.2392
 Red. masses --      2.5111                 2.3628                 2.2842
 Frc consts  --      1.1290                 1.1117                 1.2050
 IR Inten    --      3.4705                 4.8463                16.0424

                     46                     47                     48
                      A                      A                      A
 Frequencies --    950.0318               974.3665               986.6460
 Red. masses --      4.4224                 1.4591                 2.2829
 Frc consts  --      2.3517                 0.8161                 1.3094
 IR Inten    --      9.7767                 0.7522                 6.3282

                     49                     50                     51
                      A                      A                      A
 Frequencies --    992.8092              1024.7642              1046.5057
 Red. masses --      1.4424                 2.6411                 3.1785
 Frc consts  --      0.8376                 1.6341                 2.0509
 IR Inten    --     11.5322                86.1320                52.5443

                     52                     53                     54
                      A                      A                      A
 Frequencies --   1050.7029              1061.1330              1069.5591
 Red. masses --      2.9198                 2.5729                 1.3544
 Frc consts  --      1.8992                 1.7069                 0.9129
 IR Inten    --     59.3267                 2.1158                12.1842

                     55                     56                     57
                      A                      A                      A
 Frequencies --   1087.5969              1097.5640              1117.0568
 Red. masses --      1.3791                 1.8268                 1.9355
 Frc consts  --      0.9611                 1.2966                 1.4229
 IR Inten    --      2.0969                45.9349                19.7637

                     58                     59                     60
                      A                      A                      A
 Frequencies --   1130.7076              1144.7220              1169.9590
 Red. masses --      1.1144                 2.1560                 3.2914
 Frc consts  --      0.8394                 1.6646                 2.6544
 IR Inten    --      1.8538                 0.6889               119.4381

                     61                     62                     63
                      A                      A                      A
 Frequencies --   1179.3081              1186.9558              1193.9831
 Red. masses --      2.2552                 3.0021                 1.5475
 Frc consts  --      1.8479                 2.4920                 1.2998
 IR Inten    --     26.2814                15.2849                 5.7301

                     64                     65                     66
                      A                      A                      A
 Frequencies --   1196.1925              1207.2728              1207.6922
 Red. masses --      2.1364                 1.5277                 1.9948
 Frc consts  --      1.8011                 1.3119                 1.7142
 IR Inten    --     18.7637                 1.6442                 3.2968

                     67                     68                     69
                      A                      A                      A
 Frequencies --   1226.8638              1232.6609              1260.1845
 Red. masses --      1.4933                 1.3996                 1.5766
 Frc consts  --      1.3243                 1.2530                 1.4751
 IR Inten    --     38.6085                51.0943                 2.7422

                     70                     71                     72
                      A                      A                      A
 Frequencies --   1277.4577              1300.4956              1306.0738
 Red. masses --      1.8607                 1.3010                 1.3637
 Frc consts  --      1.7890                 1.2964                 1.3706
 IR Inten    --     19.9274                 3.7571                32.5477

                     73                     74                     75
                      A                      A                      A
 Frequencies --   1341.0415              1361.0064              1364.8311
 Red. masses --      1.4793                 3.3791                 1.2515
 Frc consts  --      1.5674                 3.6878                 1.3736
 IR Inten    --     14.4902                84.1599                 4.1117

                     76                     77                     78
                      A                      A                      A
 Frequencies --   1370.9114              1397.9702              1407.2098
 Red. masses --      1.3307                 1.4909                 1.3674
 Frc consts  --      1.4735                 1.7167                 1.5953
 IR Inten    --      2.3016                 0.2101                58.9097

                     79                     80                     81
                      A                      A                      A
 Frequencies --   1414.8196              1431.6741              1433.2176
 Red. masses --      2.4407                 1.2642                 1.2723
 Frc consts  --      2.8785                 1.5267                 1.5398
 IR Inten    --     66.1227                 3.4725               162.9895

                     82                     83                     84
                      A                      A                      A
 Frequencies --   1439.3399              1441.0290              1446.7271
 Red. masses --      1.3942                 1.2380                 1.3350
 Frc consts  --      1.7018                 1.5147                 1.6463
 IR Inten    --     14.6151                 0.1182                20.4804

                     85                     86                     87
                      A                      A                      A
 Frequencies --   1470.4011              1503.2375              1509.6960
 Red. masses --      1.0897                 1.1590                 1.1520
 Frc consts  --      1.3881                 1.5431                 1.5470
 IR Inten    --      2.8168                 4.7408                18.7227

                     88                     89                     90
                      A                      A                      A
 Frequencies --   1515.4379              1516.6600              1522.4949
 Red. masses --      1.0487                 1.0633                 1.0564
 Frc consts  --      1.4190                 1.4410                 1.4427
 IR Inten    --      6.0161                 0.6206                 2.5107

                     91                     92                     93
                      A                      A                      A
 Frequencies --   1527.9964              1529.8840              1530.3789
 Red. masses --      1.3018                 1.0931                 1.0938
 Frc consts  --      1.7907                 1.5074                 1.5093
 IR Inten    --     34.2264                 3.2213                32.1997

                     94                     95                     96
                      A                      A                      A
 Frequencies --   1531.7617              1535.4240              1541.9040
 Red. masses --      1.0907                 1.0697                 1.0504
 Frc consts  --      1.5077                 1.4858                 1.4713
 IR Inten    --      4.8255                 7.2873                 1.2726

                     97                     98                     99
                      A                      A                      A
 Frequencies --   1551.5485              1610.8254              1618.8897
 Red. masses --      1.0929                 5.6650                 6.8498
 Frc consts  --      1.5502                 8.6606                10.5770
 IR Inten    --      1.0093               374.5652               204.6209

                    100                    101                    102
                      A                      A                      A
 Frequencies --   2976.8257              2996.1334              3020.9236
 Red. masses --      1.0594                 1.0404                 1.0687
 Frc consts  --      5.5310                 5.5028                 5.7461
 IR Inten    --     41.2781                88.5126                46.3580

                    103                    104                    105
                      A                      A                      A
 Frequencies --   3025.2028              3041.1963              3044.1542
 Red. masses --      1.0976                 1.1050                 1.0551
 Frc consts  --      5.9182                 6.0213                 5.7605
 IR Inten    --     47.2944                52.8269                17.3734

                    106                    107                    108
                      A                      A                      A
 Frequencies --   3044.5346              3049.8585              3056.9615
 Red. masses --      1.0442                 1.0807                 1.0358
 Frc consts  --      5.7026                 5.9227                 5.7030
 IR Inten    --     30.4543                39.2083                20.9277

                    109                    110                    111
                      A                      A                      A
 Frequencies --   3071.3501              3082.1995              3084.4790
 Red. masses --      1.0617                 1.0996                 1.0965
 Frc consts  --      5.9007                 6.1545                 6.1462
 IR Inten    --     29.7761                21.1347                28.7514

                    112                    113                    114
                      A                      A                      A
 Frequencies --   3109.3277              3116.3373              3118.1236
 Red. masses --      1.1008                 1.1051                 1.1026
 Frc consts  --      6.2706                 6.3235                 6.3163
 IR Inten    --     38.8031                18.9585                50.0635

                    115                    116                    117
                      A                      A                      A
 Frequencies --   3124.7966              3136.2003              3141.6285
 Red. masses --      1.1011                 1.1026                 1.0971
 Frc consts  --      6.3347                 6.3897                 6.3798
 IR Inten    --     31.3500                35.4860                28.5182

                    118                    119                    120
                      A                      A                      A
 Frequencies --   3156.4837              3160.8925              3221.9456
 Red. masses --      1.0580                 1.0607                 1.0900
 Frc consts  --      6.2110                 6.2442                 6.6670
 IR Inten    --     20.5715                20.0461                 8.0060

                    121                    122                    123
                      A                      A                      A
 Frequencies --   3261.0709              3267.1053              3730.7707
 Red. masses --      1.1120                 1.1110                 1.0660
 Frc consts  --      6.9675                 6.9872                 8.7415
 IR Inten    --      0.4528                 7.9373                 7.4289

 - Thermochemistry -
 -------------------
 Temperature   298.150 Kelvin.  Pressure   1.00000 Atm.
 Atom     1 has atomic number  6 and mass  12.00000

 Molecular mass:   284.15585 amu.
 Principal axes and moments of inertia in atomic units:
                           1         2         3
     Eigenvalues --  3944.227978280.42550**********
           X            0.99970   0.02444   0.00338
           Y           -0.02444   0.99970   0.00008
           Z           -0.00338  -0.00016   0.99999
 This molecule is an asymmetric top.
 Rotational symmetry number  1.
 Warning -- assumption of classical behavior for rotation
           may cause significant error
 Rotational temperatures (Kelvin)      0.02196     0.01046     0.00807
 Rotational constants (GHZ):           0.45757     0.21795     0.16806
 Zero-point vibrational energy     977986.0 (Joules/Mol)
                                  233.74427 (Kcal/Mol)
 Warning -- explicit consideration of  33 degrees of freedom as
           vibrations may cause significant error
 Vibrational temperatures:     28.97    38.93    53.98    59.02    75.15
          (Kelvin)            101.84   106.08   123.34   143.59   149.39
                              173.39   202.13   261.92   292.12   315.34
                              329.70   339.68   359.73   372.42   393.64
                              458.25   465.94   485.31   513.26   564.76
                              569.57   618.24   647.64   676.45   699.84
                              770.05   839.82   870.36   915.31   987.23
                             1023.65  1054.36  1103.49  1134.03  1166.25
                             1180.55  1217.63  1256.86  1285.73  1361.43
                             1366.88  1401.90  1419.56  1428.43  1474.41
                             1505.69  1511.73  1526.73  1538.86  1564.81
                             1579.15  1607.20  1626.84  1647.00  1683.31
                             1696.76  1707.76  1717.88  1721.05  1737.00
                             1737.60  1765.18  1773.52  1813.12  1837.98
                             1871.12  1879.15  1929.46  1958.18  1963.69
                             1972.44  2011.37  2024.66  2035.61  2059.86
                             2062.08  2070.89  2073.32  2081.52  2115.58
                             2162.82  2172.12  2180.38  2182.14  2190.53
                             2198.45  2201.16  2201.87  2203.86  2209.13
                             2218.46  2232.33  2317.62  2329.22  4282.99
                             4310.77  4346.44  4352.59  4375.60  4379.86
                             4380.41  4388.07  4398.29  4418.99  4434.60
                             4437.88  4473.63  4483.71  4486.28  4495.89
                             4512.29  4520.10  4541.48  4547.82  4635.66
                             4691.95  4700.64  5367.75

 Zero-point correction=                           0.372495 (Hartree/Particle)
 Thermal correction to Energy=                    0.394426
 Thermal correction to Enthalpy=                  0.395370
 Thermal correction to Gibbs Free Energy=         0.318903
 Sum of electronic and zero-point Energies=          -1205.724182
 Sum of electronic and thermal Energies=             -1205.702251
 Sum of electronic and thermal Enthalpies=           -1205.701307
 Sum of electronic and thermal Free Energies=        -1205.777774

                     E (Thermal)             CV                S
                      KCal/Mol        Cal/Mol-Kelvin    Cal/Mol-Kelvin
 Total                  247.506             79.242            160.938
 Electronic               0.000              0.000              0.000
 Translational            0.889              2.981             42.831
 Rotational               0.889              2.981             34.216
 Vibrational            245.728             73.281             83.890
 Vibration     1          0.593              1.986              6.621
 Vibration     2          0.593              1.984              6.034
 Vibration     3          0.594              1.982              5.386
 Vibration     4          0.594              1.981              5.209
 Vibration     5          0.596              1.977              4.731
 Vibration     6          0.598              1.968              4.131
 Vibration     7          0.599              1.966              4.051
 Vibration     8          0.601              1.959              3.755
 Vibration     9          0.604              1.949              3.458
 Vibration    10          0.605              1.946              3.381
 Vibration    11          0.609              1.932              3.092
 Vibration    12          0.615              1.913              2.797
 Vibration    13          0.630              1.864              2.307
 Vibration    14          0.639              1.836              2.105
 Vibration    15          0.647              1.812              1.966
 Vibration    16          0.652              1.797              1.886
 Vibration    17          0.655              1.786              1.832
 Vibration    18          0.663              1.763              1.730
 Vibration    19          0.668              1.748              1.670
 Vibration    20          0.676              1.722              1.573
 Vibration    21          0.705              1.638              1.318
 Vibration    22          0.708              1.628              1.291
 Vibration    23          0.718              1.601              1.225
 Vibration    24          0.732              1.561              1.136
 Vibration    25          0.760              1.486              0.991
 Vibration    26          0.763              1.479              0.978
 Vibration    27          0.791              1.406              0.860
 Vibration    28          0.809              1.361              0.795
 Vibration    29          0.827              1.316              0.737
 Vibration    30          0.842              1.280              0.693
 Vibration    31          0.890              1.172              0.576
 Vibration    32          0.941              1.067              0.479
 Vibration    33          0.963              1.021              0.441

 Optimization completed.
    -- Stationary point found.
 Normal termination of Gaussian 16 at Mon Dec 14 13:57:18 2020.

 ----------------------------------------------------------------------
 # B3LYP/6-311++G(d,p) empiricaldispersion=gd3bj scf=xqc pop=npa geom=c
 heck
 ----------------------------------------------------------------------

 --------------------------------------
 CID_80452164_JID_9206_Energie_neutraal
 --------------------------------------
 Structure from the checkpoint file:  "JID_9206.chk"
 Charge =  0 Multiplicity = 1

 SCF Done:  E(RB3LYP) =  -1206.35636094     A.U. after   16 cycles
 Normal termination of Gaussian 16 at Mon Dec 14 14:09:49 2020.

 ----------------------------------------------------------------------
 # B3LYP/6-311++G(d,p) empiricaldispersion=gd3bj scf=xqc pop=npa geom=c
 heck
 ----------------------------------------------------------------------

 ------------------------------------
 CID_80452164_JID_9206_Energie_kation
 ------------------------------------
 Structure from the checkpoint file:  "JID_9206.chk"
 Charge =  1 Multiplicity = 2

 SCF Done:  E(UB3LYP) =  -1206.10162147     A.U. after   22 cycles
 Normal termination of Gaussian 16 at Mon Dec 14 14:33:59 2020.
 Gaussian 16:  ES64L-G16RevA.03 25-Dec-2016

 ----------------------------------------------------------------------
 # B3LYP/6-311++G(d,p) empiricaldispersion=gd3bj scf=xqc pop=npa geom=c
 heck
 ----------------------------------------------------------------------

 -----------------------------------
 CID_80452164_JID_9206_Energie_anion
 -----------------------------------
 Structure from the checkpoint file:  "JID_9206.chk"
 Charge = -1 Multiplicity = 2

                         Standard orientation:
 ---------------------------------------------------------------------
 Center     Atomic      Atomic             Coordinates (Angstroms)
 Number     Number       Type             X           Y           Z
 ---------------------------------------------------------------------
      1          6           0       -4.894804   -1.991695   -0.251547
      2          6           0       -3.537662   -1.362899   -0.575524
      3          6           0       -2.986850   -0.440629    0.534823
      4          6           0       -2.745420   -1.190838    1.855578
      5          6           0       -1.710578    0.215845    0.067336
      6          6           0       -1.528981    1.542273   -0.215153
      7         16           0        0.140963    1.813281   -0.732540
      8          6           0        0.428595    0.063534   -0.549475
      9          7           0       -0.615061   -0.603649   -0.124135
     10          7           0        1.642239   -0.483533   -0.829400
     11          6           0        2.733436    0.365563   -1.289770
     12          6           0        3.564339    0.968683   -0.162534
     13          8           0        4.299787   -0.072020    0.447697
     14          6           0        4.985722    0.349855    1.606871
     15          6           0        1.978914   -1.861046   -0.501930
     16          6           0        1.464328   -2.612380    0.693918
     17          6           0        1.062722   -3.037178   -0.707452
     18          6           0       -2.466318    2.700896   -0.132335
     19          8           0       -2.000256    3.740167    0.731694
     20          1           0       -4.835600   -2.676409    0.600942
     21          1           0       -5.271953   -2.563755   -1.106499
     22          1           0       -5.640286   -1.223216   -0.010839
     23          1           0       -2.795256   -2.145448   -0.774961
     24          1           0       -3.620466   -0.774189   -1.498150
     25          1           0       -3.732822    0.343252    0.716664
     26          1           0       -2.032126   -2.007012    1.703289
     27          1           0       -2.330030   -0.517578    2.613363
     28          1           0       -3.676190   -1.609623    2.250577
     29          1           0        3.387567   -0.234167   -1.930184
     30          1           0        2.323494    1.166672   -1.913730
     31          1           0        4.242789    1.737216   -0.572389
     32          1           0        2.903324    1.461375    0.567643
     33          1           0        5.716129    1.143136    1.380855
     34          1           0        4.290068    0.726279    2.372997
     35          1           0        5.515839   -0.520023    2.002148
     36          1           0        3.024435   -2.025359   -0.728474
     37          1           0        2.183897   -3.207243    1.249751
     38          1           0        0.686592   -2.147465    1.286502
     39          1           0        0.036696   -2.831741   -0.985155
     40          1           0        1.495208   -3.936468   -1.138215
     41          1           0       -2.591063    3.185769   -1.106758
     42          1           0       -3.456551    2.336456    0.177735
     43          1           0       -1.750272    3.312234    1.566318
 ---------------------------------------------------------------------

 SCF Done:  E(UB3LYP) =  -1206.34397614     A.U. after   33 cycles
 SCF Done:  E(UB3LYP) =  -1206.34397614     a.u. after    1 cycles

 The electronic state is 2-A.
 Alpha  occ. eigenvalues --  -88.78343 -19.04282 -19.03725 -14.26709 -14.20594
 Alpha  occ. eigenvalues --  -10.18183 -10.14170 -10.13495 -10.13295 -10.12954
 Alpha  occ. eigenvalues --  -10.12183 -10.11721 -10.10409 -10.09245 -10.08287
 Alpha  occ. eigenvalues --  -10.08074 -10.07960 -10.07457 -10.06823  -7.86982
 Alpha  occ. eigenvalues --   -5.83290  -5.82936  -5.82509  -0.95772  -0.93797
 Alpha  occ. eigenvalues --   -0.90440  -0.84524  -0.76591  -0.72716  -0.71158
 Alpha  occ. eigenvalues --   -0.68206  -0.65613  -0.63119  -0.60581  -0.58842
 Alpha  occ. eigenvalues --   -0.56723  -0.54010  -0.53659  -0.51519  -0.49027
 Alpha  occ. eigenvalues --   -0.47910  -0.44904  -0.43281  -0.42291  -0.40943
 Alpha  occ. eigenvalues --   -0.40660  -0.39996  -0.39038  -0.37599  -0.37036
 Alpha  occ. eigenvalues --   -0.36416  -0.35403  -0.33970  -0.33589  -0.33223
 Alpha  occ. eigenvalues --   -0.32830  -0.31475  -0.30680  -0.30317  -0.29986
 Alpha  occ. eigenvalues --   -0.29449  -0.28632  -0.27946  -0.27411  -0.26361
 Alpha  occ. eigenvalues --   -0.25738  -0.24612  -0.24449  -0.24180  -0.23620
 Alpha  occ. eigenvalues --   -0.21506  -0.20737  -0.18554  -0.18350  -0.17973
 Alpha  occ. eigenvalues --   -0.17278  -0.11007   0.03911
 Alpha virt. eigenvalues --    0.05229   0.06127   0.06501   0.06709   0.07197
 Alpha virt. eigenvalues --    0.07696   0.08057   0.08627   0.08850   0.09176
 Alpha virt. eigenvalues --    0.09524   0.09782   0.10200   0.10485   0.10667

  Beta  occ. eigenvalues --  -88.78339 -19.04273 -19.03706 -14.26708 -14.20590
  Beta  occ. eigenvalues --  -10.18181 -10.14156 -10.13473 -10.13287 -10.12953
  Beta  occ. eigenvalues --  -10.12138 -10.11721 -10.10406 -10.09235 -10.08284
  Beta  occ. eigenvalues --  -10.08067 -10.07953 -10.07432 -10.06803  -7.86977
  Beta  occ. eigenvalues --   -5.83287  -5.82932  -5.82505  -0.95757  -0.93759
  Beta  occ. eigenvalues --   -0.90434  -0.84518  -0.76585  -0.72698  -0.71143
  Beta  occ. eigenvalues --   -0.68182  -0.65591  -0.63089  -0.60535  -0.58793
  Beta  occ. eigenvalues --   -0.56693  -0.53977  -0.53595  -0.51501  -0.48994
  Beta  occ. eigenvalues --   -0.47887  -0.44891  -0.43261  -0.42260  -0.40895
  Beta  occ. eigenvalues --   -0.40634  -0.39956  -0.39017  -0.37574  -0.37010
  Beta  occ. eigenvalues --   -0.36390  -0.35382  -0.33946  -0.33569  -0.33198
  Beta  occ. eigenvalues --   -0.32811  -0.31447  -0.30664  -0.30297  -0.29960
  Beta  occ. eigenvalues --   -0.29422  -0.28603  -0.27931  -0.27388  -0.26340
  Beta  occ. eigenvalues --   -0.25717  -0.24585  -0.24394  -0.24157  -0.23600
  Beta  occ. eigenvalues --   -0.21496  -0.20718  -0.18540  -0.18329  -0.17962
  Beta  occ. eigenvalues --   -0.17263  -0.10989
  Beta virt. eigenvalues --    0.05717   0.06132   0.06420   0.06743   0.07073
  Beta virt. eigenvalues --    0.07621   0.08039   0.08215   0.08776   0.09186
  Beta virt. eigenvalues --    0.09314   0.09591   0.10122   0.10454   0.10611

 Mulliken charges and spin densities:
               1          2
     1  C    0.372784  -1.006172
     2  C   -0.659613   0.391024
     3  C   -0.070696   0.270564
     4  C    0.273211  -0.971511
     5  C   -0.231846   0.017160
     6  C   -0.545366   0.660172
     7  S   -0.184041  -0.215942
     8  C   -0.277100   0.129851
     9  N    0.186457   0.035818
    10  N    0.510492   0.013847
    11  C   -0.352929   0.035535
    12  C    0.061294  -0.255485
    13  O   -0.174218   0.056494
    14  C    1.046094  -1.284807
    15  C   -0.725567   0.635854
    16  C    0.175350  -0.523145
    17  C   -0.156911  -0.300349
    18  C    0.850757  -1.381421
    19  O   -0.240482   0.017933
    20  H   -0.000518   0.145665
    21  H   -0.045376   0.179590
    22  H   -0.253316   0.397878
    23  H    0.136706  -0.036183
    24  H    0.076798   0.071715
    25  H    0.251236  -0.102240
    26  H    0.155137   0.000329
    27  H   -0.177777   0.315837
    28  H   -0.127674   0.260065
    29  H    0.026311   0.175533
    30  H   -0.072632   0.188452
    31  H   -0.307340   0.443937
    32  H    0.107604   0.039107
    33  H   -0.403096   0.538246
    34  H   -0.304045   0.440979
    35  H   -0.291889   0.423244
    36  H    0.102386   0.161300
    37  H   -0.001310   0.154107
    38  H    0.197318   0.012275
    39  H    0.094722   0.127105
    40  H    0.062459   0.073231
    41  H    0.101676   0.083153
    42  H   -0.241443   0.384614
    43  H    0.056393   0.196639
 Sum of Mulliken charges =  -1.00000   1.00000

 Dipole moment (field-independent basis, Debye):
    X=             -1.6601    Y=             -2.6262    Z=             -4.3082  Tot=              5.3117
 Quadrupole moment (field-independent basis, Debye-Ang):
   XX=           -240.5176   YY=           -178.3178   ZZ=           -161.2992
   XY=             -7.7149   XZ=             -7.5178   YZ=             -2.6350

 Summary of Natural Population Analysis:

                                       Natural Population
                Natural  -----------------------------------------------
    Atom  No    Charge         Core      Valence    Rydberg      Total
 -----------------------------------------------------------------------
      C    1   -0.28505      0.99967     2.28121    0.00417     3.28505
      C    2   -0.18519      0.99962     2.17683    0.00874     3.18519
      C    3   -0.12096      0.99955     2.10930    0.01211     3.12096
      C    4   -0.28381      0.99965     2.27739    0.00678     3.28381
      C    5    0.08749      0.99941     1.89599    0.01712     2.91251
      C    6   -0.14011      0.99940     2.12878    0.01192     3.14011
      S    7    0.15832      4.99944     2.82513    0.01712     7.84168
      C    8    0.16204      0.99957     1.81923    0.01917     2.83796
      N    9   -0.29485      0.99962     2.78384    0.01138     3.79485
      N   10   -0.24738      0.99960     2.73523    0.01255     3.74738
      C   11   -0.09084      0.99960     2.07968    0.01157     3.09084
      C   12   -0.01540      0.99958     2.00376    0.01206     3.01540
      O   13   -0.30076      0.99988     3.29068    0.01020     4.30076
      C   14   -0.09625      0.99962     2.08736    0.00927     3.09625
      C   15   -0.00799      0.99955     1.99546    0.01298     3.00799
      C   16   -0.20457      0.99963     2.19718    0.00776     3.20457
      C   17   -0.20662      0.99962     2.20052    0.00647     3.20662
      C   18   -0.02371      0.99952     2.01134    0.01285     3.02371
      O   19   -0.36757      0.99990     3.36115    0.00651     4.36757
      H   20    0.09665      0.00000     0.40228    0.00107     0.40335
      H   21    0.09813      0.00000     0.40098    0.00089     0.40187
      H   22    0.09648      0.00000     0.40218    0.00134     0.40352
      H   23    0.09901      0.00000     0.39958    0.00141     0.40099
      H   24    0.09650      0.00000     0.40246    0.00104     0.40350
      H   25    0.09804      0.00000     0.39925    0.00271     0.40196
      H   26    0.10266      0.00000     0.39611    0.00123     0.39734
      H   27    0.10241      0.00000     0.39639    0.00120     0.39759
      H   28    0.09821      0.00000     0.40097    0.00082     0.40179
      H   29    0.10275      0.00000     0.39588    0.00136     0.39725
      H   30    0.10450      0.00000     0.39409    0.00141     0.39550
      H   31    0.08263      0.00000     0.41554    0.00183     0.41737
      H   32    0.08655      0.00000     0.41148    0.00197     0.41345
      H   33    0.08025      0.00000     0.41738    0.00236     0.41975
      H   34    0.08130      0.00000     0.41699    0.00171     0.41870
      H   35    0.09126      0.00000     0.40732    0.00142     0.40874
      H   36    0.10905      0.00000     0.38921    0.00173     0.39095
      H   37    0.10094      0.00000     0.39821    0.00085     0.39906
      H   38    0.11621      0.00000     0.38249    0.00130     0.38379
      H   39    0.11558      0.00000     0.38308    0.00134     0.38442
      H   40    0.09782      0.00000     0.40133    0.00085     0.40218
      H   41    0.08924      0.00000     0.40941    0.00135     0.41076
      H   42    0.08801      0.00000     0.41010    0.00189     0.41199
      H   43    0.22899      0.00000     0.26719    0.00382     0.27101
 =======================================================================
   * Total *    0.00000     22.99243    53.75995    0.24761    77.00000

 Normal termination of Gaussian 16 at Mon Dec 14 15:10:32 2020.
