 Gaussian 16, Revision A.03,

 -----------------------------------------------------------
 # opt freq B3LYP/6-31G(d) empiricaldispersion=gd3bj scf=xqc
 -----------------------------------------------------------

 -------------------------------
 CID_130020145_JID_2574_neutraal
 -------------------------------
 Symbolic Z-matrix:
 Charge =  0 Multiplicity = 1

 SCF Done:  E(RB3LYP) =  -537.308841242     A.U. after   14 cycles
 SCF Done:  E(RB3LYP) =  -537.313349496     A.U. after   12 cycles
 SCF Done:  E(RB3LYP) =  -537.313922575     A.U. after   12 cycles
 SCF Done:  E(RB3LYP) =  -537.314241596     A.U. after   14 cycles
 SCF Done:  E(RB3LYP) =  -537.314636977     A.U. after   11 cycles
 SCF Done:  E(RB3LYP) =  -537.314739401     A.U. after   11 cycles
 SCF Done:  E(RB3LYP) =  -537.314748137     A.U. after   10 cycles
 SCF Done:  E(RB3LYP) =  -537.314750847     A.U. after    9 cycles
 SCF Done:  E(RB3LYP) =  -537.314752481     A.U. after    8 cycles
 SCF Done:  E(RB3LYP) =  -537.314753268     A.U. after    8 cycles
 SCF Done:  E(RB3LYP) =  -537.314753794     A.U. after    8 cycles
 SCF Done:  E(RB3LYP) =  -537.314753988     A.U. after    8 cycles
 SCF Done:  E(RB3LYP) =  -537.314754087     A.U. after    8 cycles
 SCF Done:  E(RB3LYP) =  -537.314754178     A.U. after    8 cycles
 SCF Done:  E(RB3LYP) =  -537.314754250     A.U. after    8 cycles
 SCF Done:  E(RB3LYP) =  -537.314754277     A.U. after    7 cycles
 Optimization completed.
    -- Stationary point found.
 Normal termination of Gaussian 16 at Wed Dec  9 17:42:23 2020.

 --------------------------------------------------------------------
 #N Geom=AllCheck Guess=TCheck SCRF=Check GenChk RB3LYP/6-31G(d) Freq
 --------------------------------------------------------------------

 Structure from the checkpoint file:  "JID_2574.chk"
 -------------------------------
 CID_130020145_JID_2574_neutraal
 -------------------------------
 Charge =  0 Multiplicity = 1

 SCF Done:  E(RB3LYP) =  -537.314754277     A.U. after    1 cycles

  Exact polarizability: 118.983   5.885  98.465  -3.236  -2.308  91.566
 Approx polarizability: 171.695   9.671 134.668 -11.047  -6.380 136.431

                      1                      2                      3
                      A                      A                      A
 Frequencies --     16.6464                50.6044               108.8216
 Red. masses --      3.8862                 5.7452                 4.8305
 Frc consts  --      0.0006                 0.0087                 0.0337
 IR Inten    --      2.4317                 6.3919                 5.3349

                      4                      5                      6
                      A                      A                      A
 Frequencies --    197.4614               204.9158               221.9323
 Red. masses --      1.4828                 1.4664                 1.7465
 Frc consts  --      0.0341                 0.0363                 0.0507
 IR Inten    --      0.8385                 0.9173                16.8304

                      7                      8                      9
                      A                      A                      A
 Frequencies --    227.6631               240.8094               260.4614
 Red. masses --      1.9171                 1.6548                 1.4029
 Frc consts  --      0.0585                 0.0565                 0.0561
 IR Inten    --      0.8713                 9.1375                 4.8886

                     10                     11                     12
                      A                      A                      A
 Frequencies --    266.0674               275.4832               289.4388
 Red. masses --      2.1193                 1.9601                 1.9667
 Frc consts  --      0.0884                 0.0876                 0.0971
 IR Inten    --      4.4897                 1.3503                 9.6609

                     13                     14                     15
                      A                      A                      A
 Frequencies --    293.3142               313.2603               332.4041
 Red. masses --      1.2273                 2.4386                 1.9283
 Frc consts  --      0.0622                 0.1410                 0.1255
 IR Inten    --     88.0802                 0.9600                 0.1324

                     16                     17                     18
                      A                      A                      A
 Frequencies --    348.6701               390.5028               419.4284
 Red. masses --      2.4250                 2.1953                 3.2223
 Frc consts  --      0.1737                 0.1972                 0.3340
 IR Inten    --      1.9935                 5.3718                24.8859

                     19                     20                     21
                      A                      A                      A
 Frequencies --    443.1915               537.1194               572.2385
 Red. masses --      2.6298                 6.1652                 3.1177
 Frc consts  --      0.3043                 1.0479                 0.6015
 IR Inten    --     57.1017                28.0157                 1.7450

                     22                     23                     24
                      A                      A                      A
 Frequencies --    591.8838               607.2626               629.9351
 Red. masses --      2.5223                 2.9837                 3.2613
 Frc consts  --      0.5206                 0.6483                 0.7625
 IR Inten    --     12.4652                26.3208                 2.9993

                     25                     26                     27
                      A                      A                      A
 Frequencies --    782.6237               819.5131               869.3224
 Red. masses --      3.3580                 3.1086                 2.5134
 Frc consts  --      1.2118                 1.2301                 1.1191
 IR Inten    --     13.9486                13.0660                 3.5057

                     28                     29                     30
                      A                      A                      A
 Frequencies --    900.2852               969.0309               970.1009
 Red. masses --      2.5894                 1.3895                 1.3741
 Frc consts  --      1.2365                 0.7687                 0.7619
 IR Inten    --      5.2426                 1.1736                 3.1367

                     31                     32                     33
                      A                      A                      A
 Frequencies --    992.1853              1001.6138              1021.9502
 Red. masses --      1.8453                 1.7778                 1.3346
 Frc consts  --      1.0703                 1.0508                 0.8212
 IR Inten    --      5.1967                 6.0103                 1.7867

                     34                     35                     36
                      A                      A                      A
 Frequencies --   1034.6245              1068.0753              1131.2936
 Red. masses --      1.5520                 3.3810                 2.8426
 Frc consts  --      0.9788                 2.2724                 2.1435
 IR Inten    --      6.1433                38.7394                53.3877

                     37                     38                     39
                      A                      A                      A
 Frequencies --   1139.3867              1182.1386              1195.7751
 Red. masses --      3.1765                 3.3982                 2.0148
 Frc consts  --      2.4296                 2.7980                 1.6974
 IR Inten    --     79.0056                12.2176                 3.5292

                     40                     41                     42
                      A                      A                      A
 Frequencies --   1206.5381              1219.6408              1250.6862
 Red. masses --      1.6336                 1.9052                 2.7536
 Frc consts  --      1.4011                 1.6698                 2.5378
 IR Inten    --      3.1203                35.6748                 4.3557

                     43                     44                     45
                      A                      A                      A
 Frequencies --   1297.2641              1304.6316              1311.7319
 Red. masses --      2.8456                 2.0961                 1.9424
 Frc consts  --      2.8215                 2.1021                 1.9692
 IR Inten    --      0.7947                 1.6976                 3.4054

                     46                     47                     48
                      A                      A                      A
 Frequencies --   1323.6262              1374.7525              1425.5984
 Red. masses --      1.6634                 1.3348                 1.2567
 Frc consts  --      1.7170                 1.4864                 1.5048
 IR Inten    --      2.1279                 9.5236                 0.2095

                     49                     50                     51
                      A                      A                      A
 Frequencies --   1434.2971              1445.7031              1447.3003
 Red. masses --      1.3097                 1.2044                 1.2082
 Frc consts  --      1.5875                 1.4832                 1.4911
 IR Inten    --     15.1392                 7.7405                 5.8869

                     52                     53                     54
                      A                      A                      A
 Frequencies --   1463.6948              1494.0050              1512.6110
 Red. masses --      1.2026                 1.2719                 1.0485
 Frc consts  --      1.5180                 1.6726                 1.4134
 IR Inten    --     39.6350                35.6576                 0.3234

                     55                     56                     57
                      A                      A                      A
 Frequencies --   1517.4054              1521.5541              1524.2939
 Red. masses --      1.0487                 1.0634                 1.0504
 Frc consts  --      1.4227                 1.4505                 1.4379
 IR Inten    --      3.4487                13.3359                10.8417

                     58                     59                     60
                      A                      A                      A
 Frequencies --   1530.4228              1538.0084              1541.6947
 Red. masses --      1.0556                 1.0580                 1.0600
 Frc consts  --      1.4567                 1.4745                 1.4844
 IR Inten    --     13.8419                 1.2688                 2.1952

                     61                     62                     63
                      A                      A                      A
 Frequencies --   1545.7693              2345.9521              3037.2813
 Red. masses --      1.0538                12.3661                 1.0381
 Frc consts  --      1.4835                40.0978                 5.6424
 IR Inten    --     17.7273               145.7512                 0.7327

                     64                     65                     66
                      A                      A                      A
 Frequencies --   3038.2913              3044.1974              3045.6605
 Red. masses --      1.0385                 1.0364                 1.0374
 Frc consts  --      5.6483                 5.6589                 5.6696
 IR Inten    --     42.2653                29.2333                 3.8265

                     67                     68                     69
                      A                      A                      A
 Frequencies --   3082.3985              3086.0841              3098.7157
 Red. masses --      1.0872                 1.0862                 1.0982
 Frc consts  --      6.0859                 6.0951                 6.2130
 IR Inten    --     31.9567                 2.0916                 0.8771

                     70                     71                     72
                      A                      A                      A
 Frequencies --   3100.6878              3105.9805              3108.1058
 Red. masses --      1.0972                 1.1000                 1.1002
 Frc consts  --      6.2152                 6.2521                 6.2619
 IR Inten    --     83.4430                43.2328                17.5110

                     73                     74                     75
                      A                      A                      A
 Frequencies --   3118.5672              3120.2486              3127.1676
 Red. masses --      1.1030                 1.1033                 1.1028
 Frc consts  --      6.3204                 6.3287                 6.3543
 IR Inten    --      7.6381                11.0127                 3.9229

                     76                     77                     78
                      A                      A                      A
 Frequencies --   3127.7246              3566.8624              3754.0636
 Red. masses --      1.1025                 1.0740                 1.0655
 Frc consts  --      6.3544                 8.0509                 8.8474
 IR Inten    --     50.9598                19.6344                 7.1297

 - Thermochemistry -
 -------------------
 Temperature   298.150 Kelvin.  Pressure   1.00000 Atm.
 Atom     1 has atomic number  6 and mass  12.00000

 Molecular mass:   168.12626 amu.
 Principal axes and moments of inertia in atomic units:
                           1         2         3
     Eigenvalues --  1406.618992418.084173000.81064
           X            0.99842   0.05275   0.01957
           Y           -0.05248   0.99852  -0.01400
           Z           -0.02028   0.01295   0.99971
 This molecule is an asymmetric top.
 Rotational symmetry number  1.
 Warning -- assumption of classical behavior for rotation
           may cause significant error
 Rotational temperatures (Kelvin)      0.06158     0.03582     0.02886
 Rotational constants (GHZ):           1.28303     0.74635     0.60142
 Zero-point vibrational energy     640341.0 (Joules/Mol)
                                  153.04517 (Kcal/Mol)
 Warning -- explicit consideration of  23 degrees of freedom as
           vibrations may cause significant error
 Vibrational temperatures:     23.95    72.81   156.57   284.10   294.83
          (Kelvin)            319.31   327.56   346.47   374.75   382.81
                              396.36   416.44   422.01   450.71   478.26
                              501.66   561.85   603.46   637.65   772.79
                              823.32   851.59   873.72   906.34  1126.02
                             1179.10  1250.76  1295.31  1394.22  1395.76
                             1427.53  1441.10  1470.36  1488.59  1536.72
                             1627.68  1639.32  1700.83  1720.45  1735.94
                             1754.79  1799.46  1866.47  1877.07  1887.29
                             1904.40  1977.96  2051.12  2063.63  2080.04
                             2082.34  2105.93  2149.54  2176.31  2183.21
                             2189.18  2193.12  2201.94  2212.85  2218.15
                             2224.02  3375.30  4369.97  4371.42  4379.92
                             4382.03  4434.88  4440.19  4458.36  4461.20
                             4468.81  4471.87  4486.92  4489.34  4499.30
                             4500.10  5131.92  5401.26

 Zero-point correction=                           0.243893 (Hartree/Particle)
 Thermal correction to Energy=                    0.257732
 Thermal correction to Enthalpy=                  0.258676
 Thermal correction to Gibbs Free Energy=         0.203795
 Sum of electronic and zero-point Energies=           -537.070861
 Sum of electronic and thermal Energies=              -537.057022
 Sum of electronic and thermal Enthalpies=            -537.056078
 Sum of electronic and thermal Free Energies=         -537.110959

                     E (Thermal)             CV                S
                      KCal/Mol        Cal/Mol-Kelvin    Cal/Mol-Kelvin
 Total                  161.729             52.125            115.507
 Electronic               0.000              0.000              0.000
 Translational            0.889              2.981             41.267
 Rotational               0.889              2.981             30.702
 Vibrational            159.952             46.163             43.539
 Vibration     1          0.593              1.986              6.999
 Vibration     2          0.595              1.977              4.794
 Vibration     3          0.606              1.942              3.290
 Vibration     4          0.637              1.843              2.157
 Vibration     5          0.640              1.833              2.089
 Vibration     6          0.648              1.808              1.943
 Vibration     7          0.651              1.799              1.897
 Vibration     8          0.658              1.778              1.797
 Vibration     9          0.669              1.745              1.659
 Vibration    10          0.672              1.735              1.622
 Vibration    11          0.677              1.719              1.562
 Vibration    12          0.686              1.693              1.477
 Vibration    13          0.688              1.686              1.455
 Vibration    14          0.701              1.648              1.345
 Vibration    15          0.714              1.611              1.248
 Vibration    16          0.726              1.578              1.172
 Vibration    17          0.758              1.490              0.998
 Vibration    18          0.782              1.428              0.894
 Vibration    19          0.803              1.376              0.817
 Vibration    20          0.892              1.168              0.572
 Vibration    21          0.928              1.091              0.500
 Vibration    22          0.949              1.049              0.464
 Vibration    23          0.966              1.016              0.437

 Optimization completed.
    -- Stationary point found.
 Normal termination of Gaussian 16 at Wed Dec  9 17:50:32 2020.

 ----------------------------------------------------------------------
 # B3LYP/6-311++G(d,p) empiricaldispersion=gd3bj scf=xqc pop=npa geom=c
 heck
 ----------------------------------------------------------------------

 ---------------------------------------
 CID_130020145_JID_2574_Energie_neutraal
 ---------------------------------------
 Structure from the checkpoint file:  "JID_2574.chk"
 Charge =  0 Multiplicity = 1

 SCF Done:  E(RB3LYP) =  -537.478472684     A.U. after   14 cycles
 Normal termination of Gaussian 16 at Wed Dec  9 17:55:00 2020.

 ----------------------------------------------------------------------
 # B3LYP/6-311++G(d,p) empiricaldispersion=gd3bj scf=xqc pop=npa geom=c
 heck
 ----------------------------------------------------------------------

 -------------------------------------
 CID_130020145_JID_2574_Energie_kation
 -------------------------------------
 Structure from the checkpoint file:  "JID_2574.chk"
 Charge =  1 Multiplicity = 2

 SCF Done:  E(UB3LYP) =  -537.146325495     A.U. after   25 cycles
 Normal termination of Gaussian 16 at Wed Dec  9 18:04:16 2020.
 Gaussian 16:  ES64L-G16RevA.03 25-Dec-2016

 ----------------------------------------------------------------------
 # B3LYP/6-311++G(d,p) empiricaldispersion=gd3bj scf=xqc pop=npa geom=c
 heck
 ----------------------------------------------------------------------

 ------------------------------------
 CID_130020145_JID_2574_Energie_anion
 ------------------------------------
 Structure from the checkpoint file:  "JID_2574.chk"
 Charge = -1 Multiplicity = 2

                         Standard orientation:
 ---------------------------------------------------------------------
 Center     Atomic      Atomic             Coordinates (Angstroms)
 Number     Number       Type             X           Y           Z
 ---------------------------------------------------------------------
      1          6           0       -1.811476   -1.477467   -1.207296
      2          6           0       -1.030285   -0.926553   -0.016946
      3          6           0        0.364315   -0.341282   -0.402653
      4          6           0       -0.018418    1.056579    0.195520
      5          6           0       -1.464086    0.506119    0.464944
      6          8           0       -2.553569    1.127446   -0.179626
      7          6           0        0.067655    2.192608   -0.820818
      8          6           0        0.721774    1.425317    1.480008
      9          7           0        1.537784   -1.061608    0.099365
     10          6           0        2.745438   -0.603830   -0.267907
     11          7           0        3.785940   -0.223290   -0.636322
     12          6           0       -1.015028   -1.942702    1.126042
     13          1           0       -1.816907   -0.781034   -2.054273
     14          1           0       -2.852804   -1.677373   -0.934260
     15          1           0       -1.358629   -2.411296   -1.559572
     16          1           0        0.491212   -0.285313   -1.487689
     17          1           0       -1.729623    0.524766    1.526577
     18          1           0       -2.357194    1.194439   -1.126149
     19          1           0       -0.419735    3.098302   -0.444773
     20          1           0        1.116185    2.425711   -1.037445
     21          1           0       -0.404654    1.930174   -1.776346
     22          1           0        0.648527    0.637414    2.239196
     23          1           0        1.784507    1.611546    1.289049
     24          1           0        0.288518    2.333809    1.913436
     25          1           0        1.488097   -1.345906    1.071311
     26          1           0       -2.042674   -2.188421    1.415914
     27          1           0       -0.513743   -2.871787    0.831776
     28          1           0       -0.517932   -1.553044    2.023598
 ---------------------------------------------------------------------

 SCF Done:  E(UB3LYP) =  -537.470935110     A.U. after   28 cycles

 The electronic state is 2-A.
 Alpha  occ. eigenvalues --  -19.02826 -14.26314 -14.20199 -10.13391 -10.12012
 Alpha  occ. eigenvalues --  -10.11809 -10.09041 -10.08814 -10.06733 -10.06642
 Alpha  occ. eigenvalues --  -10.06589 -10.06406  -0.93255  -0.87376  -0.79130
 Alpha  occ. eigenvalues --   -0.75270  -0.68686  -0.60713  -0.60360  -0.59202
 Alpha  occ. eigenvalues --   -0.57013  -0.49426  -0.47920  -0.46274  -0.39538
 Alpha  occ. eigenvalues --   -0.38663  -0.38023  -0.35533  -0.34061  -0.33516
 Alpha  occ. eigenvalues --   -0.30655  -0.30360  -0.30152  -0.29730  -0.28844
 Alpha  occ. eigenvalues --   -0.28553  -0.28028  -0.26682  -0.25728  -0.25020
 Alpha  occ. eigenvalues --   -0.24888  -0.23158  -0.21830  -0.19946  -0.16365
 Alpha  occ. eigenvalues --   -0.15335   0.04130
 Alpha virt. eigenvalues --    0.06361   0.07612   0.08444   0.09432   0.09661
 Alpha virt. eigenvalues --    0.10393   0.10829   0.11343   0.11863   0.12129
 Alpha virt. eigenvalues --    0.12680   0.13139   0.13588   0.14234   0.14691

  Beta  occ. eigenvalues --  -19.02797 -14.26273 -14.20191 -10.13389 -10.12003
  Beta  occ. eigenvalues --  -10.11798 -10.09038 -10.08813 -10.06697 -10.06605
  Beta  occ. eigenvalues --  -10.06533 -10.06360  -0.93197  -0.87320  -0.79105
  Beta  occ. eigenvalues --   -0.75237  -0.68649  -0.60647  -0.60288  -0.59115
  Beta  occ. eigenvalues --   -0.56959  -0.49353  -0.47870  -0.46203  -0.39474
  Beta  occ. eigenvalues --   -0.38583  -0.37996  -0.35499  -0.34009  -0.33459
  Beta  occ. eigenvalues --   -0.30616  -0.30315  -0.30110  -0.29679  -0.28805
  Beta  occ. eigenvalues --   -0.28508  -0.27975  -0.26673  -0.25694  -0.24979
  Beta  occ. eigenvalues --   -0.24839  -0.23124  -0.21807  -0.19922  -0.16339
  Beta  occ. eigenvalues --   -0.15308
  Beta virt. eigenvalues --    0.06668   0.07767   0.08123   0.08990   0.09954
  Beta virt. eigenvalues --    0.10345   0.10919   0.11118   0.11506   0.12264
  Beta virt. eigenvalues --    0.12329   0.12950   0.13623   0.13926   0.14499

 Mulliken charges and spin densities:
               1          2
     1  C    1.252998  -1.684257
     2  C   -1.774397   1.861342
     3  C   -0.258636   0.149612
     4  C   -0.481385   0.585968
     5  C   -1.044765   0.756075
     6  O   -0.124861  -0.008593
     7  C    0.846211  -1.373448
     8  C    0.651214  -1.328774
     9  N   -0.069347   0.127324
    10  C    0.264012  -0.278313
    11  N   -0.297556  -0.010323
    12  C    2.003292  -2.781478
    13  H   -0.461573   0.600911
    14  H   -0.094115   0.275190
    15  H   -0.074956   0.232885
    16  H    0.173287   0.111183
    17  H   -0.099918   0.364037
    18  H    0.062530   0.184865
    19  H   -0.006034   0.186046
    20  H    0.101244   0.053488
    21  H   -0.326334   0.468234
    22  H   -0.204026   0.361473
    23  H    0.083077   0.093974
    24  H   -0.118994   0.275155
    25  H   -0.226921   0.521969
    26  H   -0.144360   0.313494
    27  H   -0.176489   0.342107
    28  H   -0.453199   0.599855
 Sum of Mulliken charges =  -1.00000   1.00000

 Dipole moment (field-independent basis, Debye):
    X=             -0.8979    Y=              1.5215    Z=             -0.2249  Tot=              1.7809
 Quadrupole moment (field-independent basis, Debye-Ang):
   XX=           -136.5039   YY=           -113.0097   ZZ=           -118.5531
   XY=              1.5947   XZ=             -0.9228   YZ=              5.0617

 Summary of Natural Population Analysis:

                                       Natural Population
                Natural  -----------------------------------------------
    Atom  No    Charge         Core      Valence    Rydberg      Total
 -----------------------------------------------------------------------
      C    1   -0.28572      0.99962     2.27810    0.00800     3.28572
      C    2   -0.05338      0.99954     2.03935    0.01450     3.05338
      C    3    0.00541      0.99947     1.98022    0.01490     2.99459
      C    4   -0.05689      0.99954     2.04437    0.01297     3.05689
      C    5    0.08241      0.99944     1.90201    0.01613     2.91759
      O    6   -0.36586      0.99989     3.35954    0.00643     4.36586
      C    7   -0.28857      0.99962     2.28065    0.00831     3.28857
      C    8   -0.28877      0.99962     2.28143    0.00772     3.28877
      N    9   -0.33994      0.99964     2.82892    0.01138     3.83994
      C   10    0.23272      0.99963     1.75169    0.01595     2.76728
      N   11   -0.22039      0.99979     2.71223    0.00838     3.72039
      C   12   -0.29063      0.99962     2.28313    0.00788     3.29063
      H   13    0.09955      0.00000     0.39835    0.00209     0.40045
      H   14    0.10549      0.00000     0.39351    0.00101     0.39451
      H   15    0.10380      0.00000     0.39515    0.00104     0.39620
      H   16    0.10183      0.00000     0.39615    0.00201     0.39817
      H   17    0.08804      0.00000     0.41021    0.00175     0.41196
      H   18    0.23104      0.00000     0.26483    0.00413     0.26896
      H   19    0.10445      0.00000     0.39474    0.00081     0.39555
      H   20    0.10532      0.00000     0.39376    0.00093     0.39468
      H   21    0.09883      0.00000     0.39959    0.00158     0.40117
      H   22    0.10237      0.00000     0.39587    0.00176     0.39763
      H   23    0.10467      0.00000     0.39437    0.00096     0.39533
      H   24    0.10400      0.00000     0.39513    0.00086     0.39600
      H   25    0.20671      0.00000     0.28851    0.00478     0.29329
      H   26    0.10732      0.00000     0.39146    0.00122     0.39268
      H   27    0.10437      0.00000     0.39425    0.00138     0.39563
      H   28    0.10179      0.00000     0.39543    0.00278     0.39821
 =======================================================================
   * Total *   -0.00000     11.99542    33.84296    0.16162    46.00000

 Normal termination of Gaussian 16 at Wed Dec  9 18:15:43 2020.
