 Gaussian 16, Revision A.03,

 -----------------------------------------------------------
 # opt freq B3LYP/6-31G(d) empiricaldispersion=gd3bj scf=xqc
 -----------------------------------------------------------

 -------------------------------
 CID_108216158_JID_6618_neutraal
 -------------------------------
 Symbolic Z-matrix:
 Charge =  0 Multiplicity = 1

 SCF Done:  E(RB3LYP) =  -1140.03057185     A.U. after   15 cycles
 SCF Done:  E(RB3LYP) =  -1140.04032614     A.U. after   13 cycles
 SCF Done:  E(RB3LYP) =  -1140.04347372     A.U. after   13 cycles
 SCF Done:  E(RB3LYP) =  -1140.04498258     A.U. after   13 cycles
 SCF Done:  E(RB3LYP) =  -1140.04746396     A.U. after   12 cycles
 SCF Done:  E(RB3LYP) =  -1140.05044243     A.U. after   13 cycles
 SCF Done:  E(RB3LYP) =  -1140.05130408     A.U. after   12 cycles
 SCF Done:  E(RB3LYP) =  -1140.05176652     A.U. after   12 cycles
 SCF Done:  E(RB3LYP) =  -1140.05209792     A.U. after   11 cycles
 SCF Done:  E(RB3LYP) =  -1140.05219210     A.U. after   11 cycles
 SCF Done:  E(RB3LYP) =  -1140.05222229     A.U. after    9 cycles
 SCF Done:  E(RB3LYP) =  -1140.05222279     A.U. after    8 cycles
 SCF Done:  E(RB3LYP) =  -1140.05222306     A.U. after    7 cycles
 SCF Done:  E(RB3LYP) =  -1140.05222308     A.U. after    7 cycles
 SCF Done:  E(RB3LYP) =  -1140.05222310     A.U. after    7 cycles
 Optimization completed.
    -- Stationary point found.
 Normal termination of Gaussian 16 at Thu Dec 10 23:59:45 2020.

 --------------------------------------------------------------------
 #N Geom=AllCheck Guess=TCheck SCRF=Check GenChk RB3LYP/6-31G(d) Freq
 --------------------------------------------------------------------

 Structure from the checkpoint file:  "JID_6618.chk"
 -------------------------------
 CID_108216158_JID_6618_neutraal
 -------------------------------
 Charge =  0 Multiplicity = 1

 SCF Done:  E(RB3LYP) =  -1140.05222310     A.U. after    1 cycles

  Exact polarizability: 153.677   2.704 138.791 -19.058  11.675 117.147
 Approx polarizability: 219.823   7.052 235.949 -34.187  21.526 175.950

                      1                      2                      3
                      A                      A                      A
 Frequencies --     31.1138                43.4479                67.3707
 Red. masses --      4.5615                 5.6066                 4.7530
 Frc consts  --      0.0026                 0.0062                 0.0127
 IR Inten    --      0.7877                 1.2286                 0.2357

                      4                      5                      6
                      A                      A                      A
 Frequencies --     98.4574               123.6148               131.5532
 Red. masses --      3.6658                 4.0152                 3.6086
 Frc consts  --      0.0209                 0.0361                 0.0368
 IR Inten    --      3.7282                 5.1014                 6.2838

                      7                      8                      9
                      A                      A                      A
 Frequencies --    164.8519               188.5168               197.2139
 Red. masses --      4.0868                 2.6602                 3.3482
 Frc consts  --      0.0654                 0.0557                 0.0767
 IR Inten    --      1.4132                 3.4666                 3.5429

                     10                     11                     12
                      A                      A                      A
 Frequencies --    219.6055               236.5610               251.7870
 Red. masses --      3.5314                 1.5257                 1.4054
 Frc consts  --      0.1003                 0.0503                 0.0525
 IR Inten    --      3.3304                 5.6331                 3.9415

                     13                     14                     15
                      A                      A                      A
 Frequencies --    272.5030               298.3868               321.8001
 Red. masses --      3.9810                 2.4465                 3.1827
 Frc consts  --      0.1742                 0.1283                 0.1942
 IR Inten    --      0.7338                 2.4499                 3.6527

                     16                     17                     18
                      A                      A                      A
 Frequencies --    338.2054               366.5200               378.1301
 Red. masses --      3.2644                 3.5949                 1.8834
 Frc consts  --      0.2200                 0.2845                 0.1587
 IR Inten    --      3.4283                 2.8265                29.3258

                     19                     20                     21
                      A                      A                      A
 Frequencies --    400.0191               431.3748               458.2368
 Red. masses --      1.9240                 3.7165                 4.8012
 Frc consts  --      0.1814                 0.4075                 0.5940
 IR Inten    --     31.6632                50.3864                12.6036

                     22                     23                     24
                      A                      A                      A
 Frequencies --    484.6791               522.9276               562.5046
 Red. masses --      5.5930                 4.9517                 4.2290
 Frc consts  --      0.7741                 0.7978                 0.7884
 IR Inten    --     16.4055                 6.6252                 5.3352

                     25                     26                     27
                      A                      A                      A
 Frequencies --    592.4038               615.8952               624.0287
 Red. masses --      5.5863                 4.3997                 4.4647
 Frc consts  --      1.1551                 0.9833                 1.0243
 IR Inten    --     10.3641                 8.3209                 7.5430

                     28                     29                     30
                      A                      A                      A
 Frequencies --    684.7136               754.3345               769.1840
 Red. masses --      3.9786                 4.6977                 3.2683
 Frc consts  --      1.0990                 1.5749                 1.1393
 IR Inten    --      0.8763                33.8684                21.3121

                     31                     32                     33
                      A                      A                      A
 Frequencies --    803.2490               815.0366               818.1964
 Red. masses --      1.8537                 1.8259                 3.4596
 Frc consts  --      0.7047                 0.7146                 1.3645
 IR Inten    --     44.1161                 5.3185                33.7765

                     34                     35                     36
                      A                      A                      A
 Frequencies --    854.3579               914.2024               925.5905
 Red. masses --      3.6198                 2.1776                 1.4797
 Frc consts  --      1.5567                 1.0723                 0.7469
 IR Inten    --      6.3836                51.7362                12.4378

                     37                     38                     39
                      A                      A                      A
 Frequencies --    972.2244               973.5758               995.7454
 Red. masses --      1.6262                 1.5123                 1.4104
 Frc consts  --      0.9056                 0.8445                 0.8239
 IR Inten    --      6.7002                 7.2942                 1.0242

                     40                     41                     42
                      A                      A                      A
 Frequencies --   1006.9106              1017.5043              1061.9717
 Red. masses --      1.7994                 1.8592                 6.1101
 Frc consts  --      1.0749                 1.1341                 4.0600
 IR Inten    --     54.2572                57.6247                33.0644

                     43                     44                     45
                      A                      A                      A
 Frequencies --   1096.8676              1110.0915              1118.1016
 Red. masses --      3.2667                 2.8128                 2.9472
 Frc consts  --      2.3156                 2.0422                 2.1708
 IR Inten    --     28.4797                86.5302               137.8023

                     46                     47                     48
                      A                      A                      A
 Frequencies --   1156.3819              1185.6487              1193.9013
 Red. masses --      1.9085                 1.2736                 1.4294
 Frc consts  --      1.5036                 1.0549                 1.2004
 IR Inten    --     21.6451                 1.3344                 9.4082

                     49                     50                     51
                      A                      A                      A
 Frequencies --   1203.7364              1221.5811              1245.9989
 Red. masses --      1.3731                 1.3854                 1.6583
 Frc consts  --      1.1723                 1.2180                 1.5168
 IR Inten    --      6.6362                 0.2005                30.7960

                     52                     53                     54
                      A                      A                      A
 Frequencies --   1272.5836              1280.9502              1307.1618
 Red. masses --      3.4001                 1.9118                 3.7364
 Frc consts  --      3.2442                 1.8482                 3.7615
 IR Inten    --     70.5793                29.2808               169.9161

                     55                     56                     57
                      A                      A                      A
 Frequencies --   1322.7915              1335.4131              1350.2770
 Red. masses --      1.9235                 2.7455                 1.2389
 Frc consts  --      1.9830                 2.8847                 1.3309
 IR Inten    --     77.3645                50.3900                10.2689

                     58                     59                     60
                      A                      A                      A
 Frequencies --   1369.6352              1374.5758              1387.6789
 Red. masses --      1.3410                 1.5623                 1.5063
 Frc consts  --      1.4821                 1.7392                 1.7090
 IR Inten    --      3.6253                16.6015                 8.6026

                     61                     62                     63
                      A                      A                      A
 Frequencies --   1470.3558              1482.0977              1484.0155
 Red. masses --      1.0768                 1.2916                 1.2927
 Frc consts  --      1.3716                 1.6716                 1.6774
 IR Inten    --      5.5961                24.6817                75.0359

                     64                     65                     66
                      A                      A                      A
 Frequencies --   1494.0037              1506.7154              1515.6950
 Red. masses --      1.0818                 2.3689                 1.6110
 Frc consts  --      1.4227                 3.1686                 2.1806
 IR Inten    --     15.7257                21.9537                32.2318

                     67                     68                     69
                      A                      A                      A
 Frequencies --   1522.0389              1534.5236              1541.2239
 Red. masses --      1.0495                 1.0776                 1.1632
 Frc consts  --      1.4324                 1.4951                 1.6280
 IR Inten    --      7.1658                14.8581                13.3735

                     70                     71                     72
                      A                      A                      A
 Frequencies --   1632.8301              1643.2377              1705.0887
 Red. masses --      6.3422                 5.8286                 1.0799
 Frc consts  --      9.9625                 9.2729                 1.8498
 IR Inten    --      1.8516                32.3525                22.5446

                     73                     74                     75
                      A                      A                      A
 Frequencies --   3034.8177              3057.8577              3088.0350
 Red. masses --      1.0345                 1.0837                 1.0304
 Frc consts  --      5.6138                 5.9703                 5.7893
 IR Inten    --     49.3832                10.1255                 1.4351

                     76                     77                     78
                      A                      A                      A
 Frequencies --   3097.9909              3098.8609              3159.1819
 Red. masses --      1.1070                 1.0585                 1.1059
 Frc consts  --      6.2596                 5.9890                 6.5033
 IR Inten    --     34.5126                 3.2634                 0.9058

                     79                     80                     81
                      A                      A                      A
 Frequencies --   3171.8936              3181.6636              3188.2351
 Red. masses --      1.1005                 1.1060                 1.0885
 Frc consts  --      6.5237                 6.5967                 6.5189
 IR Inten    --     15.1731                 1.8351                10.9329

                     82                     83                     84
                      A                      A                      A
 Frequencies --   3211.4851              3214.1334              3232.0728
 Red. masses --      1.0928                 1.1065                 1.0935
 Frc consts  --      6.6403                 6.7351                 6.7304
 IR Inten    --     21.9038                 5.3309                 8.4272

                     85                     86                     87
                      A                      A                      A
 Frequencies --   3430.8876              3498.4163              3546.4946
 Red. masses --      1.0519                 1.0741                 1.0914
 Frc consts  --      7.2953                 7.7454                 8.0878
 IR Inten    --     11.5273                 3.9153                 1.7891

 - Thermochemistry -
 -------------------
 Temperature   298.150 Kelvin.  Pressure   1.00000 Atm.
 Atom     1 has atomic number  6 and mass  12.00000

 Molecular mass:   245.08341 amu.
 Principal axes and moments of inertia in atomic units:
                           1         2         3
     Eigenvalues --  2661.675115277.696265399.43343
           X            0.99944   0.02986  -0.01524
           Y           -0.02622   0.97950   0.19972
           Z            0.02089  -0.19920   0.97974
 This molecule is an asymmetric top.
 Rotational symmetry number  1.
 Warning -- assumption of classical behavior for rotation
           may cause significant error
 Rotational temperatures (Kelvin)      0.03254     0.01641     0.01604
 Rotational constants (GHZ):           0.67805     0.34196     0.33425
 Zero-point vibrational energy     664320.6 (Joules/Mol)
                                  158.77644 (Kcal/Mol)
 Warning -- explicit consideration of  26 degrees of freedom as
           vibrations may cause significant error
 Vibrational temperatures:     44.77    62.51    96.93   141.66   177.85
          (Kelvin)            189.28   237.19   271.23   283.75   315.96
                              340.36   362.27   392.07   429.31   463.00
                              486.60   527.34   544.04   575.54   620.65
                              659.30   697.35   752.38   809.32   852.34
                              886.14   897.84   985.15  1085.32  1106.68
                             1155.70  1172.66  1177.20  1229.23  1315.33
                             1331.72  1398.81  1400.76  1432.66  1448.72
                             1463.96  1527.94  1578.15  1597.17  1608.70
                             1663.78  1705.88  1717.76  1731.91  1757.58
                             1792.71  1830.96  1843.00  1880.71  1903.20
                             1921.36  1942.75  1970.60  1977.71  1996.56
                             2115.51  2132.41  2135.17  2149.54  2167.83
                             2180.75  2189.87  2207.84  2217.48  2349.28
                             2364.25  2453.24  4366.43  4399.58  4442.99
                             4457.32  4458.57  4545.36  4563.65  4577.70
                             4587.16  4620.61  4624.42  4650.23  4936.28
                             5033.44  5102.61

 Zero-point correction=                           0.253026 (Hartree/Particle)
 Thermal correction to Energy=                    0.269243
 Thermal correction to Enthalpy=                  0.270187
 Thermal correction to Gibbs Free Energy=         0.209113
 Sum of electronic and zero-point Energies=          -1139.799197
 Sum of electronic and thermal Energies=             -1139.782980
 Sum of electronic and thermal Enthalpies=           -1139.782036
 Sum of electronic and thermal Free Energies=        -1139.843110

                     E (Thermal)             CV                S
                      KCal/Mol        Cal/Mol-Kelvin    Cal/Mol-Kelvin
 Total                  168.952             61.141            128.540
 Electronic               0.000              0.000              0.000
 Translational            0.889              2.981             42.390
 Rotational               0.889              2.981             32.695
 Vibrational            167.175             55.180             53.456
 Vibration     1          0.594              1.983              5.757
 Vibration     2          0.595              1.980              5.095
 Vibration     3          0.598              1.970              4.229
 Vibration     4          0.604              1.950              3.485
 Vibration     5          0.610              1.929              3.043
 Vibration     6          0.612              1.922              2.923
 Vibration     7          0.623              1.886              2.493
 Vibration     8          0.633              1.856              2.242
 Vibration     9          0.637              1.844              2.159
 Vibration    10          0.647              1.811              1.962
 Vibration    11          0.655              1.785              1.829
 Vibration    12          0.664              1.760              1.718
 Vibration    13          0.676              1.724              1.580
 Vibration    14          0.691              1.677              1.426
 Vibration    15          0.707              1.632              1.301
 Vibration    16          0.719              1.599              1.221
 Vibration    17          0.739              1.541              1.094
 Vibration    18          0.748              1.517              1.047
 Vibration    19          0.766              1.470              0.963
 Vibration    20          0.792              1.402              0.854
 Vibration    21          0.816              1.343              0.771
 Vibration    22          0.841              1.284              0.698
 Vibration    23          0.878              1.199              0.603
 Vibration    24          0.918              1.112              0.519
 Vibration    25          0.950              1.048              0.463
 Vibration    26          0.975              0.998              0.423

 Optimization completed.
    -- Stationary point found.
 Normal termination of Gaussian 16 at Fri Dec 11 00:10:38 2020.

 ----------------------------------------------------------------------
 # B3LYP/6-311++G(d,p) empiricaldispersion=gd3bj scf=xqc pop=npa geom=c
 heck
 ----------------------------------------------------------------------

 ---------------------------------------
 CID_108216158_JID_6618_Energie_neutraal
 ---------------------------------------
 Structure from the checkpoint file:  "JID_6618.chk"
 Charge =  0 Multiplicity = 1

 SCF Done:  E(RB3LYP) =  -1140.29956608     A.U. after   15 cycles
 Normal termination of Gaussian 16 at Fri Dec 11 00:15:02 2020.

 ----------------------------------------------------------------------
 # B3LYP/6-311++G(d,p) empiricaldispersion=gd3bj scf=xqc pop=npa geom=c
 heck
 ----------------------------------------------------------------------

 -------------------------------------
 CID_108216158_JID_6618_Energie_kation
 -------------------------------------
 Structure from the checkpoint file:  "JID_6618.chk"
 Charge =  1 Multiplicity = 2

 SCF Done:  E(UB3LYP) =  -1139.99490621     A.U. after   27 cycles
 Normal termination of Gaussian 16 at Fri Dec 11 00:25:46 2020.
 Gaussian 16:  ES64L-G16RevA.03 25-Dec-2016

 ----------------------------------------------------------------------
 # B3LYP/6-311++G(d,p) empiricaldispersion=gd3bj scf=xqc pop=npa geom=c
 heck
 ----------------------------------------------------------------------

 ------------------------------------
 CID_108216158_JID_6618_Energie_anion
 ------------------------------------
 Structure from the checkpoint file:  "JID_6618.chk"
 Charge = -1 Multiplicity = 2

                         Standard orientation:
 ---------------------------------------------------------------------
 Center     Atomic      Atomic             Coordinates (Angstroms)
 Number     Number       Type             X           Y           Z
 ---------------------------------------------------------------------
      1          6           0        3.109024    2.434606    0.499872
      2          8           0        1.993779    1.577759    0.707210
      3          6           0        2.051269    0.314218    0.200641
      4          6           0        0.939887   -0.515436    0.470780
      5          7           0        0.870118   -1.763379    0.008157
      6          6           0        1.886491   -2.253506   -0.716843
      7          6           0        3.019142   -1.508750   -1.020498
      8          6           0        3.106059   -0.194553   -0.556083
      9          6           0       -0.225159    0.012452    1.285694
     10          6           0       -1.078098    1.039716    0.490893
     11         16           0       -2.125220    0.433462   -0.859791
     12          8           0       -2.878006   -0.746307   -0.381638
     13          8           0       -2.853101    1.602903   -1.380246
     14          6           0       -1.012230   -0.132872   -2.162405
     15          7           0       -0.958016   -1.094103    1.879931
     16          7           0       -2.145729   -0.614553    2.523963
     17          1           0        2.861731    3.371115    1.000712
     18          1           0        3.273524    2.623515   -0.568486
     19          1           0        4.020770    2.012540    0.940186
     20          1           0        1.778063   -3.277895   -1.064227
     21          1           0        3.822320   -1.938318   -1.610932
     22          1           0        3.977886    0.408259   -0.781659
     23          1           0        0.186414    0.614416    2.104842
     24          1           0       -1.812877    1.477043    1.173118
     25          1           0       -0.461525    1.842081    0.079011
     26          1           0       -0.304777    0.662898   -2.404431
     27          1           0       -0.499688   -1.034993   -1.832168
     28          1           0       -1.654405   -0.338608   -3.021839
     29          1           0       -1.176709   -1.769688    1.150150
     30          1           0       -2.934346   -0.702029    1.879226
     31          1           0       -2.317153   -1.231564    3.313882
 ---------------------------------------------------------------------

 SCF Done:  E(UB3LYP) =  -1140.29778284     A.U. after   33 cycles
 SCF Done:  E(UB3LYP) =  -1140.29778284     a.u. after    1 cycles

 The electronic state is 2-A.
 Alpha  occ. eigenvalues --  -88.95101 -19.05764 -19.02038 -19.01745 -14.22384
 Alpha  occ. eigenvalues --  -14.21976 -14.19115 -10.13151 -10.11978 -10.11332
 Alpha  occ. eigenvalues --  -10.10961 -10.10909 -10.09488 -10.09001 -10.06670
 Alpha  occ. eigenvalues --  -10.06615  -8.01590  -5.97857  -5.97746  -5.97685
 Alpha  occ. eigenvalues --   -1.01104  -0.97354  -0.90786  -0.86882  -0.83195
 Alpha  occ. eigenvalues --   -0.72651  -0.69165  -0.68538  -0.65640  -0.64559
 Alpha  occ. eigenvalues --   -0.60109  -0.56266  -0.51493  -0.50410  -0.48056
 Alpha  occ. eigenvalues --   -0.44054  -0.41865  -0.41458  -0.40060  -0.39655
 Alpha  occ. eigenvalues --   -0.38968  -0.38255  -0.37285  -0.36942  -0.35073
 Alpha  occ. eigenvalues --   -0.34026  -0.33302  -0.33050  -0.32828  -0.31499
 Alpha  occ. eigenvalues --   -0.30865  -0.28956  -0.28311  -0.27047  -0.24056
 Alpha  occ. eigenvalues --   -0.23817  -0.23555  -0.22801  -0.21006  -0.19793
 Alpha  occ. eigenvalues --   -0.17546  -0.17339  -0.14713  -0.14119  -0.12766
 Alpha  occ. eigenvalues --    0.04180
 Alpha virt. eigenvalues --    0.06424   0.07410   0.07668   0.08299   0.08978
 Alpha virt. eigenvalues --    0.09515   0.09853   0.10183   0.10841   0.11300
 Alpha virt. eigenvalues --    0.11728   0.12234   0.12993   0.13373   0.14243

  Beta  occ. eigenvalues --  -88.95101 -19.05762 -19.02034 -19.01741 -14.22383
  Beta  occ. eigenvalues --  -14.21971 -14.18885 -10.13191 -10.11913 -10.11343
  Beta  occ. eigenvalues --  -10.10950 -10.10894 -10.09339 -10.09028 -10.06552
  Beta  occ. eigenvalues --  -10.06457  -8.01589  -5.97856  -5.97746  -5.97682
  Beta  occ. eigenvalues --   -1.01097  -0.97342  -0.90778  -0.86854  -0.82876
  Beta  occ. eigenvalues --   -0.72589  -0.68904  -0.68483  -0.65487  -0.64534
  Beta  occ. eigenvalues --   -0.59967  -0.56137  -0.51350  -0.50261  -0.47955
  Beta  occ. eigenvalues --   -0.43993  -0.41807  -0.41417  -0.40019  -0.39572
  Beta  occ. eigenvalues --   -0.38942  -0.38210  -0.37223  -0.36858  -0.35017
  Beta  occ. eigenvalues --   -0.33994  -0.33254  -0.32941  -0.32747  -0.31427
  Beta  occ. eigenvalues --   -0.30764  -0.28821  -0.27907  -0.26965  -0.24039
  Beta  occ. eigenvalues --   -0.23582  -0.23454  -0.22783  -0.20995  -0.19756
  Beta  occ. eigenvalues --   -0.17332  -0.16466  -0.14496  -0.14053  -0.12340
  Beta virt. eigenvalues --    0.06944   0.07743   0.07824   0.08466   0.08489
  Beta virt. eigenvalues --    0.09558   0.09698   0.10227   0.10547   0.11028
  Beta virt. eigenvalues --    0.11427   0.11969   0.12655   0.13006   0.13613

 Mulliken charges and spin densities:
               1          2
     1  C    1.231316  -1.486056
     2  O   -0.200744   0.063590
     3  C   -1.101323   0.624461
     4  C   -0.263941   0.225303
     5  N   -0.103515   0.116486
     6  C   -0.000105   0.007636
     7  C    0.486646  -1.069568
     8  C    0.627475  -0.124365
     9  C    0.175314  -0.542242
    10  C   -0.642788   0.017220
    11  S    0.202989   0.102861
    12  O   -0.229507   0.004310
    13  O   -0.185223   0.003694
    14  C   -0.463915  -0.267860
    15  N    0.013481  -0.006563
    16  N   -0.506081   0.005598
    17  H   -0.369063   0.531327
    18  H   -0.574751   0.749602
    19  H   -0.224240   0.371720
    20  H    0.114331   0.055136
    21  H   -0.407395   0.551861
    22  H   -0.628321   0.833143
    23  H    0.252325  -0.003364
    24  H    0.265783  -0.004270
    25  H    0.262212   0.035272
    26  H    0.050762   0.179973
    27  H    0.189558   0.051208
    28  H    0.252697  -0.028357
    29  H    0.273604   0.002230
    30  H    0.243124  -0.000396
    31  H    0.259295   0.000410
 Sum of Mulliken charges =  -1.00000   1.00000

 Dipole moment (field-independent basis, Debye):
    X=             -6.3296    Y=             -3.4081    Z=              1.5788  Tot=              7.3601
 Quadrupole moment (field-independent basis, Debye-Ang):
   XX=           -182.3224   YY=           -144.3269   ZZ=           -127.8677
   XY=             -7.7024   XZ=              2.9297   YZ=              6.1120

 Summary of Natural Population Analysis:

                                       Natural Population
                Natural  -----------------------------------------------
    Atom  No    Charge         Core      Valence    Rydberg      Total
 -----------------------------------------------------------------------
      C    1   -0.09940      0.99960     2.09075    0.00905     3.09940
      O    2   -0.27926      0.99986     3.26956    0.00985     4.27926
      C    3    0.14018      0.99933     1.84653    0.01396     2.85982
      C    4    0.10218      0.99948     1.88140    0.01694     2.89782
      N    5   -0.22182      0.99967     2.71069    0.01146     3.72182
      C    6    0.00200      0.99958     1.98379    0.01463     2.99800
      C    7   -0.10075      0.99956     2.09113    0.01006     3.10075
      C    8   -0.09592      0.99952     2.08641    0.01000     3.09592
      C    9   -0.03233      0.99956     2.01437    0.01840     3.03233
      C   10   -0.29961      0.99954     2.28678    0.01328     3.29961
      S   11    1.01707      4.99930     1.88878    0.09485     6.98293
      O   12   -0.48297      0.99991     3.47744    0.00562     4.48297
      O   13   -0.47279      0.99991     3.46740    0.00547     4.47279
      C   14   -0.39555      0.99960     2.38792    0.00803     3.39555
      N   15   -0.24902      0.99972     2.73762    0.01167     3.74902
      N   16   -0.34232      0.99977     2.83191    0.01064     3.84232
      H   17    0.09280      0.00000     0.40598    0.00122     0.40720
      H   18    0.09122      0.00000     0.40495    0.00383     0.40878
      H   19    0.08570      0.00000     0.41252    0.00178     0.41430
      H   20    0.08637      0.00000     0.41267    0.00097     0.41363
      H   21    0.10080      0.00000     0.39813    0.00107     0.39920
      H   22    0.10830      0.00000     0.38916    0.00255     0.39170
      H   23    0.10992      0.00000     0.38802    0.00206     0.39008
      H   24    0.12406      0.00000     0.37468    0.00126     0.37594
      H   25    0.12388      0.00000     0.37462    0.00150     0.37612
      H   26    0.11736      0.00000     0.38149    0.00115     0.38264
      H   27    0.12773      0.00000     0.37067    0.00159     0.37227
      H   28    0.11447      0.00000     0.38465    0.00088     0.38553
      H   29    0.18080      0.00000     0.31649    0.00271     0.31920
      H   30    0.17658      0.00000     0.32176    0.00166     0.32342
      H   31    0.17032      0.00000     0.32818    0.00151     0.32968
 =======================================================================
   * Total *   -0.00000     19.99391    44.71644    0.28964    65.00000

 Normal termination of Gaussian 16 at Fri Dec 11 00:39:08 2020.
