 Gaussian 16, Revision A.03,

 -----------------------------------------------------------
 # opt freq B3LYP/6-31G(d) empiricaldispersion=gd3bj scf=xqc
 -----------------------------------------------------------

 -------------------------------
 CID_151125349_JID_5300_neutraal
 -------------------------------
 Symbolic Z-matrix:
 Charge =  0 Multiplicity = 1

 SCF Done:  E(RB3LYP) =  -694.710535149     A.U. after   17 cycles
 SCF Done:  E(RB3LYP) =  -694.718826263     A.U. after   15 cycles
 SCF Done:  E(RB3LYP) =  -694.721224259     A.U. after   15 cycles
 SCF Done:  E(RB3LYP) =  -694.722406223     A.U. after   15 cycles
 SCF Done:  E(RB3LYP) =  -694.722798456     A.U. after   12 cycles
 SCF Done:  E(RB3LYP) =  -694.723107932     A.U. after   13 cycles
 SCF Done:  E(RB3LYP) =  -694.723269151     A.U. after   11 cycles
 SCF Done:  E(RB3LYP) =  -694.723408285     A.U. after   12 cycles
 SCF Done:  E(RB3LYP) =  -694.723468960     A.U. after   12 cycles
 SCF Done:  E(RB3LYP) =  -694.723485292     A.U. after   11 cycles
 SCF Done:  E(RB3LYP) =  -694.724312643     A.U. after   10 cycles
 SCF Done:  E(RB3LYP) =  -694.724312857     A.U. after    8 cycles
 SCF Done:  E(RB3LYP) =  -694.724312969     A.U. after    8 cycles
 SCF Done:  E(RB3LYP) =  -694.724312984     A.U. after    7 cycles
 SCF Done:  E(RB3LYP) =  -694.724313004     A.U. after    7 cycles
 Optimization completed.
    -- Stationary point found.

 1\1\GINC-NODE359\FOpt\RB3LYP\6-31G(d)\C8H11N7\VSC10255\10-Dec-2020\0\\
 # opt freq B3LYP/6-31G(d) empiricaldispersion=gd3bj scf=xqc\\CID_15112
 5349_JID_5300_neutraal\\0,1\C,0.4194412932,-1.1980027446,-0.39918578\C
 ,-0.5121729445,-0.2667508656,0.4449745673\N,0.1536795128,1.0428576629,
 0.5623960492\C,1.0149630737,1.1172731314,-0.6210301307\C,1.610240401,-
 0.2998053151,-0.7940717519\N,2.71607795,-0.5146921074,0.1368197167\C,3
 .9683160568,-0.0213616133,-0.0486878856\N,4.9152821136,-0.4554738388,0
 .8145965784\C,6.1355568895,0.0466461025,0.62635878\C,6.4542091008,0.95

 Normal termination of Gaussian 16 at Thu Dec 10 15:43:17 2020.

 --------------------------------------------------------------------
 #N Geom=AllCheck Guess=TCheck SCRF=Check GenChk RB3LYP/6-31G(d) Freq
 --------------------------------------------------------------------

 Structure from the checkpoint file:  "JID_5300.chk"
 -------------------------------
 CID_151125349_JID_5300_neutraal
 -------------------------------
 Charge =  0 Multiplicity = 1

 SCF Done:  E(RB3LYP) =  -694.724313004     A.U. after    1 cycles

  Exact polarizability: 157.710   6.363 157.194   9.687   7.491  72.697
 Approx polarizability: 227.567  20.684 287.115  18.376  19.233 111.128

                      1                      2                      3
                      A                      A                      A
 Frequencies --     37.2738                44.4869                61.1001
 Red. masses --      4.3812                 3.1665                 4.1700
 Frc consts  --      0.0036                 0.0037                 0.0092
 IR Inten    --      0.5122                 0.0954                 0.8401

                      4                      5                      6
                      A                      A                      A
 Frequencies --     83.9414                94.2055               152.4745
 Red. masses --      4.2293                 6.8562                 6.6290
 Frc consts  --      0.0176                 0.0358                 0.0908
 IR Inten    --      0.8174                 2.8770                 2.5192

                      7                      8                      9
                      A                      A                      A
 Frequencies --    183.3276               221.2559               247.1569
 Red. masses --      4.1267                 5.9850                 4.4545
 Frc consts  --      0.0817                 0.1726                 0.1603
 IR Inten    --      6.7914                 3.3409                 4.7319

                     10                     11                     12
                      A                      A                      A
 Frequencies --    311.2910               337.8326               423.2031
 Red. masses --      3.0412                 3.9127                 4.3499
 Frc consts  --      0.1736                 0.2631                 0.4590
 IR Inten    --      3.5812                 4.9267                 4.6116

                     13                     14                     15
                      A                      A                      A
 Frequencies --    464.1423               469.2113               479.9937
 Red. masses --      3.2165                 1.9198                 2.1438
 Frc consts  --      0.4083                 0.2490                 0.2910
 IR Inten    --      6.1747                48.9013                35.7588

                     16                     17                     18
                      A                      A                      A
 Frequencies --    518.0123               559.6740               652.6571
 Red. masses --      3.0867                13.8085                 5.8318
 Frc consts  --      0.4880                 2.5484                 1.4636
 IR Inten    --      4.4134                 9.3465                 0.9074

                     19                     20                     21
                      A                      A                      A
 Frequencies --    695.2486               697.8502               712.0329
 Red. masses --      6.1224                 5.6686                 3.4603
 Frc consts  --      1.7436                 1.6265                 1.0336
 IR Inten    --     18.1694                 3.6098                 5.6598

                     22                     23                     24
                      A                      A                      A
 Frequencies --    760.0951               790.6803               803.9787
 Red. masses --      4.4128                 1.5344                 3.2110
 Frc consts  --      1.5021                 0.5652                 1.2229
 IR Inten    --      6.1298                 3.1355                 3.5440

                     25                     26                     27
                      A                      A                      A
 Frequencies --    815.9462               826.8706               859.8263
 Red. masses --      1.7999                 3.4597                 2.0825
 Frc consts  --      0.7060                 1.3937                 0.9071
 IR Inten    --     46.0186                22.7451               104.4763

                     28                     29                     30
                      A                      A                      A
 Frequencies --    890.2679               907.8217               950.4400
 Red. masses --      3.0585                 2.5596                 2.4939
 Frc consts  --      1.4283                 1.2429                 1.3273
 IR Inten    --     18.1882                 0.6262                 3.8986

                     31                     32                     33
                      A                      A                      A
 Frequencies --    987.4701               994.1485               997.5702
 Red. masses --      2.5566                 1.3827                 3.8942
 Frc consts  --      1.4688                 0.8052                 2.2833
 IR Inten    --      8.3267                 0.5911                 5.6435

                     34                     35                     36
                      A                      A                      A
 Frequencies --   1005.4900              1062.9877              1099.2778
 Red. masses --      2.0652                 2.3906                 2.0872
 Frc consts  --      1.2302                 1.5915                 1.4861
 IR Inten    --     18.1687                 5.6635                15.9654

                     37                     38                     39
                      A                      A                      A
 Frequencies --   1103.4221              1114.6035              1131.2935
 Red. masses --      2.2301                 2.4869                 1.5263
 Frc consts  --      1.5998                 1.8204                 1.1509
 IR Inten    --      6.5138                29.4945                 2.2281

                     40                     41                     42
                      A                      A                      A
 Frequencies --   1215.4934              1226.1439              1246.6270
 Red. masses --      2.9363                 1.5463                 1.5204
 Frc consts  --      2.5560                 1.3697                 1.3921
 IR Inten    --     15.2206                14.1847                 3.5506

                     43                     44                     45
                      A                      A                      A
 Frequencies --   1262.8697              1289.9637              1324.5793
 Red. masses --      1.5333                 2.8700                 1.5997
 Frc consts  --      1.4408                 2.8138                 1.6536
 IR Inten    --      3.6876                24.0889                 6.0376

                     46                     47                     48
                      A                      A                      A
 Frequencies --   1333.2015              1333.7867              1338.6696
 Red. masses --      1.5248                 1.2533                 1.7575
 Frc consts  --      1.5968                 1.3137                 1.8556
 IR Inten    --      4.9733                 4.0293                 7.7953

                     49                     50                     51
                      A                      A                      A
 Frequencies --   1362.9345              1391.1332              1392.6752
 Red. masses --      4.5844                 1.4372                 1.3285
 Frc consts  --      5.0174                 1.6387                 1.5182
 IR Inten    --    272.8526                 3.1076               115.7770

                     52                     53                     54
                      A                      A                      A
 Frequencies --   1451.4459              1492.0849              1494.3219
 Red. masses --      1.7478                 1.2699                 2.1826
 Frc consts  --      2.1694                 1.6657                 2.8715
 IR Inten    --     60.5159                 9.8943                90.8906

                     55                     56                     57
                      A                      A                      A
 Frequencies --   1520.2397              1522.8835              1542.7426
 Red. masses --      1.0930                 1.1372                 1.1203
 Frc consts  --      1.4883                 1.5538                 1.5709
 IR Inten    --      6.6018                17.8730                19.2978

                     58                     59                     60
                      A                      A                      A
 Frequencies --   1570.2284              1620.0599              1644.6383
 Red. masses --      5.1397                 4.4641                 7.1975
 Frc consts  --      7.4664                 6.9032                11.4702
 IR Inten    --    421.7871               321.9312               559.5990

                     61                     62                     63
                      A                      A                      A
 Frequencies --   2291.4531              3047.3465              3058.1769
 Red. masses --     13.9848                 1.0713                 1.0659
 Frc consts  --     43.2642                 5.8617                 5.8733
 IR Inten    --    530.0555                23.9579                59.5507

                     64                     65                     66
                      A                      A                      A
 Frequencies --   3067.8950              3078.0866              3106.7755
 Red. masses --      1.0672                 1.0864                 1.0977
 Frc consts  --      5.9181                 6.0648                 6.2422
 IR Inten    --     25.2151                32.8922                14.2593

                     67                     68                     69
                      A                      A                      A
 Frequencies --   3123.4287              3159.9583              3177.2676
 Red. masses --      1.1041                 1.0953                 1.0910
 Frc consts  --      6.3463                 6.4436                 6.4889
 IR Inten    --     45.9426                15.5055                33.9076

                     70                     71                     72
                      A                      A                      A
 Frequencies --   3253.0274              3475.9429              3632.1219
 Red. masses --      1.0944                 1.0741                 1.0769
 Frc consts  --      6.8235                 7.6464                 8.3703
 IR Inten    --      0.9234                 0.9023                48.1024

 - Thermochemistry -
 -------------------
 Temperature   298.150 Kelvin.  Pressure   1.00000 Atm.
 Atom     1 has atomic number  6 and mass  12.00000

 Molecular mass:   205.10759 amu.
 Principal axes and moments of inertia in atomic units:
                           1         2         3
     Eigenvalues --  1907.472404420.073585870.48258
           X            0.99973   0.02258   0.00614
           Y           -0.02258   0.99974   0.00091
           Z           -0.00612  -0.00105   0.99998
 This molecule is an asymmetric top.
 Rotational symmetry number  1.
 Warning -- assumption of classical behavior for rotation
           may cause significant error
 Rotational temperatures (Kelvin)      0.04541     0.01960     0.01475
 Rotational constants (GHZ):           0.94614     0.40831     0.30743
 Zero-point vibrational energy     547870.3 (Joules/Mol)
                                  130.94415 (Kcal/Mol)
 Warning -- explicit consideration of  17 degrees of freedom as
           vibrations may cause significant error
 Vibrational temperatures:     53.63    64.01    87.91   120.77   135.54
          (Kelvin)            219.38   263.77   318.34   355.60   447.88
                              486.07   608.89   667.80   675.09   690.60
                              745.30   805.25   939.03  1000.31  1004.05
                             1024.46  1093.61  1137.61  1156.75  1173.96
                             1189.68  1237.10  1280.90  1306.15  1367.47
                             1420.75  1430.36  1435.28  1446.68  1529.40
                             1581.62  1587.58  1603.67  1627.68  1748.82
                             1764.15  1793.62  1816.99  1855.97  1905.77
                             1918.18  1919.02  1926.05  1960.96  2001.53
                             2003.75  2088.31  2146.78  2150.00  2187.29
                             2191.09  2219.66  2259.21  2330.90  2366.27
                             3296.89  4384.45  4400.03  4414.02  4428.68
                             4469.96  4493.92  4546.48  4571.38  4680.38
                             5001.11  5225.81

 Zero-point correction=                           0.208673 (Hartree/Particle)
 Thermal correction to Energy=                    0.221509
 Thermal correction to Enthalpy=                  0.222453
 Thermal correction to Gibbs Free Energy=         0.167437
 Sum of electronic and zero-point Energies=           -694.515640
 Sum of electronic and thermal Energies=              -694.502804
 Sum of electronic and thermal Enthalpies=            -694.501860
 Sum of electronic and thermal Free Energies=         -694.556876

                     E (Thermal)             CV                S
                      KCal/Mol        Cal/Mol-Kelvin    Cal/Mol-Kelvin
 Total                  138.999             48.018            115.791
 Electronic               0.000              0.000              0.000
 Translational            0.889              2.981             41.859
 Rotational               0.889              2.981             32.270
 Vibrational            137.221             42.057             41.661
 Vibration     1          0.594              1.982              5.399
 Vibration     2          0.595              1.980              5.049
 Vibration     3          0.597              1.973              4.421
 Vibration     4          0.601              1.960              3.797
 Vibration     5          0.603              1.953              3.571
 Vibration     6          0.619              1.900              2.641
 Vibration     7          0.631              1.863              2.294
 Vibration     8          0.648              1.809              1.949
 Vibration     9          0.661              1.767              1.751
 Vibration    10          0.700              1.652              1.355
 Vibration    11          0.718              1.600              1.222
 Vibration    12          0.785              1.420              0.881
 Vibration    13          0.822              1.330              0.754
 Vibration    14          0.826              1.318              0.740
 Vibration    15          0.836              1.294              0.710
 Vibration    16          0.873              1.210              0.615
 Vibration    17          0.915              1.119              0.524

 Optimization completed.
    -- Stationary point found.

 1\1\GINC-NODE359\Freq\RB3LYP\6-31G(d)\C8H11N7\VSC10255\10-Dec-2020\0\\
 #N Geom=AllCheck Guess=TCheck SCRF=Check GenChk RB3LYP/6-31G(d) Freq\\
 CID_151125349_JID_5300_neutraal\\0,1\C,0.4194412932,-1.1980027446,-0.3
 9918578\C,-0.5121729445,-0.2667508656,0.4449745673\N,0.1536795128,1.04
 28576629,0.5623960492\C,1.0149630737,1.1172731314,-0.6210301307\C,1.61
 0240401,-0.2998053151,-0.7940717519\N,2.71607795,-0.5146921074,0.13681
 97167\C,3.9683160568,-0.0213616133,-0.0486878856\N,4.9152821136,-0.455
 4738388,0.8145965784\C,6.1355568895,0.0466461025,0.62635878\C,6.454209

 Normal termination of Gaussian 16 at Thu Dec 10 15:51:01 2020.

 ----------------------------------------------------------------------
 # B3LYP/6-311++G(d,p) empiricaldispersion=gd3bj scf=xqc pop=npa geom=c
 heck
 ----------------------------------------------------------------------

 ---------------------------------------
 CID_151125349_JID_5300_Energie_neutraal
 ---------------------------------------
 Structure from the checkpoint file:  "JID_5300.chk"
 Charge =  0 Multiplicity = 1

 SCF Done:  E(RB3LYP) =  -694.915789531     A.U. after   15 cycles
 Normal termination of Gaussian 16 at Thu Dec 10 15:55:32 2020.

 ----------------------------------------------------------------------
 # B3LYP/6-311++G(d,p) empiricaldispersion=gd3bj scf=xqc pop=npa geom=c
 heck
 ----------------------------------------------------------------------

 -------------------------------------
 CID_151125349_JID_5300_Energie_kation
 -------------------------------------
 Structure from the checkpoint file:  "JID_5300.chk"
 Charge =  1 Multiplicity = 2

 SCF Done:  E(UB3LYP) =  -694.623424707     A.U. after   25 cycles
 Normal termination of Gaussian 16 at Thu Dec 10 16:09:16 2020.
 Gaussian 16:  ES64L-G16RevA.03 25-Dec-2016

 ------------------------------------
 CID_151125349_JID_5300_Energie_anion
 ------------------------------------
 Structure from the checkpoint file:  "JID_5300.chk"
 Charge = -1 Multiplicity = 2

                         Standard orientation:
 ---------------------------------------------------------------------
 Center     Atomic      Atomic             Coordinates (Angstroms)
 Number     Number       Type             X           Y           Z
 ---------------------------------------------------------------------
      1          6           0        3.208346   -0.149998    1.052135
      2          6           0        4.011488    0.148589   -0.256892
      3          7           0        3.043793    0.556071   -1.291178
      4          6           0        1.916661    1.107260   -0.533808
      5          6           0        1.744740    0.180735    0.692734
      6          7           0        1.042093   -1.045665    0.321461
      7          6           0       -0.302076   -1.122242    0.139160
      8          7           0       -0.812019   -2.363819   -0.030852
      9          6           0       -2.130206   -2.420783   -0.219978
     10          6           0       -2.960155   -1.301718   -0.245822
     11          6           0       -2.312470   -0.079879   -0.053732
     12          7           0       -0.997648    0.031483    0.139574
     13          7           0       -3.096296    1.089619   -0.066636
     14          7           0       -2.470900    2.154514    0.099682
     15          7           0       -2.030357    3.190851    0.238322
     16          1           0        3.318883   -1.185697    1.392503
     17          1           0        3.543712    0.488770    1.874264
     18          1           0        4.709862    0.975249   -0.081921
     19          1           0        4.600494   -0.705526   -0.602977
     20          1           0        2.707360   -0.282677   -1.763225
     21          1           0        1.014020    1.173914   -1.142337
     22          1           0        2.174262    2.117486   -0.188081
     23          1           0        1.204444    0.672797    1.508563
     24          1           0        1.495987   -1.938974    0.446959
     25          1           0       -2.548552   -3.416394   -0.357640
     26          1           0       -4.029103   -1.362101   -0.401506
 ---------------------------------------------------------------------

 SCF Done:  E(UB3LYP) =  -694.919516018     A.U. after   33 cycles
 SCF Done:  E(UB3LYP) =  -694.919516018     a.u. after    1 cycles

 The electronic state is 2-A.
 Alpha  occ. eigenvalues --  -14.32451 -14.23525 -14.22299 -14.20534 -14.19529
 Alpha  occ. eigenvalues --  -14.15212 -14.14901 -10.13202 -10.09868 -10.09583
 Alpha  occ. eigenvalues --  -10.09452 -10.07741 -10.07235 -10.06090 -10.03070
 Alpha  occ. eigenvalues --   -0.99918  -0.86980  -0.84506  -0.81985  -0.77872
 Alpha  occ. eigenvalues --   -0.73780  -0.66243  -0.63268  -0.61337  -0.54930
 Alpha  occ. eigenvalues --   -0.51864  -0.49571  -0.47528  -0.45301  -0.40828
 Alpha  occ. eigenvalues --   -0.39471  -0.37806  -0.37600  -0.36325  -0.35573
 Alpha  occ. eigenvalues --   -0.33445  -0.33054  -0.32688  -0.31095  -0.30189
 Alpha  occ. eigenvalues --   -0.27847  -0.26959  -0.25965  -0.25121  -0.24582
 Alpha  occ. eigenvalues --   -0.24409  -0.21150  -0.18126  -0.18005  -0.17278
 Alpha  occ. eigenvalues --   -0.13684  -0.12383  -0.11400  -0.08875   0.04865
 Alpha virt. eigenvalues --    0.06379   0.08271   0.09049   0.09278   0.10135
 Alpha virt. eigenvalues --    0.10545   0.11484   0.11821   0.12389   0.12584
 Alpha virt. eigenvalues --    0.13035   0.13334   0.14532   0.15265   0.16621

  Beta  occ. eigenvalues --  -14.32094 -14.23098 -14.22488 -14.20538 -14.19527
  Beta  occ. eigenvalues --  -14.14986 -14.14638 -10.13242 -10.09869 -10.09438
  Beta  occ. eigenvalues --  -10.09204 -10.07736 -10.07220 -10.05824 -10.03190
  Beta  occ. eigenvalues --   -0.99311  -0.86719  -0.84335  -0.81906  -0.77712
  Beta  occ. eigenvalues --   -0.73214  -0.66126  -0.63060  -0.61257  -0.54353
  Beta  occ. eigenvalues --   -0.51836  -0.49513  -0.47461  -0.45072  -0.40769
  Beta  occ. eigenvalues --   -0.39376  -0.37697  -0.36199  -0.35993  -0.35383
  Beta  occ. eigenvalues --   -0.33293  -0.32714  -0.32594  -0.30444  -0.29609
  Beta  occ. eigenvalues --   -0.27559  -0.26703  -0.25939  -0.24958  -0.24526
  Beta  occ. eigenvalues --   -0.24388  -0.20043  -0.18106  -0.16959  -0.16833
  Beta  occ. eigenvalues --   -0.13575  -0.11573  -0.11101  -0.08245
  Beta virt. eigenvalues --    0.06815   0.08472   0.09088   0.09351   0.10278
  Beta virt. eigenvalues --    0.10676   0.10869   0.11575   0.11862   0.12413
  Beta virt. eigenvalues --    0.12859   0.13077   0.13394   0.14496   0.16104

 Mulliken charges and spin densities:
               1          2
     1  C    0.049588  -0.499918
     2  C    0.050190  -0.528819
     3  N   -0.108891   0.030738
     4  C   -0.498765  -0.031224
     5  C   -0.130783   0.488215
     6  N   -0.196280  -0.030377
     7  C   -0.334424  -0.112917
     8  N   -0.167949   0.110792
     9  C   -0.195313   0.189794
    10  C    0.232703  -0.044555
    11  C   -0.586375   0.194537
    12  N   -0.179093   0.117705
    13  N    0.063970  -0.089192
    14  N    0.148329   0.092287
    15  N   -0.294283   0.254074
    16  H   -0.105511   0.217017
    17  H   -0.010895   0.162108
    18  H    0.047730   0.096890
    19  H   -0.157628   0.298833
    20  H    0.225316   0.011509
    21  H    0.251796  -0.012540
    22  H    0.093786   0.044419
    23  H    0.212701   0.040100
    24  H    0.305538   0.008986
    25  H    0.128677  -0.014899
    26  H    0.155866   0.006434
 Sum of Mulliken charges =  -1.00000   1.00000

 Dipole moment (field-independent basis, Debye):
    X=              1.8657    Y=             -0.9503    Z=              0.3690  Tot=              2.1260
 Quadrupole moment (field-independent basis, Debye-Ang):
   XX=           -134.3804   YY=           -123.4168   ZZ=           -101.1509
   XY=              3.8890   XZ=              2.5911   YZ=              1.1857

 Summary of Natural Population Analysis:

                                       Natural Population
                Natural  -----------------------------------------------
    Atom  No    Charge         Core      Valence    Rydberg      Total
 -----------------------------------------------------------------------
      C    1   -0.20589      0.99963     2.19752    0.00873     3.20589
      C    2   -0.09600      0.99966     2.08417    0.01217     3.09600
      N    3   -0.33802      0.99977     2.82679    0.01146     3.83802
      C    4   -0.09319      0.99962     2.08269    0.01088     3.09319
      C    5   -0.01871      0.99959     2.00544    0.01367     3.01871
      N    6   -0.32396      0.99964     2.81158    0.01273     3.82396
      C    7    0.29715      0.99962     1.68303    0.02020     2.70285
      N    8   -0.25792      0.99968     2.74819    0.01005     3.75792
      C    9    0.09068      0.99962     1.89548    0.01422     2.90932
      C   10   -0.20239      0.99951     2.19453    0.00834     3.20239
      C   11    0.25399      0.99951     1.73189    0.01461     2.74601
      N   12   -0.27978      0.99963     2.77107    0.00908     3.77978
      N   13   -0.22868      0.99966     2.71522    0.01381     3.72868
      N   14    0.16098      0.99971     2.32259    0.01672     3.33902
      N   15    0.01743      0.99981     2.46991    0.01284     3.48257
      H   16    0.09899      0.00000     0.39972    0.00129     0.40101
      H   17    0.10046      0.00000     0.39836    0.00118     0.39954
      H   18    0.08716      0.00000     0.41165    0.00119     0.41284
      H   19    0.09335      0.00000     0.40558    0.00107     0.40665
      H   20    0.17179      0.00000     0.32571    0.00249     0.32821
      H   21    0.11227      0.00000     0.38662    0.00112     0.38773
      H   22    0.08689      0.00000     0.41195    0.00116     0.41311
      H   23    0.10255      0.00000     0.39594    0.00151     0.39745
      H   24    0.19181      0.00000     0.30444    0.00375     0.30819
      H   25    0.07680      0.00000     0.42197    0.00123     0.42320
      H   26    0.10223      0.00000     0.39674    0.00103     0.39777
 =======================================================================
   * Total *   -0.00000     14.99465    38.79880    0.20655    54.00000

 Normal termination of Gaussian 16 at Thu Dec 10 16:27:16 2020.
