 Gaussian 16, Revision A.03,

 -----------------------------------------------------------
 # opt freq B3LYP/6-31G(d) empiricaldispersion=gd3bj scf=xqc
 -----------------------------------------------------------

 -------------------------------
 CID_154222070_JID_3538_neutraal
 -------------------------------
 Symbolic Z-matrix:
 Charge =  0 Multiplicity = 1

 SCF Done:  E(RB3LYP) =  -892.357655787     A.U. after   17 cycles
 SCF Done:  E(RB3LYP) =  -892.364208593     A.U. after   14 cycles
 SCF Done:  E(RB3LYP) =  -892.364737866     A.U. after   12 cycles
 SCF Done:  E(RB3LYP) =  -892.364849060     A.U. after   11 cycles
 SCF Done:  E(RB3LYP) =  -892.364864460     A.U. after   10 cycles
 SCF Done:  E(RB3LYP) =  -892.364867342     A.U. after    9 cycles
 Optimization completed.
    -- Stationary point found.
 Normal termination of Gaussian 16 at Wed Dec  9 23:31:47 2020.

 --------------------------------------------------------------------
 #N Geom=AllCheck Guess=TCheck SCRF=Check GenChk RB3LYP/6-31G(d) Freq
 --------------------------------------------------------------------

 Structure from the checkpoint file:  "JID_3538.chk"
 -------------------------------
 CID_154222070_JID_3538_neutraal
 -------------------------------
 Charge =  0 Multiplicity = 1

 SCF Done:  E(RB3LYP) =  -892.364867342     A.U. after    1 cycles

  Exact polarizability: 198.244   7.780 156.062  -0.000   0.000  46.171
 Approx polarizability: 375.802  47.771 321.404  -0.000   0.000  75.973

                      1                      2                      3
                      A                      A                      A
 Frequencies --    106.4548               117.1424               188.6985
 Red. masses --      5.9596                 4.4523                 6.9191
 Frc consts  --      0.0398                 0.0360                 0.1452
 IR Inten    --      0.8480                 0.2583                 0.0754

                      4                      5                      6
                      A                      A                      A
 Frequencies --    241.8569               296.4034               354.8426
 Red. masses --      5.6808                 5.4795                 3.7355
 Frc consts  --      0.1958                 0.2836                 0.2771
 IR Inten    --      0.4135                 6.7500                 2.5698

                      7                      8                      9
                      A                      A                      A
 Frequencies --    393.4463               418.1738               425.8706
 Red. masses --     10.0575                10.0355                 7.4350
 Frc consts  --      0.9173                 1.0340                 0.7945
 IR Inten    --      1.2694                 2.9706                 2.4795

                     10                     11                     12
                      A                      A                      A
 Frequencies --    465.2615               510.6275               525.3420
 Red. masses --      3.5831                 8.6172                 3.9942
 Frc consts  --      0.4570                 1.3238                 0.6495
 IR Inten    --      3.3064                 1.3048                 0.7065

                     13                     14                     15
                      A                      A                      A
 Frequencies --    649.6595               671.9759               713.4222
 Red. masses --      4.4417                 6.5494                 5.6535
 Frc consts  --      1.1045                 1.7424                 1.6953
 IR Inten    --      1.3990                 3.0165                 0.0841

                     16                     17                     18
                      A                      A                      A
 Frequencies --    726.8117               747.2222               781.0111
 Red. masses --      7.2143                 2.1105                 1.7586
 Frc consts  --      2.2454                 0.6943                 0.6320
 IR Inten    --      0.2283                14.1144                42.4135

                     19                     20                     21
                      A                      A                      A
 Frequencies --    801.7379               833.5768               873.8722
 Red. masses --      6.3051                 1.5046                 1.4013
 Frc consts  --      2.3878                 0.6160                 0.6305
 IR Inten    --      2.2043                 9.1924                 2.4020

                     22                     23                     24
                      A                      A                      A
 Frequencies --    882.8235               885.2942               941.8798
 Red. masses --      4.1228                 1.3853                 7.9875
 Frc consts  --      1.8932                 0.6397                 4.1750
 IR Inten    --     98.7348                17.9761                14.8602

                     25                     26                     27
                      A                      A                      A
 Frequencies --    953.7253               991.8270              1021.4078
 Red. masses --      1.3463                 1.2835                 5.5313
 Frc consts  --      0.7215                 0.7439                 3.4000
 IR Inten    --      1.1886                 0.0047                 5.2917

                     28                     29                     30
                      A                      A                      A
 Frequencies --   1058.0065              1074.6712              1096.4241
 Red. masses --      4.7907                 2.7463                 2.3762
 Frc consts  --      3.1596                 1.8688                 1.6830
 IR Inten    --     15.1763                20.0351                 0.0781

                     31                     32                     33
                      A                      A                      A
 Frequencies --   1153.6086              1180.6020              1202.8877
 Red. masses --      2.2966                 2.4109                 1.1131
 Frc consts  --      1.8007                 1.9799                 0.9489
 IR Inten    --      3.0212                15.5214                 2.0803

                     34                     35                     36
                      A                      A                      A
 Frequencies --   1249.6380              1261.7885              1304.4170
 Red. masses --      3.0819                 1.7399                 1.7456
 Frc consts  --      2.8356                 1.6321                 1.7500
 IR Inten    --    108.5557                11.9497                 3.3420

                     37                     38                     39
                      A                      A                      A
 Frequencies --   1340.8267              1374.2892              1397.5218
 Red. masses --      5.0413                 3.5886                 3.0195
 Frc consts  --      5.3399                 3.9934                 3.4746
 IR Inten    --      5.9436                 2.2926                 4.0028

                     40                     41                     42
                      A                      A                      A
 Frequencies --   1491.2413              1508.8931              1595.3139
 Red. masses --      2.4406                 2.3900                 7.2323
 Frc consts  --      3.1978                 3.2060                10.8447
 IR Inten    --      7.7871                17.1329                 0.7358

                     43                     44                     45
                      A                      A                      A
 Frequencies --   1604.0230              1653.0779              1659.2943
 Red. masses --      5.3961                 9.3642                 5.5071
 Frc consts  --      8.1799                15.0768                 8.9335
 IR Inten    --     10.5357               100.2094                 4.0576

                     46                     47                     48
                      A                      A                      A
 Frequencies --   3190.8244              3200.0175              3212.2427
 Red. masses --      1.0876                 1.0881                 1.0926
 Frc consts  --      6.5241                 6.5646                 6.6425
 IR Inten    --      1.2646                 3.0302                11.0716

                     49                     50                     51
                      A                      A                      A
 Frequencies --   3221.5962              3223.9721              3262.3497
 Red. masses --      1.0976                 1.0910                 1.0962
 Frc consts  --      6.7115                 6.6810                 6.8740
 IR Inten    --     17.2350                 1.3996                 5.6904

 - Thermochemistry -
 -------------------
 Temperature   298.150 Kelvin.  Pressure   1.00000 Atm.
 Atom     1 has atomic number  6 and mass  12.00000

 Molecular mass:   186.02517 amu.
 Principal axes and moments of inertia in atomic units:
                           1         2         3
     Eigenvalues --  1349.989522768.676094118.66561
           X            0.99981  -0.01945  -0.00000
           Y            0.01945   0.99981  -0.00000
           Z            0.00000   0.00000   1.00000
 This molecule is an asymmetric top.
 Rotational symmetry number  1.
 Warning -- assumption of classical behavior for rotation
           may cause significant error
 Rotational temperatures (Kelvin)      0.06416     0.03128     0.02103
 Rotational constants (GHZ):           1.33686     0.65184     0.43819
 Zero-point vibrational energy     359106.4 (Joules/Mol)
                                   85.82848 (Kcal/Mol)
 Warning -- explicit consideration of  12 degrees of freedom as
           vibrations may cause significant error
 Vibrational temperatures:    153.16   168.54   271.50   347.98   426.46
          (Kelvin)            510.54   566.08   601.66   612.73   669.41
                              734.68   755.85   934.72   966.82  1026.46
                             1045.72  1075.09  1123.70  1153.52  1199.33
                             1257.31  1270.19  1273.74  1355.16  1372.20
                             1427.02  1469.58  1522.24  1546.21  1577.51
                             1659.79  1698.62  1730.69  1797.95  1815.43
                             1876.77  1929.15  1977.30  2010.72  2145.56
                             2170.96  2295.30  2307.83  2378.41  2387.35
                             4590.88  4604.11  4621.70  4635.16  4638.58
                             4693.79

 Zero-point correction=                           0.136776 (Hartree/Particle)
 Thermal correction to Energy=                    0.145810
 Thermal correction to Enthalpy=                  0.146754
 Thermal correction to Gibbs Free Energy=         0.102061
 Sum of electronic and zero-point Energies=           -892.228091
 Sum of electronic and thermal Energies=              -892.219057
 Sum of electronic and thermal Enthalpies=            -892.218113
 Sum of electronic and thermal Free Energies=         -892.262806

                     E (Thermal)             CV                S
                      KCal/Mol        Cal/Mol-Kelvin    Cal/Mol-Kelvin
 Total                   91.497             36.799             94.065
 Electronic               0.000              0.000              0.000
 Translational            0.889              2.981             41.568
 Rotational               0.889              2.981             31.110
 Vibrational             89.720             30.837             21.387
 Vibration     1          0.605              1.944              3.333
 Vibration     2          0.608              1.935              3.147
 Vibration     3          0.633              1.855              2.241
 Vibration     4          0.658              1.776              1.789
 Vibration     5          0.690              1.680              1.437
 Vibration     6          0.731              1.565              1.145
 Vibration     7          0.761              1.484              0.987
 Vibration     8          0.781              1.431              0.898
 Vibration     9          0.788              1.414              0.872
 Vibration    10          0.823              1.327              0.751
 Vibration    11          0.866              1.226              0.632
 Vibration    12          0.880              1.194              0.598

 Optimization completed.
    -- Stationary point found.
 Normal termination of Gaussian 16 at Wed Dec  9 23:36:15 2020.

 ----------------------------------------------------------------------
 # B3LYP/6-311++G(d,p) empiricaldispersion=gd3bj scf=xqc pop=npa geom=c
 heck
 ----------------------------------------------------------------------

 ---------------------------------------
 CID_154222070_JID_3538_Energie_neutraal
 ---------------------------------------
 Structure from the checkpoint file:  "JID_3538.chk"
 Charge =  0 Multiplicity = 1

 SCF Done:  E(RB3LYP) =  -892.511698371     A.U. after   17 cycles
 Normal termination of Gaussian 16 at Wed Dec  9 23:37:53 2020.

 ----------------------------------------------------------------------
 # B3LYP/6-311++G(d,p) empiricaldispersion=gd3bj scf=xqc pop=npa geom=c
 heck
 ----------------------------------------------------------------------

 -------------------------------------
 CID_154222070_JID_3538_Energie_kation
 -------------------------------------
 Structure from the checkpoint file:  "JID_3538.chk"
 Charge =  1 Multiplicity = 2

 SCF Done:  E(UB3LYP) =  -892.211185657     A.U. after   26 cycles
 Normal termination of Gaussian 16 at Wed Dec  9 23:41:11 2020.
 Gaussian 16:  ES64L-G16RevA.03 25-Dec-2016

 ----------------------------------------------------------------------
 # B3LYP/6-311++G(d,p) empiricaldispersion=gd3bj scf=xqc pop=npa geom=c
 heck
 ----------------------------------------------------------------------

 ------------------------------------
 CID_154222070_JID_3538_Energie_anion
 ------------------------------------
 Structure from the checkpoint file:  "JID_3538.chk"
 Charge = -1 Multiplicity = 2

                         Standard orientation:
 ---------------------------------------------------------------------
 Center     Atomic      Atomic             Coordinates (Angstroms)
 Number     Number       Type             X           Y           Z
 ---------------------------------------------------------------------
      1          6           0        2.705933   -1.656048    0.000003
      2          6           0        3.305787   -0.386733   -0.000002
      3          6           0        2.515109    0.750492   -0.000004
      4          6           0        1.114637    0.635555   -0.000002
      5          6           0        0.489743   -0.637218    0.000002
      6          6           0        1.328184   -1.774080    0.000006
      7          6           0       -0.944619   -0.749740    0.000001
      8          6           0       -1.831451   -1.800551   -0.000002
      9          7           0       -3.139549   -1.324842   -0.000017
     10          7           0       -3.152814   -0.019639    0.000016
     11          6           0       -1.824889    0.403072    0.000000
     12          6           0       -1.421491    1.700848   -0.000001
     13         16           0        0.228880    2.169108   -0.000001
     14          1           0        3.324652   -2.548208    0.000007
     15          1           0        4.387083   -0.291953   -0.000005
     16          1           0        2.973775    1.735376   -0.000008
     17          1           0        0.864493   -2.755365    0.000011
     18          1           0       -1.652185   -2.867168   -0.000008
     19          1           0       -2.135027    2.519369    0.000007
 ---------------------------------------------------------------------

 SCF Done:  E(UB3LYP) =  -892.559720142     A.U. after   23 cycles

 The electronic state is 2-A.
 Alpha  occ. eigenvalues --  -88.73988 -14.15634 -14.15021 -10.09104 -10.07144
 Alpha  occ. eigenvalues --  -10.06390 -10.06214 -10.06131 -10.05489 -10.04568
 Alpha  occ. eigenvalues --  -10.03657 -10.02483 -10.01797  -7.82658  -5.79001
 Alpha  occ. eigenvalues --   -5.78575  -5.78239  -0.85120  -0.75664  -0.70116
 Alpha  occ. eigenvalues --   -0.65995  -0.63514  -0.60290  -0.59384  -0.50741
 Alpha  occ. eigenvalues --   -0.49915  -0.47727  -0.41834  -0.39605  -0.38889
 Alpha  occ. eigenvalues --   -0.34440  -0.34085  -0.33070  -0.29941  -0.29400
 Alpha  occ. eigenvalues --   -0.28494  -0.25788  -0.25280  -0.24890  -0.22278
 Alpha  occ. eigenvalues --   -0.20910  -0.20282  -0.16627  -0.15221  -0.14803
 Alpha  occ. eigenvalues --   -0.10202  -0.07813  -0.07640   0.01258
 Alpha virt. eigenvalues --    0.07654   0.09250   0.09401   0.09738   0.10353
 Alpha virt. eigenvalues --    0.11115   0.12001   0.14427   0.14565   0.14777
 Alpha virt. eigenvalues --    0.14785   0.16363   0.16412   0.17148   0.18530

  Beta  occ. eigenvalues --  -88.73926 -14.15453 -14.14679 -10.09117 -10.07192
  Beta  occ. eigenvalues --  -10.06318 -10.06206 -10.06093 -10.05394 -10.03826
  Beta  occ. eigenvalues --  -10.03745 -10.02464 -10.01575  -7.82603  -5.78976
  Beta  occ. eigenvalues --   -5.78557  -5.78023  -0.84619  -0.75511  -0.69600
  Beta  occ. eigenvalues --   -0.65753  -0.63035  -0.60040  -0.58995  -0.50200
  Beta  occ. eigenvalues --   -0.49579  -0.47390  -0.41614  -0.39459  -0.38519
  Beta  occ. eigenvalues --   -0.34340  -0.33909  -0.32950  -0.29802  -0.29130
  Beta  occ. eigenvalues --   -0.27827  -0.25624  -0.24765  -0.24363  -0.21976
  Beta  occ. eigenvalues --   -0.20123  -0.19562  -0.15964  -0.14883  -0.13342
  Beta  occ. eigenvalues --   -0.08854  -0.07299  -0.06661
  Beta virt. eigenvalues --    0.07643   0.07882   0.09236   0.09781   0.10348
  Beta virt. eigenvalues --    0.10646   0.11136   0.11999   0.14431   0.14564
  Beta virt. eigenvalues --    0.14816   0.14854   0.16478   0.16488   0.17381

 Mulliken charges and spin densities:
               1          2
     1  C   -0.481083   0.006043
     2  C   -0.317301   0.032529
     3  C   -0.625243   0.015806
     4  C   -0.622847  -0.000354
     5  C    1.307608  -0.024193
     6  C   -0.473235   0.067815
     7  C    1.063489   0.171503
     8  C    0.148108   0.045002
     9  N   -0.196575   0.086722
    10  N   -0.063595   0.151884
    11  C   -1.201776  -0.118022
    12  C    0.458348   0.542182
    13  S   -0.768790   0.077897
    14  H    0.138126  -0.000325
    15  H    0.114460  -0.002483
    16  H    0.131963  -0.005189
    17  H    0.065027  -0.006114
    18  H    0.121509  -0.003003
    19  H    0.201807  -0.037699
 Sum of Mulliken charges =  -1.00000   1.00000

 Dipole moment (field-independent basis, Debye):
    X=              8.4204    Y=              0.9869    Z=              0.0000  Tot=              8.4781
 Quadrupole moment (field-independent basis, Debye-Ang):
   XX=           -128.4545   YY=            -92.2992   ZZ=            -91.6369
   XY=             -7.3252   XZ=             -0.0000   YZ=             -0.0001

 Summary of Natural Population Analysis:

                                       Natural Population
                Natural  -----------------------------------------------
    Atom  No    Charge         Core      Valence    Rydberg      Total
 -----------------------------------------------------------------------
      C    1   -0.11007      0.99957     2.10115    0.00935     3.11007
      C    2   -0.10870      0.99957     2.09946    0.00967     3.10870
      C    3   -0.09972      0.99954     2.09021    0.00997     3.09972
      C    4   -0.08412      0.99933     2.07436    0.01043     3.08412
      C    5   -0.03614      0.99946     2.02762    0.00905     3.03614
      C    6   -0.07259      0.99954     2.06478    0.00827     3.07259
      C    7   -0.02795      0.99945     2.02006    0.00844     3.02795
      C    8   -0.03866      0.99954     2.02442    0.01470     3.03866
      N    9   -0.11903      0.99977     2.59952    0.01974     3.61903
      N   10   -0.09889      0.99973     2.57961    0.01955     3.59889
      C   11   -0.00561      0.99946     1.99158    0.01456     3.00561
      C   12    0.03063      0.99945     1.95959    0.01032     2.96937
      S   13    0.21041      4.99944     2.76744    0.02271     7.78959
      H   14    0.09304      0.00000     0.40595    0.00101     0.40696
      H   15    0.09273      0.00000     0.40624    0.00103     0.40727
      H   16    0.09617      0.00000     0.40232    0.00151     0.40383
      H   17    0.09771      0.00000     0.40090    0.00139     0.40229
      H   18    0.08533      0.00000     0.41327    0.00141     0.41467
      H   19    0.09546      0.00000     0.40151    0.00303     0.40454
 =======================================================================
   * Total *    0.00000     16.99387    30.82998    0.17615    48.00000

 Normal termination of Gaussian 16 at Wed Dec  9 23:44:10 2020.
