 Gaussian 16, Revision A.03,

 -----------------------------------------------------------
 # opt freq B3LYP/6-31G(d) empiricaldispersion=gd3bj scf=xqc
 -----------------------------------------------------------

 -------------------------------
 CID_66269216_JID_10397_neutraal
 -------------------------------
 Symbolic Z-matrix:
 Charge =  0 Multiplicity = 1

 SCF Done:  E(RB3LYP) =  -929.848032266     A.U. after   15 cycles
 SCF Done:  E(RB3LYP) =  -929.854098944     A.U. after   13 cycles
 SCF Done:  E(RB3LYP) =  -929.854612414     A.U. after   12 cycles
 SCF Done:  E(RB3LYP) =  -929.855266567     A.U. after   12 cycles
 SCF Done:  E(RB3LYP) =  -929.855549039     A.U. after   11 cycles
 SCF Done:  E(RB3LYP) =  -929.855725058     A.U. after   11 cycles
 SCF Done:  E(RB3LYP) =  -929.855812186     A.U. after   11 cycles
 SCF Done:  E(RB3LYP) =  -929.855884174     A.U. after   11 cycles
 SCF Done:  E(RB3LYP) =  -929.855951723     A.U. after   10 cycles
 SCF Done:  E(RB3LYP) =  -929.855993212     A.U. after   11 cycles
 SCF Done:  E(RB3LYP) =  -929.856059484     A.U. after   10 cycles
 SCF Done:  E(RB3LYP) =  -929.856060153     A.U. after    9 cycles
 SCF Done:  E(RB3LYP) =  -929.856060497     A.U. after    8 cycles
 SCF Done:  E(RB3LYP) =  -929.856060631     A.U. after    8 cycles
 SCF Done:  E(RB3LYP) =  -929.856060700     A.U. after    7 cycles
 Optimization completed.
    -- Stationary point found.
 Normal termination of Gaussian 16 at Sun Dec 13 12:57:13 2020.

 --------------------------------------------------------------------
 #N Geom=AllCheck Guess=TCheck SCRF=Check GenChk RB3LYP/6-31G(d) Freq
 --------------------------------------------------------------------

 Structure from the checkpoint file:  "JID_10397.chk"
 -------------------------------
 CID_66269216_JID_10397_neutraal
 -------------------------------
 Charge =  0 Multiplicity = 1

 SCF Done:  E(RB3LYP) =  -929.856060700     A.U. after    1 cycles

  Exact polarizability: 261.376  -1.931 161.196   4.790   5.265 109.549
 Approx polarizability: 335.130   5.120 275.096   6.052  20.288 176.508

                      1                      2                      3
                      A                      A                      A
 Frequencies --     17.4243                19.6927                27.1335
 Red. masses --      4.6585                 4.9405                 6.2363
 Frc consts  --      0.0008                 0.0011                 0.0027
 IR Inten    --      2.8651                 1.3609                 0.2537

                      4                      5                      6
                      A                      A                      A
 Frequencies --     45.4785                53.6894                92.6376
 Red. masses --      4.2582                 6.2308                 3.6834
 Frc consts  --      0.0052                 0.0106                 0.0186
 IR Inten    --      7.0431                 0.9570                 1.4377

                      7                      8                      9
                      A                      A                      A
 Frequencies --    106.0105               107.4231               128.4490
 Red. masses --      3.4764                 2.2852                 4.9898
 Frc consts  --      0.0230                 0.0155                 0.0485
 IR Inten    --      1.5727                 2.4177                 3.4299

                     10                     11                     12
                      A                      A                      A
 Frequencies --    149.4376               154.4078               165.2699
 Red. masses --      1.6391                 3.2275                 4.5430
 Frc consts  --      0.0216                 0.0453                 0.0731
 IR Inten    --      1.4507                 0.4062                 5.1161

                     13                     14                     15
                      A                      A                      A
 Frequencies --    205.6573               249.8226               269.1153
 Red. masses --      3.3343                 4.2044                 3.8963
 Frc consts  --      0.0831                 0.1546                 0.1663
 IR Inten    --      1.6296                 1.9742                 2.6152

                     16                     17                     18
                      A                      A                      A
 Frequencies --    278.1499               292.3547               365.4162
 Red. masses --      2.8845                 4.1701                 3.9130
 Frc consts  --      0.1315                 0.2100                 0.3078
 IR Inten    --      2.1617                 1.0393                 5.2040

                     19                     20                     21
                      A                      A                      A
 Frequencies --    373.5350               378.9803               435.5481
 Red. masses --      3.4088                 5.8071                 3.2063
 Frc consts  --      0.2802                 0.4914                 0.3584
 IR Inten    --      1.8078                 0.5519                42.0200

                     22                     23                     24
                      A                      A                      A
 Frequencies --    453.1302               502.9868               514.8944
 Red. masses --      3.6719                 2.5096                 3.5473
 Frc consts  --      0.4442                 0.3741                 0.5541
 IR Inten    --     31.2335                 6.3236                 6.7810

                     25                     26                     27
                      A                      A                      A
 Frequencies --    563.3696               579.5651               599.3095
 Red. masses --      3.1016                 1.6222                 4.3208
 Frc consts  --      0.5800                 0.3210                 0.9144
 IR Inten    --      5.5344               171.3521                45.2108

                     28                     29                     30
                      A                      A                      A
 Frequencies --    608.3465               618.0190               651.3229
 Red. masses --      2.6043                 1.1327                 2.8553
 Frc consts  --      0.5679                 0.2549                 0.7137
 IR Inten    --      8.5823               135.1776                44.0041

                     31                     32                     33
                      A                      A                      A
 Frequencies --    666.2070               688.4322               705.2652
 Red. masses --      2.5400                 3.3938                 2.4887
 Frc consts  --      0.6642                 0.9477                 0.7293
 IR Inten    --     20.0203                 2.4634                 2.0937

                     34                     35                     36
                      A                      A                      A
 Frequencies --    717.1027               728.8839               765.6984
 Red. masses --      6.8512                 4.8920                 2.9921
 Frc consts  --      2.0758                 1.5313                 1.0336
 IR Inten    --      1.9874                 1.6761                72.6214

                     37                     38                     39
                      A                      A                      A
 Frequencies --    793.3440               807.8664               813.2246
 Red. masses --      1.6209                 1.7936                 2.5502
 Frc consts  --      0.6011                 0.6897                 0.9937
 IR Inten    --     13.9490                17.4545                 5.5046

                     40                     41                     42
                      A                      A                      A
 Frequencies --    886.6863               896.5008               898.5458
 Red. masses --      1.5183                 2.2448                 1.5084
 Frc consts  --      0.7033                 1.0630                 0.7175
 IR Inten    --     10.1261                 2.1952                12.6357

                     43                     44                     45
                      A                      A                      A
 Frequencies --    941.7188               946.5333               964.7892
 Red. masses --      3.1969                 1.9750                 1.2553
 Frc consts  --      1.6704                 1.0425                 0.6884
 IR Inten    --     43.4694                 5.3209                 0.4829

                     46                     47                     48
                      A                      A                      A
 Frequencies --   1014.7493              1021.7410              1054.6479
 Red. masses --      4.9218                 1.8472                 6.0823
 Frc consts  --      2.9860                 1.1362                 3.9859
 IR Inten    --      8.2169                 3.6559                 0.8302

                     49                     50                     51
                      A                      A                      A
 Frequencies --   1063.8549              1065.0331              1099.1474
 Red. masses --      2.1382                 3.2200                 2.2477
 Frc consts  --      1.4258                 2.1520                 1.6000
 IR Inten    --     10.6911                70.2430                50.6785

                     52                     53                     54
                      A                      A                      A
 Frequencies --   1106.0597              1117.5931              1137.0126
 Red. masses --      2.9937                 3.2395                 1.9866
 Frc consts  --      2.1578                 2.3839                 1.5132
 IR Inten    --     16.4459                43.0935                13.7323

                     55                     56                     57
                      A                      A                      A
 Frequencies --   1157.0181              1160.1747              1174.0068
 Red. masses --      1.3370                 2.4807                 1.7054
 Frc consts  --      1.0545                 1.9673                 1.3849
 IR Inten    --      5.5666                29.6658                18.2301

                     58                     59                     60
                      A                      A                      A
 Frequencies --   1196.5002              1206.6885              1206.8202
 Red. masses --      2.2832                 1.8347                 1.1263
 Frc consts  --      1.9258                 1.5740                 0.9665
 IR Inten    --     36.7209                13.4005                 2.6590

                     61                     62                     63
                      A                      A                      A
 Frequencies --   1242.9790              1253.7216              1295.6873
 Red. masses --      1.2908                 1.1277                 3.2021
 Frc consts  --      1.1750                 1.0444                 3.1673
 IR Inten    --     43.0688                12.7694                57.4231

                     64                     65                     66
                      A                      A                      A
 Frequencies --   1299.3910              1334.8186              1343.1751
 Red. masses --      2.2444                 1.6273                 1.9393
 Frc consts  --      2.2327                 1.7083                 2.0614
 IR Inten    --     54.8774                13.0323                 0.8729

                     67                     68                     69
                      A                      A                      A
 Frequencies --   1356.9887              1380.0544              1390.0216
 Red. masses --      2.1087                 2.9009                 3.4687
 Frc consts  --      2.2878                 3.2552                 3.9487
 IR Inten    --     45.8122                36.8843               254.8475

                     70                     71                     72
                      A                      A                      A
 Frequencies --   1400.0415              1421.1845              1432.8929
 Red. masses --      1.3794                 1.2746                 2.4147
 Frc consts  --      1.5930                 1.5168                 2.9211
 IR Inten    --      3.3819                 6.1049                 8.3798

                     73                     74                     75
                      A                      A                      A
 Frequencies --   1475.6057              1481.5631              1486.3946
 Red. masses --      2.1047                 1.3564                 1.7237
 Frc consts  --      2.7001                 1.7542                 2.2438
 IR Inten    --     98.4842               108.6288                85.5352

                     76                     77                     78
                      A                      A                      A
 Frequencies --   1497.3885              1502.4797              1509.8670
 Red. masses --      1.5354                 2.7193                 1.1101
 Frc consts  --      2.0283                 3.6168                 1.4910
 IR Inten    --    113.5331                 5.3555                18.7267

                     79                     80                     81
                      A                      A                      A
 Frequencies --   1521.6709              1523.4070              1529.2814
 Red. masses --      1.7073                 1.1472                 1.1102
 Frc consts  --      2.3292                 1.5686                 1.5298
 IR Inten    --     17.6828                 6.1192                 1.3495

                     82                     83                     84
                      A                      A                      A
 Frequencies --   1542.9759              1552.6081              1561.5495
 Red. masses --      1.0901                 1.1555                 1.9127
 Frc consts  --      1.5291                 1.6412                 2.7479
 IR Inten    --     22.9135                61.7156                40.6415

                     85                     86                     87
                      A                      A                      A
 Frequencies --   1594.4949              1644.4931              1668.8449
 Red. masses --      6.1207                 5.2042                 5.7450
 Frc consts  --      9.1685                 8.2922                 9.4269
 IR Inten    --      1.1311                56.8160               135.0095

                     88                     89                     90
                      A                      A                      A
 Frequencies --   1764.7246              2998.5408              3018.9855
 Red. masses --      7.8781                 1.0711                 1.0656
 Frc consts  --     14.4552                 5.6741                 5.7220
 IR Inten    --    258.8371                54.0701                25.7952

                     91                     92                     93
                      A                      A                      A
 Frequencies --   3039.4896              3067.1381              3078.3900
 Red. masses --      1.0424                 1.0966                 1.0603
 Frc consts  --      5.6738                 6.0780                 5.9198
 IR Inten    --     64.5929                15.5873                10.5253

                     94                     95                     96
                      A                      A                      A
 Frequencies --   3095.2155              3101.5393              3132.3949
 Red. masses --      1.1000                 1.0919                 1.1073
 Frc consts  --      6.2088                 6.1885                 6.4015
 IR Inten    --     34.3305                57.7640                13.3670

                     97                     98                     99
                      A                      A                      A
 Frequencies --   3165.2246              3174.0493              3196.4677
 Red. masses --      1.0984                 1.0875                 1.0916
 Frc consts  --      6.4838                 6.4549                 6.5711
 IR Inten    --     12.7722                12.3734                20.3430

                    100                    101                    102
                      A                      A                      A
 Frequencies --   3220.5774              3240.1124              3305.5766
 Red. masses --      1.0933                 1.0893                 1.0993
 Frc consts  --      6.6812                 6.7378                 7.0773
 IR Inten    --     12.2400                 7.1059                 1.0389

                    103                    104                    105
                      A                      A                      A
 Frequencies --   3565.5007              3593.7192              3632.2582
 Red. masses --      1.0754                 1.0755                 1.0654
 Frc consts  --      8.0552                 8.1836                 8.2816
 IR Inten    --     10.8858                26.1337               193.3351

 - Thermochemistry -
 -------------------
 Temperature   298.150 Kelvin.  Pressure   1.00000 Atm.
 Atom     1 has atomic number  6 and mass  12.00000

 Molecular mass:   275.13822 amu.
 Principal axes and moments of inertia in atomic units:
                           1         2         3
     Eigenvalues --  1750.15780********************
           X            1.00000  -0.00100   0.00162
           Y            0.00101   0.99995  -0.01021
           Z           -0.00161   0.01021   0.99995
 This molecule is an asymmetric top.
 Rotational symmetry number  1.
 Warning -- assumption of classical behavior for rotation
           may cause significant error
 Rotational temperatures (Kelvin)      0.04949     0.00490     0.00467
 Rotational constants (GHZ):           1.03119     0.10200     0.09726
 Zero-point vibrational energy     799356.1 (Joules/Mol)
                                  191.05070 (Kcal/Mol)
 Warning -- explicit consideration of  29 degrees of freedom as
           vibrations may cause significant error
 Vibrational temperatures:     25.07    28.33    39.04    65.43    77.25
          (Kelvin)            133.28   152.53   154.56   184.81   215.01
                              222.16   237.79   295.90   359.44   387.20
                              400.20   420.63   525.75   537.43   545.27
                              626.66   651.95   723.69   740.82   810.56
                              833.86   862.27   875.27   889.19   937.11
                              958.52   990.50  1014.72  1031.75  1048.70
                             1101.67  1141.45  1162.34  1170.05  1275.74
                             1289.86  1292.81  1354.92  1361.85  1388.12
                             1460.00  1470.06  1517.40  1530.65  1532.35
                             1581.43  1591.37  1607.97  1635.91  1664.69
                             1669.23  1689.13  1721.50  1736.16  1736.35
                             1788.37  1803.83  1864.21  1869.53  1920.51
                             1932.53  1952.40  1985.59  1999.93  2014.35
                             2044.77  2061.61  2123.07  2131.64  2138.59
                             2154.41  2161.73  2172.36  2189.35  2191.84
                             2200.29  2220.00  2233.86  2246.72  2294.12
                             2366.06  2401.10  2539.05  4314.23  4343.65
                             4373.15  4412.93  4429.12  4453.32  4462.42
                             4506.82  4554.05  4566.75  4599.00  4633.69
                             4661.80  4755.99  5129.96  5170.56  5226.01

 Zero-point correction=                           0.304459 (Hartree/Particle)
 Thermal correction to Energy=                    0.323456
 Thermal correction to Enthalpy=                  0.324400
 Thermal correction to Gibbs Free Energy=         0.253405
 Sum of electronic and zero-point Energies=           -929.551602
 Sum of electronic and thermal Energies=              -929.532605
 Sum of electronic and thermal Enthalpies=            -929.531660
 Sum of electronic and thermal Free Energies=         -929.602656

                     E (Thermal)             CV                S
                      KCal/Mol        Cal/Mol-Kelvin    Cal/Mol-Kelvin
 Total                  202.972             70.208            149.423
 Electronic               0.000              0.000              0.000
 Translational            0.889              2.981             42.735
 Rotational               0.889              2.981             34.707
 Vibrational            201.194             64.246             71.982
 Vibration     1          0.593              1.986              6.908
 Vibration     2          0.593              1.986              6.665
 Vibration     3          0.593              1.984              6.029
 Vibration     4          0.595              1.979              5.005
 Vibration     5          0.596              1.976              4.677
 Vibration     6          0.602              1.954              3.604
 Vibration     7          0.605              1.944              3.341
 Vibration     8          0.606              1.943              3.315
 Vibration     9          0.611              1.925              2.969
 Vibration    10          0.618              1.903              2.679
 Vibration    11          0.620              1.898              2.617
 Vibration    12          0.624              1.885              2.489
 Vibration    13          0.640              1.832              2.082
 Vibration    14          0.663              1.763              1.732
 Vibration    15          0.674              1.730              1.602
 Vibration    16          0.679              1.714              1.545
 Vibration    17          0.688              1.688              1.460
 Vibration    18          0.739              1.543              1.099
 Vibration    19          0.745              1.526              1.065
 Vibration    20          0.749              1.515              1.043
 Vibration    21          0.796              1.393              0.841
 Vibration    22          0.812              1.354              0.786
 Vibration    23          0.858              1.243              0.651
 Vibration    24          0.870              1.217              0.622
 Vibration    25          0.919              1.111              0.517
 Vibration    26          0.936              1.075              0.486
 Vibration    27          0.957              1.033              0.451
 Vibration    28          0.967              1.014              0.436
 Vibration    29          0.978              0.994              0.420

                           ! Non-Optimized Parameters !
 Normal termination of Gaussian 16 at Sun Dec 13 13:10:36 2020.

 ----------------------------------------------------------------------
 # B3LYP/6-311++G(d,p) empiricaldispersion=gd3bj scf=xqc pop=npa geom=c
 heck
 ----------------------------------------------------------------------

 ---------------------------------------
 CID_66269216_JID_10397_Energie_neutraal
 ---------------------------------------
 Structure from the checkpoint file:  "JID_10397.chk"
 Charge =  0 Multiplicity = 1

 SCF Done:  E(RB3LYP) =  -930.124750961     A.U. after   16 cycles
 Normal termination of Gaussian 16 at Sun Dec 13 13:16:19 2020.

 ----------------------------------------------------------------------
 # B3LYP/6-311++G(d,p) empiricaldispersion=gd3bj scf=xqc pop=npa geom=c
 heck
 ----------------------------------------------------------------------

 -------------------------------------
 CID_66269216_JID_10397_Energie_kation
 -------------------------------------
 Structure from the checkpoint file:  "JID_10397.chk"
 Charge =  1 Multiplicity = 2

 SCF Done:  E(UB3LYP) =  -929.840492377     A.U. after   30 cycles
 Normal termination of Gaussian 16 at Sun Dec 13 13:30:58 2020.
 Gaussian 16:  ES64L-G16RevA.03 25-Dec-2016

 ----------------------------------------------------------------------
 # B3LYP/6-311++G(d,p) empiricaldispersion=gd3bj scf=xqc pop=npa geom=c
 heck
 ----------------------------------------------------------------------

 ------------------------------------
 CID_66269216_JID_10397_Energie_anion
 ------------------------------------
 Structure from the checkpoint file:  "JID_10397.chk"
 Charge = -1 Multiplicity = 2

                         Standard orientation:
 ---------------------------------------------------------------------
 Center     Atomic      Atomic             Coordinates (Angstroms)
 Number     Number       Type             X           Y           Z
 ---------------------------------------------------------------------
      1          6           0        6.157081   -0.029408    1.455803
      2          7           0        5.739608   -1.035859    0.490831
      3          6           0        4.516834   -1.178942   -0.118998
      4          8           0        4.172173   -2.262629   -0.582916
      5          6           0        3.631695    0.028718   -0.230163
      6          6           0        2.252397   -0.199009   -0.177197
      7          6           0        1.347239    0.860813   -0.318252
      8          6           0        1.858028    2.152634   -0.554845
      9          6           0        3.226861    2.367824   -0.642495
     10          6           0        4.127148    1.313459   -0.472751
     11          7           0       -0.032849    0.688932   -0.200257
     12          6           0       -0.626334   -0.640873   -0.283397
     13          6           0       -2.107293   -0.550169   -0.094526
     14          6           0       -2.830241    0.155816    0.849267
     15          7           0       -4.124823   -0.120218    0.563965
     16          7           0       -4.204505   -0.954455   -0.498071
     17          7           0       -2.987192   -1.206907   -0.900842
     18          6           0       -5.343202    0.343017    1.229918
     19          6           0       -6.429728    0.714734    0.215286
     20          8           0       -6.967550   -0.407794   -0.440644
     21          1           0        5.302096    0.575406    1.760312
     22          1           0        6.925797    0.640344    1.049169
     23          1           0        6.565437   -0.518942    2.346703
     24          1           0        6.255173   -1.907513    0.487739
     25          1           0        1.915480   -1.219856   -0.047980
     26          1           0        1.166156    2.983548   -0.673474
     27          1           0        3.597491    3.368019   -0.848982
     28          1           0        5.193704    1.484983   -0.566380
     29          1           0       -0.567045    1.383548   -0.709354
     30          1           0       -0.422816   -1.150861   -1.237110
     31          1           0       -0.187846   -1.259380    0.508855
     32          1           0       -2.532391    0.803249    1.658795
     33          1           0       -5.712622   -0.451072    1.886893
     34          1           0       -5.065458    1.207310    1.840037
     35          1           0       -7.252070    1.191489    0.759153
     36          1           0       -6.018293    1.456754   -0.488801
     37          1           0       -6.214367   -0.855779   -0.872378
 ---------------------------------------------------------------------

 SCF Done:  E(UB3LYP) =  -930.125345752     A.U. after   33 cycles
 SCF Done:  E(UB3LYP) =  -930.125345760     a.u. after    2 cycles

 The electronic state is 2-A.
 Alpha  occ. eigenvalues --  -19.02984 -18.97594 -14.31823 -14.28154 -14.24765
 Alpha  occ. eigenvalues --  -14.23821 -14.22897 -10.15988 -10.13989 -10.13667
 Alpha  occ. eigenvalues --  -10.12648 -10.12423 -10.12014 -10.11530 -10.11048
 Alpha  occ. eigenvalues --  -10.07274 -10.06904 -10.06528 -10.06194 -10.05937
 Alpha  occ. eigenvalues --   -1.01385  -0.93789  -0.92947  -0.84494  -0.83253
 Alpha  occ. eigenvalues --   -0.82262  -0.74818  -0.72554  -0.68274  -0.65640
 Alpha  occ. eigenvalues --   -0.64321  -0.62096  -0.60139  -0.57529  -0.54171
 Alpha  occ. eigenvalues --   -0.52596  -0.50376  -0.49504  -0.47944  -0.44783
 Alpha  occ. eigenvalues --   -0.43306  -0.42883  -0.40273  -0.40094  -0.38964
 Alpha  occ. eigenvalues --   -0.38376  -0.38056  -0.36933  -0.36720  -0.35555
 Alpha  occ. eigenvalues --   -0.34498  -0.34048  -0.32754  -0.32578  -0.31839
 Alpha  occ. eigenvalues --   -0.31361  -0.31004  -0.30652  -0.29199  -0.27040
 Alpha  occ. eigenvalues --   -0.26649  -0.26142  -0.24719  -0.24001  -0.21101
 Alpha  occ. eigenvalues --   -0.20573  -0.19791  -0.18679  -0.17153  -0.16487
 Alpha  occ. eigenvalues --   -0.16023  -0.14400  -0.11087   0.03515
 Alpha virt. eigenvalues --    0.04781   0.05628   0.06136   0.07224   0.07773
 Alpha virt. eigenvalues --    0.07917   0.08593   0.08875   0.09106   0.09391
 Alpha virt. eigenvalues --    0.10092   0.10380   0.10819   0.11397   0.11661

  Beta  occ. eigenvalues --  -19.02980 -18.97472 -14.31778 -14.28094 -14.24757
  Beta  occ. eigenvalues --  -14.23797 -14.22899 -10.15885 -10.13970 -10.13627
  Beta  occ. eigenvalues --  -10.12595 -10.12420 -10.12010 -10.11540 -10.11065
  Beta  occ. eigenvalues --  -10.07274 -10.06768 -10.06487 -10.06009 -10.05858
  Beta  occ. eigenvalues --   -1.01310  -0.93780  -0.92722  -0.84470  -0.83186
  Beta  occ. eigenvalues --   -0.82159  -0.74649  -0.72460  -0.68210  -0.65360
  Beta  occ. eigenvalues --   -0.64180  -0.62045  -0.60036  -0.57461  -0.53892
  Beta  occ. eigenvalues --   -0.52471  -0.50304  -0.49447  -0.47827  -0.44680
  Beta  occ. eigenvalues --   -0.43250  -0.42806  -0.40219  -0.40030  -0.38850
  Beta  occ. eigenvalues --   -0.38252  -0.37950  -0.36834  -0.36604  -0.35478
  Beta  occ. eigenvalues --   -0.34435  -0.33985  -0.32689  -0.32495  -0.31777
  Beta  occ. eigenvalues --   -0.31309  -0.30927  -0.30509  -0.28708  -0.26920
  Beta  occ. eigenvalues --   -0.26317  -0.26023  -0.24634  -0.23960  -0.20929
  Beta  occ. eigenvalues --   -0.20341  -0.19745  -0.18620  -0.16940  -0.16197
  Beta  occ. eigenvalues --   -0.15543  -0.13817  -0.10624
  Beta virt. eigenvalues --    0.05487   0.06157   0.06567   0.06965   0.07364
  Beta virt. eigenvalues --    0.08076   0.08254   0.08575   0.09111   0.09304
  Beta virt. eigenvalues --    0.09525   0.10217   0.10481   0.10874   0.11455

 Mulliken charges and spin densities:
               1          2
     1  C   -0.398311  -0.023846
     2  N   -0.241768   0.006137
     3  C   -0.225139   0.089052
     4  O   -0.365657   0.043378
     5  C    0.890671   0.005839
     6  C    0.238380   0.099299
     7  C   -0.696892  -0.111395
     8  C   -0.128700   0.178927
     9  C   -0.298138  -0.016780
    10  C   -0.584901   0.049250
    11  N    0.080683   0.034088
    12  C   -0.092407  -0.295476
    13  C    0.332488  -0.654525
    14  C   -0.770445   0.514189
    15  N    0.237369   0.116035
    16  N   -0.365170   0.074318
    17  N   -0.013053   0.062371
    18  C    0.836899  -1.002471
    19  C    0.078240  -0.473166
    20  O   -0.290482   0.026937
    21  H    0.164739   0.002531
    22  H    0.149206   0.005488
    23  H    0.095506   0.018332
    24  H    0.265258   0.028906
    25  H    0.188221  -0.000494
    26  H    0.061290   0.035974
    27  H    0.135343   0.000534
    28  H    0.120386   0.003427
    29  H    0.179167   0.063962
    30  H    0.200795  -0.005993
    31  H    0.132911   0.042915
    32  H   -0.255384   0.444169
    33  H   -0.122306   0.340811
    34  H   -0.684819   0.841567
    35  H   -0.182850   0.352115
    36  H    0.057545   0.091533
    37  H    0.271325   0.012064
 Sum of Mulliken charges =  -1.00000   1.00000

 Dipole moment (field-independent basis, Debye):
    X=              7.2248    Y=              2.2176    Z=              0.3900  Tot=              7.5675
 Quadrupole moment (field-independent basis, Debye-Ang):
   XX=           -242.4914   YY=           -149.4620   ZZ=           -146.6239
   XY=             10.1211   XZ=             22.4349   YZ=            -11.9422

 Summary of Natural Population Analysis:

                                       Natural Population
                Natural  -----------------------------------------------
    Atom  No    Charge         Core      Valence    Rydberg      Total
 -----------------------------------------------------------------------
      C    1   -0.18091      0.99966     2.17403    0.00722     3.18091
      N    2   -0.32254      0.99968     2.81297    0.00989     3.82254
      C    3    0.33940      0.99966     1.63675    0.02419     2.66060
      O    4   -0.31591      0.99988     3.31014    0.00589     4.31591
      C    5    0.01758      0.99947     1.97247    0.01048     2.98242
      C    6   -0.12008      0.99955     2.10505    0.01547     3.12008
      C    7    0.08373      0.99950     1.90544    0.01133     2.91627
      C    8   -0.08523      0.99954     2.07667    0.00902     3.08523
      C    9   -0.10127      0.99958     2.09284    0.00885     3.10127
      C   10   -0.13052      0.99959     2.11548    0.01545     3.13052
      N   11   -0.31352      0.99968     2.80484    0.00900     3.81352
      C   12   -0.10118      0.99959     2.09063    0.01096     3.10118
      C   13    0.03569      0.99957     1.94957    0.01518     2.96431
      C   14   -0.00912      0.99948     1.99884    0.01080     3.00912
      N   15   -0.09408      0.99966     2.58107    0.01335     3.59408
      N   16   -0.06517      0.99975     2.54800    0.01742     3.56517
      N   17   -0.13340      0.99972     2.62019    0.01349     3.63340
      C   18   -0.09774      0.99960     2.08596    0.01218     3.09774
      C   19   -0.01513      0.99961     2.00144    0.01408     3.01513
      O   20   -0.37667      0.99990     3.36982    0.00696     4.37667
      H   21    0.10804      0.00000     0.39097    0.00098     0.39196
      H   22    0.08537      0.00000     0.41331    0.00132     0.41463
      H   23    0.08915      0.00000     0.40960    0.00125     0.41085
      H   24    0.18703      0.00000     0.31046    0.00251     0.31297
      H   25    0.10867      0.00000     0.38987    0.00147     0.39133
      H   26    0.09249      0.00000     0.40616    0.00135     0.40751
      H   27    0.09457      0.00000     0.40455    0.00088     0.40543
      H   28    0.09600      0.00000     0.40232    0.00167     0.40400
      H   29    0.18224      0.00000     0.31527    0.00249     0.31776
      H   30    0.09837      0.00000     0.40011    0.00153     0.40163
      H   31    0.10266      0.00000     0.39612    0.00122     0.39734
      H   32    0.11507      0.00000     0.38368    0.00125     0.38493
      H   33    0.10604      0.00000     0.39211    0.00184     0.39396
      H   34    0.10933      0.00000     0.38662    0.00404     0.39067
      H   35    0.09228      0.00000     0.40630    0.00142     0.40772
      H   36    0.07811      0.00000     0.42052    0.00138     0.42189
      H   37    0.24277      0.00000     0.25379    0.00344     0.25723
 =======================================================================
   * Total *    0.00212     19.99266    52.73398    0.27124    72.99788

 Normal termination of Gaussian 16 at Sun Dec 13 14:02:39 2020.
