 Gaussian 16, Revision A.03,

 -----------------------------------------------------------
 # opt freq B3LYP/6-31G(d) empiricaldispersion=gd3bj scf=xqc
 -----------------------------------------------------------

 ------------------------------
 CID_14892873_JID_5247_neutraal
 ------------------------------
 Symbolic Z-matrix:
 Charge =  0 Multiplicity = 1

 SCF Done:  E(RB3LYP) =  -1008.15727867     A.U. after   15 cycles
 SCF Done:  E(RB3LYP) =  -1008.16072341     A.U. after   12 cycles
 SCF Done:  E(RB3LYP) =  -1008.16101215     A.U. after   12 cycles
 SCF Done:  E(RB3LYP) =  -1008.16113552     A.U. after   12 cycles
 SCF Done:  E(RB3LYP) =  -1008.16121906     A.U. after   10 cycles
 SCF Done:  E(RB3LYP) =  -1008.16128135     A.U. after   12 cycles
 SCF Done:  E(RB3LYP) =  -1008.16128712     A.U. after    9 cycles
 SCF Done:  E(RB3LYP) =  -1008.16128856     A.U. after    9 cycles
 SCF Done:  E(RB3LYP) =  -1008.16128876     A.U. after    8 cycles
 SCF Done:  E(RB3LYP) =  -1008.16128880     A.U. after    7 cycles
 SCF Done:  E(RB3LYP) =  -1008.16128880     A.U. after    7 cycles
 Optimization completed.
    -- Stationary point found.
 Normal termination of Gaussian 16 at Thu Dec 10 14:49:08 2020.

 --------------------------------------------------------------------
 #N Geom=AllCheck Guess=TCheck SCRF=Check GenChk RB3LYP/6-31G(d) Freq
 --------------------------------------------------------------------

 Structure from the checkpoint file:  "JID_5247.chk"
 ------------------------------
 CID_14892873_JID_5247_neutraal
 ------------------------------
 Charge =  0 Multiplicity = 1

 SCF Done:  E(RB3LYP) =  -1008.16128880     A.U. after    1 cycles

  Exact polarizability: 223.018   4.184 152.009  -1.162  -2.760  70.551
 Approx polarizability: 348.130  -6.705 257.200  -3.336  -7.737 117.209

                      1                      2                      3
                      A                      A                      A
 Frequencies --     52.9350                85.8174               119.5491
 Red. masses --      6.3148                 4.5398                 4.9770
 Frc consts  --      0.0104                 0.0197                 0.0419
 IR Inten    --      0.1335                 2.6010                 2.4846

                      4                      5                      6
                      A                      A                      A
 Frequencies --    173.5558               201.6138               211.3276
 Red. masses --      3.1768                 4.6634                 5.0760
 Frc consts  --      0.0564                 0.1117                 0.1336
 IR Inten    --      1.1734                 1.8780                 1.1325

                      7                      8                      9
                      A                      A                      A
 Frequencies --    300.4081               331.9528               337.5451
 Red. masses --      4.6537                 7.1826                 4.9887
 Frc consts  --      0.2474                 0.4663                 0.3349
 IR Inten    --      2.3598                 0.0542                 1.8142

                     10                     11                     12
                      A                      A                      A
 Frequencies --    372.9694               399.3397               440.6597
 Red. masses --      5.8990                 6.1154                 4.1353
 Frc consts  --      0.4835                 0.5746                 0.4731
 IR Inten    --      0.8272                 2.5628                 7.2007

                     13                     14                     15
                      A                      A                      A
 Frequencies --    456.7226               481.2869               516.7959
 Red. masses --      4.7260                 4.0507                 4.1192
 Frc consts  --      0.5808                 0.5528                 0.6482
 IR Inten    --      5.2949                 4.8247                 0.8620

                     16                     17                     18
                      A                      A                      A
 Frequencies --    540.2310               585.7033               614.8364
 Red. masses --      3.7201                 3.3874                 3.0792
 Frc consts  --      0.6397                 0.6846                 0.6858
 IR Inten    --      9.3562                35.9667                11.1077

                     19                     20                     21
                      A                      A                      A
 Frequencies --    637.8077               674.4110               686.2776
 Red. masses --      2.3364                 2.5944                 5.0053
 Frc consts  --      0.5600                 0.6952                 1.3889
 IR Inten    --     30.4191                55.9375                 5.0958

                     22                     23                     24
                      A                      A                      A
 Frequencies --    744.4316               750.0684               753.2043
 Red. masses --      3.5970                 4.7065                 3.3455
 Frc consts  --      1.1745                 1.5601                 1.1182
 IR Inten    --      6.1247                12.5791                26.6382

                     25                     26                     27
                      A                      A                      A
 Frequencies --    771.0540               782.8908               883.4806
 Red. masses --      3.9894                 1.7596                 1.9605
 Frc consts  --      1.3974                 0.6354                 0.9016
 IR Inten    --     15.3500                13.7931                12.4036

                     28                     29                     30
                      A                      A                      A
 Frequencies --    884.8699               902.1098               964.6963
 Red. masses --      1.6329                 1.9632                 1.3537
 Frc consts  --      0.7533                 0.9413                 0.7423
 IR Inten    --      4.8320                15.5089                 2.4419

                     31                     32                     33
                      A                      A                      A
 Frequencies --    992.2711              1008.0475              1034.3679
 Red. masses --      1.2978                 3.4015                 2.5788
 Frc consts  --      0.7528                 2.0365                 1.6256
 IR Inten    --      0.7116                 6.3599                 4.0818

                     34                     35                     36
                      A                      A                      A
 Frequencies --   1069.5782              1074.4553              1101.9477
 Red. masses --      4.2029                 2.8901                 2.4544
 Frc consts  --      2.8329                 1.9658                 1.7559
 IR Inten    --     16.0822                 9.0105                32.2600

                     37                     38                     39
                      A                      A                      A
 Frequencies --   1121.1726              1156.5866              1174.9377
 Red. masses --      2.7700                 2.2009                 2.1172
 Frc consts  --      2.0515                 1.7346                 1.7220
 IR Inten    --     13.7046                 8.1300                27.5027

                     40                     41                     42
                      A                      A                      A
 Frequencies --   1187.5179              1198.3931              1211.3888
 Red. masses --      1.3573                 1.0967                 1.2906
 Frc consts  --      1.1277                 0.9280                 1.1159
 IR Inten    --      8.2705                 2.1537                35.6437

                     43                     44                     45
                      A                      A                      A
 Frequencies --   1268.3443              1289.0893              1315.1419
 Red. masses --      1.2638                 1.7208                 1.8249
 Frc consts  --      1.1978                 1.6848                 1.8596
 IR Inten    --     23.2669                12.7283                66.5523

                     46                     47                     48
                      A                      A                      A
 Frequencies --   1329.0688              1345.6726              1351.7330
 Red. masses --      3.0562                 2.4934                 2.2880
 Frc consts  --      3.1807                 2.6602                 2.4631
 IR Inten    --    141.8791                 1.3136                 0.0911

                     49                     50                     51
                      A                      A                      A
 Frequencies --   1379.2813              1391.0279              1460.2999
 Red. masses --      2.0261                 1.8275                 1.4617
 Frc consts  --      2.2709                 2.0834                 1.8365
 IR Inten    --     37.3136                 4.9784                20.4316

                     52                     53                     54
                      A                      A                      A
 Frequencies --   1483.8322              1489.4286              1501.1789
 Red. masses --      2.1816                 1.0949                 1.1159
 Frc consts  --      2.8300                 1.4311                 1.4817
 IR Inten    --     22.0223                 2.5668                 9.9317

                     55                     56                     57
                      A                      A                      A
 Frequencies --   1518.2205              1616.6013              1644.3272
 Red. masses --      2.4675                 5.7284                 5.8435
 Frc consts  --      3.3510                 8.8205                 9.3089
 IR Inten    --     14.6342                 2.3307                 0.8093

                     58                     59                     60
                      A                      A                      A
 Frequencies --   1670.8484              1813.5012              3011.3249
 Red. masses --      7.7292                 9.5063                 1.0812
 Frc consts  --     12.7133                18.4204                 5.7766
 IR Inten    --     23.3524               530.7269                 4.0963

                     61                     62                     63
                      A                      A                      A
 Frequencies --   3043.1855              3069.1858              3128.6792
 Red. masses --      1.0692                 1.0610                 1.1037
 Frc consts  --      5.8341                 5.8887                 6.3652
 IR Inten    --      9.0373                22.8227                 3.5551

                     64                     65                     66
                      A                      A                      A
 Frequencies --   3133.4529              3190.5795              3201.5189
 Red. masses --      1.0956                 1.0858                 1.0905
 Frc consts  --      6.3377                 6.5125                 6.5853
 IR Inten    --     11.6982                 0.3047                10.4683

                     67                     68                     69
                      A                      A                      A
 Frequencies --   3213.0417              3232.3601              3611.9769
 Red. masses --      1.0958                 1.0927                 1.0782
 Frc consts  --      6.6651                 6.7267                 8.2874
 IR Inten    --     24.8427                 5.9622                42.0709

 - Thermochemistry -
 -------------------
 Temperature   298.150 Kelvin.  Pressure   1.00000 Atm.
 Atom     1 has atomic number  6 and mass  12.00000

 Molecular mass:   218.05138 amu.
 Principal axes and moments of inertia in atomic units:
                           1         2         3
     Eigenvalues --  1655.956574656.128396132.54683
           X            0.99979   0.02053   0.00025
           Y           -0.02053   0.99975   0.00842
           Z           -0.00008  -0.00842   0.99996
 This molecule is an asymmetric top.
 Rotational symmetry number  1.
 Warning -- assumption of classical behavior for rotation
           may cause significant error
 Rotational temperatures (Kelvin)      0.05230     0.01860     0.01412
 Rotational constants (GHZ):           1.08985     0.38761     0.29429
 Zero-point vibrational energy     512552.7 (Joules/Mol)
                                  122.50303 (Kcal/Mol)
 Warning -- explicit consideration of  18 degrees of freedom as
           vibrations may cause significant error
 Vibrational temperatures:     76.16   123.47   172.00   249.71   290.08
          (Kelvin)            304.05   432.22   477.61   485.65   536.62
                              574.56   634.01   657.12   692.46   743.55
                              777.27   842.70   884.61   917.66   970.33
                              987.40  1071.07  1079.18  1083.69  1109.37
                             1126.41  1271.13  1273.13  1297.93  1387.98
                             1427.66  1450.36  1488.22  1538.88  1545.90
                             1585.46  1613.12  1664.07  1690.47  1708.57
                             1724.22  1742.92  1824.86  1854.71  1892.20
                             1912.23  1936.12  1944.84  1984.48  2001.38
                             2101.05  2134.90  2142.96  2159.86  2184.38
                             2325.93  2365.82  2403.98  2609.22  4332.62
                             4378.47  4415.87  4501.47  4508.34  4590.53
                             4606.27  4622.85  4650.65  5196.83

 Zero-point correction=                           0.195221 (Hartree/Particle)
 Thermal correction to Energy=                    0.206825
 Thermal correction to Enthalpy=                  0.207769
 Thermal correction to Gibbs Free Energy=         0.157159
 Sum of electronic and zero-point Energies=          -1007.966068
 Sum of electronic and thermal Energies=             -1007.954464
 Sum of electronic and thermal Enthalpies=           -1007.953520
 Sum of electronic and thermal Free Energies=        -1008.004130

                     E (Thermal)             CV                S
                      KCal/Mol        Cal/Mol-Kelvin    Cal/Mol-Kelvin
 Total                  129.785             46.880            106.519
 Electronic               0.000              0.000              0.000
 Translational            0.889              2.981             42.042
 Rotational               0.889              2.981             32.225
 Vibrational            128.007             40.919             32.252
 Vibration     1          0.596              1.976              4.705
 Vibration     2          0.601              1.959              3.753
 Vibration     3          0.609              1.933              3.108
 Vibration     4          0.627              1.875              2.397
 Vibration     5          0.639              1.838              2.118
 Vibration     6          0.643              1.824              2.032
 Vibration     7          0.693              1.673              1.415
 Vibration     8          0.714              1.612              1.251
 Vibration     9          0.718              1.600              1.224
 Vibration    10          0.744              1.528              1.068
 Vibration    11          0.765              1.472              0.965
 Vibration    12          0.801              1.381              0.825
 Vibration    13          0.815              1.346              0.776
 Vibration    14          0.838              1.292              0.707
 Vibration    15          0.872              1.213              0.617
 Vibration    16          0.895              1.161              0.565
 Vibration    17          0.943              1.062              0.475
 Vibration    18          0.974              1.000              0.425

 Optimization completed.
    -- Stationary point found.
 Normal termination of Gaussian 16 at Thu Dec 10 14:57:24 2020.

 ----------------------------------------------------------------------
 # B3LYP/6-311++G(d,p) empiricaldispersion=gd3bj scf=xqc pop=npa geom=c
 heck
 ----------------------------------------------------------------------

 --------------------------------------
 CID_14892873_JID_5247_Energie_neutraal
 --------------------------------------
 Structure from the checkpoint file:  "JID_5247.chk"
 Charge =  0 Multiplicity = 1

 SCF Done:  E(RB3LYP) =  -1008.35006858     A.U. after   16 cycles
 Normal termination of Gaussian 16 at Thu Dec 10 15:01:27 2020.

 ----------------------------------------------------------------------
 # B3LYP/6-311++G(d,p) empiricaldispersion=gd3bj scf=xqc pop=npa geom=c
 heck
 ----------------------------------------------------------------------

 ------------------------------------
 CID_14892873_JID_5247_Energie_kation
 ------------------------------------
 Structure from the checkpoint file:  "JID_5247.chk"
 Charge =  1 Multiplicity = 2

 SCF Done:  E(UB3LYP) =  -1008.06336582     A.U. after   27 cycles
 Normal termination of Gaussian 16 at Thu Dec 10 15:11:02 2020.
 Gaussian 16:  ES64L-G16RevA.03 25-Dec-2016

 ----------------------------------------------------------------------
 # B3LYP/6-311++G(d,p) empiricaldispersion=gd3bj scf=xqc pop=npa geom=c
 heck
 ----------------------------------------------------------------------

 -----------------------------------
 CID_14892873_JID_5247_Energie_anion
 -----------------------------------
 Structure from the checkpoint file:  "JID_5247.chk"
 Charge = -1 Multiplicity = 2

                         Standard orientation:
 ---------------------------------------------------------------------
 Center     Atomic      Atomic             Coordinates (Angstroms)
 Number     Number       Type             X           Y           Z
 ---------------------------------------------------------------------
      1          6           0        2.509498    0.786660    0.588131
      2          6           0        1.159988    0.910579   -0.132132
      3          6           0        0.306399    2.012578    0.483664
      4         16           0       -1.302592    2.169574   -0.363120
      5          6           0       -1.867642    0.501212   -0.105982
      6          6           0       -3.251685    0.296750   -0.030949
      7          6           0       -3.770303   -0.981108    0.141486
      8          6           0       -2.904254   -2.072374    0.263374
      9          6           0       -1.532811   -1.875101    0.196981
     10          6           0       -0.983175   -0.594873   -0.006767
     11          6           0        0.479955   -0.447428   -0.142685
     12          7           0        1.169187   -1.527649   -0.313967
     13          7           0        2.533013   -1.398940   -0.441141
     14          6           0        3.320040   -0.369271    0.040162
     15          8           0        4.536840   -0.435982    0.033018
     16          1           0        2.348620    0.599378    1.659634
     17          1           0        3.103790    1.699324    0.500460
     18          1           0        1.351034    1.174244   -1.184282
     19          1           0        0.131055    1.819550    1.547813
     20          1           0        0.804088    2.981758    0.389181
     21          1           0       -3.915651    1.153419   -0.098140
     22          1           0       -4.845495   -1.123159    0.200207
     23          1           0       -3.300017   -3.071846    0.416470
     24          1           0       -0.849418   -2.711508    0.287320
     25          1           0        3.007290   -2.266110   -0.658832
 ---------------------------------------------------------------------

 SCF Done:  E(UB3LYP) =  -1008.36614750     A.U. after   23 cycles

 The electronic state is 2-A.
 Alpha  occ. eigenvalues --  -88.72479 -18.95965 -14.23185 -14.16985 -10.13534
 Alpha  occ. eigenvalues --  -10.08666 -10.06626 -10.06454 -10.06229 -10.04910
 Alpha  occ. eigenvalues --  -10.03879 -10.03580 -10.03564 -10.02765 -10.02328
 Alpha  occ. eigenvalues --   -7.81120  -5.77490  -5.77148  -5.76521  -0.91769
 Alpha  occ. eigenvalues --   -0.85775  -0.74016  -0.70403  -0.68932  -0.65582
 Alpha  occ. eigenvalues --   -0.60915  -0.60625  -0.55269  -0.51278  -0.49251
 Alpha  occ. eigenvalues --   -0.47054  -0.44591  -0.41783  -0.38480  -0.36861
 Alpha  occ. eigenvalues --   -0.35607  -0.32773  -0.32571  -0.31643  -0.30538
 Alpha  occ. eigenvalues --   -0.29277  -0.28012  -0.27708  -0.27554  -0.26502
 Alpha  occ. eigenvalues --   -0.25768  -0.24131  -0.22393  -0.21074  -0.20704
 Alpha  occ. eigenvalues --   -0.19519  -0.16025  -0.15137  -0.14131  -0.11453
 Alpha  occ. eigenvalues --   -0.09730  -0.07831   0.04049
 Alpha virt. eigenvalues --    0.08502   0.08851   0.10015   0.10652   0.10779
 Alpha virt. eigenvalues --    0.11310   0.11662   0.12276   0.12688   0.13120
 Alpha virt. eigenvalues --    0.14197   0.14234   0.15158   0.16019   0.16102

  Beta  occ. eigenvalues --  -88.72478 -18.95783 -14.23264 -14.16401 -10.13373
  Beta  occ. eigenvalues --  -10.08646 -10.06644 -10.06332 -10.06232 -10.04690
  Beta  occ. eigenvalues --  -10.03913 -10.03640 -10.03462 -10.02479 -10.02153
  Beta  occ. eigenvalues --   -7.81119  -5.77493  -5.77151  -5.76512  -0.91431
  Beta  occ. eigenvalues --   -0.85262  -0.73751  -0.70239  -0.68495  -0.65404
  Beta  occ. eigenvalues --   -0.60557  -0.60338  -0.55068  -0.50883  -0.49040
  Beta  occ. eigenvalues --   -0.46714  -0.44454  -0.41607  -0.38260  -0.36694
  Beta  occ. eigenvalues --   -0.35382  -0.32533  -0.32203  -0.31493  -0.30388
  Beta  occ. eigenvalues --   -0.29124  -0.27661  -0.27442  -0.27279  -0.26095
  Beta  occ. eigenvalues --   -0.25189  -0.23721  -0.22107  -0.20715  -0.19647
  Beta  occ. eigenvalues --   -0.19395  -0.15472  -0.14659  -0.13129  -0.10948
  Beta  occ. eigenvalues --   -0.09184  -0.06477
  Beta virt. eigenvalues --    0.08455   0.08812   0.09729   0.10037   0.10715
  Beta virt. eigenvalues --    0.10822   0.11304   0.11963   0.12310   0.12781
  Beta virt. eigenvalues --    0.13650   0.14178   0.14684   0.15324   0.16040

 Mulliken charges and spin densities:
               1          2
     1  C   -0.399943  -0.043400
     2  C    0.939396   0.033394
     3  C   -0.708338  -0.023387
     4  S   -0.712287  -0.004544
     5  C   -0.891052   0.068066
     6  C   -0.317874  -0.025315
     7  C   -0.241687   0.224693
     8  C   -0.769703  -0.049877
     9  C    0.241394   0.205172
    10  C    1.015741   0.026251
    11  C   -0.045043   0.117893
    12  N   -0.096445   0.282480
    13  N   -0.101444  -0.044728
    14  C   -0.090124   0.117515
    15  O   -0.407397   0.064592
    16  H    0.159357  -0.003837
    17  H    0.136628   0.040359
    18  H    0.149883   0.024611
    19  H    0.195622  -0.004307
    20  H    0.145120   0.016831
    21  H    0.115821   0.000778
    22  H    0.104345  -0.017724
    23  H    0.108910   0.004218
    24  H    0.175580  -0.010870
    25  H    0.293541   0.001136
 Sum of Mulliken charges =  -1.00000   1.00000

 Dipole moment (field-independent basis, Debye):
    X=             -1.7156    Y=              2.1325    Z=              0.9709  Tot=              2.9040
 Quadrupole moment (field-independent basis, Debye-Ang):
   XX=           -154.3451   YY=           -108.0055   ZZ=           -103.7136
   XY=              2.2879   XZ=              0.0704   YZ=              1.2409

 Summary of Natural Population Analysis:

                                       Natural Population
                Natural  -----------------------------------------------
    Atom  No    Charge         Core      Valence    Rydberg      Total
 -----------------------------------------------------------------------
      C    1   -0.22871      0.99958     2.21992    0.00921     3.22871
      C    2   -0.13716      0.99956     2.12583    0.01177     3.13716
      C    3   -0.23643      0.99957     2.22776    0.00910     3.23643
      S    4    0.10384      4.99955     2.87550    0.02111     7.89616
      C    5   -0.05894      0.99938     2.04939    0.01017     3.05894
      C    6   -0.12801      0.99952     2.11801    0.01049     3.12801
      C    7   -0.05617      0.99957     2.04679    0.00981     3.05617
      C    8   -0.13047      0.99957     2.12161    0.00930     3.13047
      C    9   -0.04823      0.99954     2.03947    0.00922     3.04823
      C   10   -0.02797      0.99943     2.01900    0.00954     3.02797
      C   11    0.13157      0.99954     1.85155    0.01734     2.86843
      N   12   -0.06926      0.99962     2.55599    0.01365     3.56926
      N   13   -0.23430      0.99967     2.72292    0.01171     3.73430
      C   14    0.35460      0.99967     1.62388    0.02184     2.64540
      O   15   -0.31489      0.99987     3.30778    0.00724     4.31489
      H   16    0.10675      0.00000     0.39213    0.00112     0.39325
      H   17    0.10499      0.00000     0.39278    0.00223     0.39501
      H   18    0.10529      0.00000     0.39247    0.00224     0.39471
      H   19    0.09919      0.00000     0.39926    0.00156     0.40081
      H   20    0.10011      0.00000     0.39870    0.00120     0.39989
      H   21    0.09389      0.00000     0.40480    0.00132     0.40611
      H   22    0.08647      0.00000     0.41200    0.00153     0.41353
      H   23    0.09066      0.00000     0.40827    0.00106     0.40934
      H   24    0.10542      0.00000     0.39332    0.00127     0.39458
      H   25    0.18779      0.00000     0.30995    0.00226     0.31221
 =======================================================================
   * Total *    0.00000     18.99366    37.80904    0.19730    57.00000

 Normal termination of Gaussian 16 at Thu Dec 10 15:19:17 2020.
