 Gaussian 16, Revision A.03,

 -----------------------------------------------------------
 # opt freq B3LYP/6-31G(d) empiricaldispersion=gd3bj scf=xqc
 -----------------------------------------------------------

 -------------------------------
 CID_117112249_JID_6472_neutraal
 -------------------------------
 Symbolic Z-matrix:
 Charge =  0 Multiplicity = 1

 SCF Done:  E(RB3LYP) =  -730.723279530     A.U. after   15 cycles
 SCF Done:  E(RB3LYP) =  -730.727575752     A.U. after   12 cycles
 SCF Done:  E(RB3LYP) =  -730.728254000     A.U. after   12 cycles
 SCF Done:  E(RB3LYP) =  -730.728910079     A.U. after   13 cycles
 SCF Done:  E(RB3LYP) =  -730.729504248     A.U. after   12 cycles
 SCF Done:  E(RB3LYP) =  -730.730276125     A.U. after   12 cycles
 SCF Done:  E(RB3LYP) =  -730.731204834     A.U. after   13 cycles
 SCF Done:  E(RB3LYP) =  -730.731280554     A.U. after   10 cycles
 SCF Done:  E(RB3LYP) =  -730.732589536     A.U. after   13 cycles
 SCF Done:  E(RB3LYP) =  -730.734685130     A.U. after   15 cycles
 SCF Done:  E(RB3LYP) =  -730.736330616     A.U. after   10 cycles
 SCF Done:  E(RB3LYP) =  -730.736334611     A.U. after    9 cycles
 SCF Done:  E(RB3LYP) =  -730.736337085     A.U. after    9 cycles
 SCF Done:  E(RB3LYP) =  -730.736337194     A.U. after    8 cycles
 SCF Done:  E(RB3LYP) =  -730.736337194     A.U. after    7 cycles
 Optimization completed.
    -- Stationary point found.
 Normal termination of Gaussian 16 at Thu Dec 10 23:10:48 2020.

 --------------------------------------------------------------------
 #N Geom=AllCheck Guess=TCheck SCRF=Check GenChk RB3LYP/6-31G(d) Freq
 --------------------------------------------------------------------

 Structure from the checkpoint file:  "JID_6472.chk"
 -------------------------------
 CID_117112249_JID_6472_neutraal
 -------------------------------
 Charge =  0 Multiplicity = 1

 SCF Done:  E(RB3LYP) =  -730.736337194     A.U. after    1 cycles

  Exact polarizability: 177.058   0.173 134.601  -6.723  -4.920 105.535
 Approx polarizability: 248.424   5.356 221.795 -12.166 -13.409 150.675

                      1                      2                      3
                      A                      A                      A
 Frequencies --     19.8927                30.4729                52.1462
 Red. masses --      4.8903                 3.5738                10.4649
 Frc consts  --      0.0011                 0.0020                 0.0168
 IR Inten    --      0.0114                 1.0021                 2.2709

                      4                      5                      6
                      A                      A                      A
 Frequencies --     90.3658               108.9394               131.7968
 Red. masses --      5.2986                 4.3654                 3.2230
 Frc consts  --      0.0255                 0.0305                 0.0330
 IR Inten    --      0.1824                 0.9453                 0.7513

                      7                      8                      9
                      A                      A                      A
 Frequencies --    218.9964               234.8553               249.4971
 Red. masses --      4.0067                 2.8452                 1.0561
 Frc consts  --      0.1132                 0.0925                 0.0387
 IR Inten    --      0.1488                 1.0345                 2.5431

                     10                     11                     12
                      A                      A                      A
 Frequencies --    273.2993               279.9997               282.3088
 Red. masses --      2.2016                 1.5599                 1.1246
 Frc consts  --      0.0969                 0.0721                 0.0528
 IR Inten    --      0.8936                32.6337                56.5524

                     13                     14                     15
                      A                      A                      A
 Frequencies --    287.1456               307.2815               317.6859
 Red. masses --      1.7785                 3.3486                 3.2753
 Frc consts  --      0.0864                 0.1863                 0.1948
 IR Inten    --     18.6746                 0.2243                 0.0360

                     16                     17                     18
                      A                      A                      A
 Frequencies --    361.3506               370.3133               437.8063
 Red. masses --      3.0028                 6.6417                 3.5742
 Frc consts  --      0.2310                 0.5366                 0.4036
 IR Inten    --      2.4225                 2.6564                 9.9845

                     19                     20                     21
                      A                      A                      A
 Frequencies --    446.8836               453.4375               506.1857
 Red. masses --      4.3696                 4.5023                 3.8242
 Frc consts  --      0.5141                 0.5454                 0.5773
 IR Inten    --      7.8004                 5.6492                27.5346

                     22                     23                     24
                      A                      A                      A
 Frequencies --    507.5651               564.3069               628.4034
 Red. masses --      3.3613                 3.0471                 4.6742
 Frc consts  --      0.5102                 0.5717                 1.0875
 IR Inten    --      1.5230                 8.2001                22.9192

                     25                     26                     27
                      A                      A                      A
 Frequencies --    640.7714               652.7184               695.6823
 Red. masses --      1.2800                 4.5274                 5.2617
 Frc consts  --      0.3096                 1.1365                 1.5004
 IR Inten    --     71.8455                 6.7431                 5.6792

                     28                     29                     30
                      A                      A                      A
 Frequencies --    723.7081               766.8234               776.5266
 Red. masses --      1.9874                 4.1432                 4.4291
 Frc consts  --      0.6133                 1.4354                 1.5735
 IR Inten    --     20.3093                 6.5987                42.3219

                     31                     32                     33
                      A                      A                      A
 Frequencies --    808.6340               813.8073               864.5720
 Red. masses --      1.1180                 1.6072                 2.2531
 Frc consts  --      0.4307                 0.6271                 0.9923
 IR Inten    --      2.4056                 5.2399                13.4151

                     34                     35                     36
                      A                      A                      A
 Frequencies --    904.6126               918.3636               926.9653
 Red. masses --      3.6075                 1.9645                 1.8317
 Frc consts  --      1.7393                 0.9762                 0.9273
 IR Inten    --      9.1248                 7.4060                 3.6374

                     37                     38                     39
                      A                      A                      A
 Frequencies --    931.9842               941.2725               973.3118
 Red. masses --      1.6520                 1.4647                 1.2932
 Frc consts  --      0.8455                 0.7646                 0.7218
 IR Inten    --      6.4558                 6.1083                 0.0882

                     40                     41                     42
                      A                      A                      A
 Frequencies --    981.1366               989.0890               995.4668
 Red. masses --      2.3754                 1.5199                 1.9158
 Frc consts  --      1.3472                 0.8760                 1.1185
 IR Inten    --     11.6138                 4.5921                 6.3552

                     43                     44                     45
                      A                      A                      A
 Frequencies --   1024.3221              1035.9724              1077.0406
 Red. masses --      6.1278                 1.3042                 1.2771
 Frc consts  --      3.7882                 0.8247                 0.8729
 IR Inten    --      0.0038                 0.4581                10.1957

                     46                     47                     48
                      A                      A                      A
 Frequencies --   1103.7883              1110.1838              1129.6578
 Red. masses --      1.3651                 1.8486                 1.6842
 Frc consts  --      0.9799                 1.3424                 1.2663
 IR Inten    --      4.3328                36.0275                 3.2210

                     49                     50                     51
                      A                      A                      A
 Frequencies --   1149.0850              1176.9858              1201.9951
 Red. masses --      1.5726                 2.8341                 1.9221
 Frc consts  --      1.2234                 2.3132                 1.6362
 IR Inten    --     19.9899               242.7847                69.0500

                     52                     53                     54
                      A                      A                      A
 Frequencies --   1208.5616              1209.5716              1218.4611
 Red. masses --      1.1300                 3.2859                 1.2970
 Frc consts  --      0.9724                 2.8325                 1.1345
 IR Inten    --      0.4135                18.8657                 1.3537

                     55                     56                     57
                      A                      A                      A
 Frequencies --   1222.7960              1274.9138              1329.1180
 Red. masses --      2.4865                 2.0943                 1.8432
 Frc consts  --      2.1905                 2.0056                 1.9184
 IR Inten    --     22.5735                42.8931                 4.7168

                     58                     59                     60
                      A                      A                      A
 Frequencies --   1361.4297              1365.1233              1395.9418
 Red. masses --      3.0988                 2.8030                 1.9824
 Frc consts  --      3.3840                 3.0776                 2.2761
 IR Inten    --     32.0363                 6.3861                34.9820

                     61                     62                     63
                      A                      A                      A
 Frequencies --   1410.8483              1423.9317              1443.7375
 Red. masses --      3.0825                 1.2456                 1.2356
 Frc consts  --      3.6150                 1.4881                 1.5175
 IR Inten    --     87.0837                 6.2746                 3.9682

                     64                     65                     66
                      A                      A                      A
 Frequencies --   1478.4619              1481.8604              1509.8162
 Red. masses --      1.0893                 3.2477                 1.0481
 Frc consts  --      1.4029                 4.2019                 1.4077
 IR Inten    --      4.0396                16.3909                 0.0024

                     67                     68                     69
                      A                      A                      A
 Frequencies --   1514.1311              1514.7546              1527.3994
 Red. masses --      1.3247                 1.0518                 1.1061
 Frc consts  --      1.7893                 1.4219                 1.5204
 IR Inten    --      7.2027                 1.3182                 6.6902

                     70                     71                     72
                      A                      A                      A
 Frequencies --   1532.7516              1543.6503              1649.0099
 Red. masses --      1.3472                 1.6514                 5.5417
 Frc consts  --      1.8647                 2.3185                 8.8785
 IR Inten    --      5.2909                 9.2808                 3.8725

                     73                     74                     75
                      A                      A                      A
 Frequencies --   1667.7292              1820.5833              3040.4991
 Red. masses --      5.9580                 9.3226                 1.0414
 Frc consts  --      9.7633                18.2057                 5.6725
 IR Inten    --     17.1522               282.3551                12.4640

                     76                     77                     78
                      A                      A                      A
 Frequencies --   3046.6672              3111.2385              3117.5146
 Red. masses --      1.0409                 1.0949                 1.0950
 Frc consts  --      5.6927                 6.2446                 6.2704
 IR Inten    --     55.2624                 5.1052                59.1382

                     79                     80                     81
                      A                      A                      A
 Frequencies --   3142.7888              3144.6790              3162.8004
 Red. masses --      1.1032                 1.1031                 1.0516
 Frc consts  --      6.4201                 6.4269                 6.1978
 IR Inten    --     12.5334                19.7273                 7.6764

                     82                     83                     84
                      A                      A                      A
 Frequencies --   3165.5532              3180.2179              3191.0070
 Red. masses --      1.0559                 1.0854                 1.0902
 Frc consts  --      6.2343                 6.4678                 6.5407
 IR Inten    --      5.4770                 2.1795                25.5231

                     85                     86                     87
                      A                      A                      A
 Frequencies --   3205.2776              3239.0840              3248.6213
 Red. masses --      1.0965                 1.0899                 1.1205
 Frc consts  --      6.6371                 6.7369                 6.9673
 IR Inten    --     25.7820                 1.5357                 0.1146

                     88                     89                     90
                      A                      A                      A
 Frequencies --   3260.7076              3687.2540              3749.6627
 Red. masses --      1.1178                 1.0638                 1.0661
 Frc consts  --      7.0020                 8.5218                 8.8312
 IR Inten    --      6.9681                54.5416                 9.0912

 - Thermochemistry -
 -------------------
 Temperature   298.150 Kelvin.  Pressure   1.00000 Atm.
 Atom     1 has atomic number  6 and mass  12.00000

 Molecular mass:   220.10994 amu.
 Principal axes and moments of inertia in atomic units:
                           1         2         3
     Eigenvalues --  1855.489575933.413516219.10661
           X            0.99991  -0.00690  -0.01131
           Y            0.00675   0.99988  -0.01379
           Z            0.01140   0.01372   0.99984
 This molecule is an asymmetric top.
 Rotational symmetry number  1.
 Warning -- assumption of classical behavior for rotation
           may cause significant error
 Rotational temperatures (Kelvin)      0.04668     0.01460     0.01393
 Rotational constants (GHZ):           0.97265     0.30417     0.29019
 Zero-point vibrational energy     701451.7 (Joules/Mol)
                                  167.65098 (Kcal/Mol)
 Warning -- explicit consideration of  23 degrees of freedom as
           vibrations may cause significant error
 Vibrational temperatures:     28.62    43.84    75.03   130.02   156.74
          (Kelvin)            189.63   315.09   337.90   358.97   393.22
                              402.86   406.18   413.14   442.11   457.08
                              519.90   532.80   629.91   642.97   652.40
                              728.29   730.27   811.91   904.13   921.93
                              939.12  1000.93  1041.25  1103.29  1117.25
                             1163.44  1170.89  1243.93  1301.54  1321.32
                             1333.70  1340.92  1354.28  1400.38  1411.64
                             1423.08  1432.25  1473.77  1490.53  1549.62
                             1588.11  1597.31  1625.33  1653.28  1693.42
                             1729.40  1738.85  1740.30  1753.09  1759.33
                             1834.32  1912.30  1958.79  1964.11  2008.45
                             2029.90  2048.72  2077.22  2127.18  2132.07
                             2172.29  2178.50  2179.39  2197.59  2205.29
                             2220.97  2372.56  2399.49  2619.41  4374.60
                             4383.47  4476.38  4485.41  4521.77  4524.49
                             4550.56  4554.53  4575.62  4591.15  4611.68
                             4660.32  4674.04  4691.43  5305.14  5394.93

 Zero-point correction=                           0.267169 (Hartree/Particle)
 Thermal correction to Energy=                    0.282796
 Thermal correction to Enthalpy=                  0.283740
 Thermal correction to Gibbs Free Energy=         0.223281
 Sum of electronic and zero-point Energies=           -730.469168
 Sum of electronic and thermal Energies=              -730.453541
 Sum of electronic and thermal Enthalpies=            -730.452597
 Sum of electronic and thermal Free Energies=         -730.513056

                     E (Thermal)             CV                S
                      KCal/Mol        Cal/Mol-Kelvin    Cal/Mol-Kelvin
 Total                  177.457             60.448            127.247
 Electronic               0.000              0.000              0.000
 Translational            0.889              2.981             42.070
 Rotational               0.889              2.981             32.593
 Vibrational            175.680             54.486             52.584
 Vibration     1          0.593              1.986              6.645
 Vibration     2          0.594              1.984              5.798
 Vibration     3          0.596              1.977              4.734
 Vibration     4          0.602              1.956              3.652
 Vibration     5          0.606              1.942              3.288
 Vibration     6          0.612              1.922              2.920
 Vibration     7          0.647              1.812              1.967
 Vibration     8          0.655              1.787              1.842
 Vibration     9          0.662              1.764              1.734
 Vibration    10          0.676              1.723              1.575
 Vibration    11          0.680              1.711              1.534
 Vibration    12          0.681              1.706              1.520
 Vibration    13          0.684              1.698              1.491
 Vibration    14          0.697              1.660              1.377
 Vibration    15          0.704              1.640              1.322
 Vibration    16          0.736              1.552              1.116
 Vibration    17          0.742              1.533              1.078
 Vibration    18          0.798              1.388              0.834
 Vibration    19          0.806              1.368              0.805
 Vibration    20          0.812              1.353              0.785
 Vibration    21          0.861              1.236              0.643
 Vibration    22          0.863              1.233              0.639
 Vibration    23          0.920              1.108              0.515

                           ! Non-Optimized Parameters !
 Normal termination of Gaussian 16 at Thu Dec 10 23:21:17 2020.

 ----------------------------------------------------------------------
 # B3LYP/6-311++G(d,p) empiricaldispersion=gd3bj scf=xqc pop=npa geom=c
 heck
 ----------------------------------------------------------------------

 ---------------------------------------
 CID_117112249_JID_6472_Energie_neutraal
 ---------------------------------------
 Structure from the checkpoint file:  "JID_6472.chk"
 Charge =  0 Multiplicity = 1

 SCF Done:  E(RB3LYP) =  -730.955019398     A.U. after   14 cycles
 Normal termination of Gaussian 16 at Thu Dec 10 23:25:11 2020.

 ----------------------------------------------------------------------
 # B3LYP/6-311++G(d,p) empiricaldispersion=gd3bj scf=xqc pop=npa geom=c
 heck
 ----------------------------------------------------------------------

 -------------------------------------
 CID_117112249_JID_6472_Energie_kation
 -------------------------------------
 Structure from the checkpoint file:  "JID_6472.chk"
 Charge =  1 Multiplicity = 2

 SCF Done:  E(UB3LYP) =  -730.647230610     A.U. after   26 cycles
 Normal termination of Gaussian 16 at Thu Dec 10 23:34:58 2020.
 Gaussian 16:  ES64L-G16RevA.03 25-Dec-2016

 ----------------------------------------------------------------------
 # B3LYP/6-311++G(d,p) empiricaldispersion=gd3bj scf=xqc pop=npa geom=c
 heck
 ----------------------------------------------------------------------

 ------------------------------------
 CID_117112249_JID_6472_Energie_anion
 ------------------------------------
 Structure from the checkpoint file:  "JID_6472.chk"
 Charge = -1 Multiplicity = 2

                         Standard orientation:
 ---------------------------------------------------------------------
 Center     Atomic      Atomic             Coordinates (Angstroms)
 Number     Number       Type             X           Y           Z
 ---------------------------------------------------------------------
      1          6           0        3.542957   -0.587141   -1.368384
      2          6           0        2.870982   -0.600305    0.014443
      3          6           0        3.848130   -0.143305    1.109994
      4          6           0        1.625575    0.280248    0.004283
      5          6           0        1.737674    1.657887   -0.223787
      6          6           0        0.604825    2.468829   -0.238449
      7          6           0       -0.656204    1.914543   -0.024574
      8          6           0       -0.786674    0.542680    0.204058
      9          6           0        0.356598   -0.262912    0.214945
     10          6           0       -2.140332   -0.067336    0.418860
     11          6           0       -2.388981   -0.913695    1.663296
     12          6           0       -3.013706    0.436483    1.565099
     13          6           0       -2.916253   -0.514136   -0.777681
     14          8           0       -4.021042   -1.020095   -0.739529
     15          8           0       -2.262483   -0.299650   -1.943634
     16          8           0        2.434916   -1.934665    0.309759
     17          1           0        3.862491    0.420259   -1.652608
     18          1           0        2.843431   -0.955970   -2.123820
     19          1           0        4.431508   -1.232278   -1.366259
     20          1           0        4.190608    0.883283    0.947561
     21          1           0        3.360944   -0.197231    2.087694
     22          1           0        4.733358   -0.792496    1.123044
     23          1           0        2.713862    2.105372   -0.389383
     24          1           0        0.706909    3.536054   -0.414921
     25          1           0       -1.542359    2.543233   -0.034509
     26          1           0        0.261749   -1.327365    0.390374
     27          1           0       -3.030703   -1.779250    1.539114
     28          1           0       -1.537429   -1.045176    2.323134
     29          1           0       -2.596537    1.244724    2.157452
     30          1           0       -4.080183    0.489159    1.374076
     31          1           0       -2.860210   -0.630451   -2.640092
     32          1           0        3.223900   -2.497637    0.293746
 ---------------------------------------------------------------------

 SCF Done:  E(UB3LYP) =  -730.943139679     A.U. after   33 cycles
 SCF Done:  E(UB3LYP) =  -730.943139679     a.u. after    1 cycles

 The electronic state is 2-A.
 Alpha  occ. eigenvalues --  -19.08417 -19.02792 -19.01956 -10.22305 -10.13671
 Alpha  occ. eigenvalues --  -10.12149 -10.10408 -10.10286 -10.09112 -10.08426
 Alpha  occ. eigenvalues --  -10.08020 -10.07900 -10.07695 -10.07255 -10.05940
 Alpha  occ. eigenvalues --  -10.05902  -1.02541  -0.93487  -0.92639  -0.80344
 Alpha  occ. eigenvalues --   -0.76046  -0.69410  -0.65842  -0.63850  -0.60133
 Alpha  occ. eigenvalues --   -0.59244  -0.54021  -0.53054  -0.51440  -0.49113
 Alpha  occ. eigenvalues --   -0.47217  -0.43294  -0.41777  -0.40215  -0.39573
 Alpha  occ. eigenvalues --   -0.38285  -0.36887  -0.36355  -0.35314  -0.34522
 Alpha  occ. eigenvalues --   -0.34017  -0.33313  -0.31249  -0.30715  -0.29727
 Alpha  occ. eigenvalues --   -0.29523  -0.28479  -0.27131  -0.26517  -0.25761
 Alpha  occ. eigenvalues --   -0.24850  -0.24118  -0.23813  -0.22558  -0.21165
 Alpha  occ. eigenvalues --   -0.20561  -0.18057  -0.15637  -0.14888   0.04215
 Alpha virt. eigenvalues --    0.05890   0.06632   0.07246   0.07423   0.07631
 Alpha virt. eigenvalues --    0.08355   0.08570   0.08952   0.09156   0.09660
 Alpha virt. eigenvalues --    0.10582   0.10886   0.11536   0.11897   0.12521

  Beta  occ. eigenvalues --  -19.08387 -19.02784 -19.01919 -10.22304 -10.13668
  Beta  occ. eigenvalues --  -10.12145 -10.10403 -10.10282 -10.09109 -10.08423
  Beta  occ. eigenvalues --  -10.08009 -10.07892 -10.07676 -10.07248 -10.05898
  Beta  occ. eigenvalues --  -10.05862  -1.02501  -0.93456  -0.92562  -0.80335
  Beta  occ. eigenvalues --   -0.76026  -0.69378  -0.65816  -0.63816  -0.60095
  Beta  occ. eigenvalues --   -0.59168  -0.53989  -0.53018  -0.51403  -0.49067
  Beta  occ. eigenvalues --   -0.47174  -0.43264  -0.41749  -0.40191  -0.39518
  Beta  occ. eigenvalues --   -0.38261  -0.36861  -0.36329  -0.35289  -0.34496
  Beta  occ. eigenvalues --   -0.33952  -0.33286  -0.31208  -0.30687  -0.29684
  Beta  occ. eigenvalues --   -0.29514  -0.28438  -0.27104  -0.26483  -0.25726
  Beta  occ. eigenvalues --   -0.24823  -0.24094  -0.23797  -0.22523  -0.21154
  Beta  occ. eigenvalues --   -0.20533  -0.18020  -0.15621  -0.14866
  Beta virt. eigenvalues --    0.06309   0.06993   0.07243   0.07454   0.07509
  Beta virt. eigenvalues --    0.07877   0.08551   0.09019   0.09287   0.09500
  Beta virt. eigenvalues --    0.09833   0.11141   0.11235   0.11709   0.11973

 Mulliken charges and spin densities:
               1          2
     1  C    0.896224  -1.498396
     2  C   -1.879611   2.124785
     3  C    1.048988  -1.642235
     4  C    0.502470  -0.240354
     5  C   -0.062461  -0.208038
     6  C    0.469787  -0.990631
     7  C    0.305462  -0.742940
     8  C    1.342815  -0.286692
     9  C   -0.594893  -0.160804
    10  C   -0.272161   0.303511
    11  C   -0.256009  -0.034610
    12  C   -0.207658  -0.111714
    13  C   -0.257783   0.083060
    14  O   -0.272871   0.002167
    15  O   -0.169568   0.012069
    16  O   -0.144039  -0.005027
    17  H   -0.352934   0.513546
    18  H    0.109614   0.062314
    19  H   -0.481414   0.624099
    20  H   -0.458807   0.616687
    21  H    0.102724   0.057761
    22  H   -0.540000   0.687239
    23  H    0.140590   0.001829
    24  H   -0.555103   0.728528
    25  H    0.058752   0.115845
    26  H    0.305494  -0.023923
    27  H    0.162137   0.026746
    28  H    0.116085   0.034477
    29  H    0.106878   0.040080
    30  H    0.151266   0.039402
    31  H   -0.097838   0.409768
    32  H   -0.216135   0.461451
 Sum of Mulliken charges =  -1.00000   1.00000

 Dipole moment (field-independent basis, Debye):
    X=             -7.6243    Y=              1.2657    Z=              2.5619  Tot=              8.1422
 Quadrupole moment (field-independent basis, Debye-Ang):
   XX=           -192.5349   YY=           -138.5503   ZZ=           -126.0119
   XY=              3.9470   XZ=             -6.3410   YZ=              0.5696

 Summary of Natural Population Analysis:

                                       Natural Population
                Natural  -----------------------------------------------
    Atom  No    Charge         Core      Valence    Rydberg      Total
 -----------------------------------------------------------------------
      C    1   -0.29085      0.99962     2.28465    0.00658     3.29085
      C    2    0.12072      0.99951     1.86428    0.01549     2.87928
      C    3   -0.29050      0.99962     2.28418    0.00671     3.29050
      C    4   -0.01306      0.99946     2.00029    0.01331     3.01306
      C    5   -0.09769      0.99951     2.08896    0.00921     3.09769
      C    6   -0.09664      0.99957     2.08709    0.00999     3.09664
      C    7   -0.09715      0.99950     2.08816    0.00948     3.09715
      C    8   -0.01982      0.99949     2.00804    0.01229     3.01982
      C    9   -0.08922      0.99945     2.08128    0.00849     3.08922
      C   10   -0.09455      0.99947     2.08148    0.01360     3.09455
      C   11   -0.17921      0.99961     2.17167    0.00794     3.17921
      C   12   -0.18031      0.99961     2.17289    0.00780     3.18031
      C   13    0.41126      0.99962     1.56298    0.02615     2.58874
      O   14   -0.32074      0.99987     3.31503    0.00583     4.32074
      O   15   -0.33280      0.99988     3.32676    0.00616     4.33280
      O   16   -0.37758      0.99989     3.37109    0.00660     4.37758
      H   17    0.10257      0.00000     0.39600    0.00142     0.39743
      H   18    0.10504      0.00000     0.39374    0.00122     0.39496
      H   19    0.10107      0.00000     0.39692    0.00202     0.39893
      H   20    0.10266      0.00000     0.39582    0.00153     0.39734
      H   21    0.10312      0.00000     0.39575    0.00113     0.39688
      H   22    0.10160      0.00000     0.39628    0.00211     0.39840
      H   23    0.10387      0.00000     0.39466    0.00147     0.39613
      H   24    0.10111      0.00000     0.39772    0.00117     0.39889
      H   25    0.10004      0.00000     0.39895    0.00101     0.39996
      H   26    0.11526      0.00000     0.38316    0.00158     0.38474
      H   27    0.11095      0.00000     0.38811    0.00094     0.38905
      H   28    0.10911      0.00000     0.39003    0.00086     0.39089
      H   29    0.10701      0.00000     0.39213    0.00086     0.39299
      H   30    0.11041      0.00000     0.38862    0.00097     0.38959
      H   31    0.24084      0.00000     0.25309    0.00607     0.25916
      H   32    0.23346      0.00000     0.26136    0.00517     0.26654
 =======================================================================
   * Total *   -0.00000     15.99367    42.81119    0.19515    59.00000

 Normal termination of Gaussian 16 at Thu Dec 10 23:47:24 2020.
