 Gaussian 16, Revision A.03,

 -----------------------------------------------------------
 # opt freq B3LYP/6-31G(d) empiricaldispersion=gd3bj scf=xqc
 -----------------------------------------------------------

 ------------------------------
 CID_63976937_JID_6702_neutraal
 ------------------------------
 Symbolic Z-matrix:
 Charge =  0 Multiplicity = 1

 SCF Done:  E(RB3LYP) =  -693.413716498     A.U. after   14 cycles
 SCF Done:  E(RB3LYP) =  -693.417027283     A.U. after   12 cycles
 SCF Done:  E(RB3LYP) =  -693.417811164     A.U. after   12 cycles
 SCF Done:  E(RB3LYP) =  -693.418572479     A.U. after   12 cycles
 SCF Done:  E(RB3LYP) =  -693.418857669     A.U. after   11 cycles
 SCF Done:  E(RB3LYP) =  -693.418991780     A.U. after   11 cycles
 SCF Done:  E(RB3LYP) =  -693.419046588     A.U. after   11 cycles
 SCF Done:  E(RB3LYP) =  -693.419083152     A.U. after    9 cycles
 SCF Done:  E(RB3LYP) =  -693.419103331     A.U. after   10 cycles
 SCF Done:  E(RB3LYP) =  -693.419106990     A.U. after    9 cycles
 SCF Done:  E(RB3LYP) =  -693.419109122     A.U. after    8 cycles
 SCF Done:  E(RB3LYP) =  -693.419109994     A.U. after    7 cycles
 SCF Done:  E(RB3LYP) =  -693.419110124     A.U. after    7 cycles
 SCF Done:  E(RB3LYP) =  -693.419110187     A.U. after    6 cycles
 Optimization completed.
    -- Stationary point found.
 Normal termination of Gaussian 16 at Fri Dec 11 00:17:23 2020.

 --------------------------------------------------------------------
 #N Geom=AllCheck Guess=TCheck SCRF=Check GenChk RB3LYP/6-31G(d) Freq
 --------------------------------------------------------------------

 Structure from the checkpoint file:  "JID_6702.chk"
 ------------------------------
 CID_63976937_JID_6702_neutraal
 ------------------------------
 Charge =  0 Multiplicity = 1

 SCF Done:  E(RB3LYP) =  -693.419110187     A.U. after    1 cycles

  Exact polarizability: 170.427   1.542 145.732  -1.191   7.649 119.432
 Approx polarizability: 229.549  -0.383 226.581  -2.212  21.407 174.700

                      1                      2                      3
                      A                      A                      A
 Frequencies --     33.4619                62.4411                68.9726
 Red. masses --      3.8680                 3.1875                 3.2847
 Frc consts  --      0.0026                 0.0073                 0.0092
 IR Inten    --      0.1827                 0.1161                 0.0809

                      4                      5                      6
                      A                      A                      A
 Frequencies --     73.2001               128.3606               163.1437
 Red. masses --      3.7379                 3.2655                 1.6311
 Frc consts  --      0.0118                 0.0317                 0.0256
 IR Inten    --      0.4104                 0.2127                 0.4457

                      7                      8                      9
                      A                      A                      A
 Frequencies --    211.0618               220.9764               229.5130
 Red. masses --      2.7134                 1.8418                 2.0951
 Frc consts  --      0.0712                 0.0530                 0.0650
 IR Inten    --      0.3694                 0.3073                 0.1747

                     10                     11                     12
                      A                      A                      A
 Frequencies --    245.8040               268.0555               273.4796
 Red. masses --      1.4490                 2.1411                 1.8880
 Frc consts  --      0.0516                 0.0906                 0.0832
 IR Inten    --      1.8636                 0.0889                17.7500

                     13                     14                     15
                      A                      A                      A
 Frequencies --    282.4955               300.8334               304.8214
 Red. masses --      1.7157                 1.5834                 2.1645
 Frc consts  --      0.0807                 0.0844                 0.1185
 IR Inten    --     20.0576                53.5115                 4.4006

                     16                     17                     18
                      A                      A                      A
 Frequencies --    336.4245               355.8000               415.6031
 Red. masses --      3.2517                 4.1381                 2.4725
 Frc consts  --      0.2168                 0.3086                 0.2516
 IR Inten    --     10.6302                 2.5200                 2.1537

                     19                     20                     21
                      A                      A                      A
 Frequencies --    427.9587               441.2756               481.2034
 Red. masses --      1.7608                 3.6552                 3.2094
 Frc consts  --      0.1900                 0.4194                 0.4379
 IR Inten    --      2.4559                 1.7157                 2.1840

                     22                     23                     24
                      A                      A                      A
 Frequencies --    498.4495               510.3230               591.9846
 Red. masses --      3.3901                 2.7206                 3.0405
 Frc consts  --      0.4963                 0.4175                 0.6278
 IR Inten    --      4.0946                 9.5970                 5.6138

                     25                     26                     27
                      A                      A                      A
 Frequencies --    626.8065               669.3665               694.7557
 Red. masses --      2.9279                 6.0725                 2.6095
 Frc consts  --      0.6777                 1.6031                 0.7421
 IR Inten    --      5.2921                 2.3961                 1.3103

                     28                     29                     30
                      A                      A                      A
 Frequencies --    710.4812               773.4469               783.7991
 Red. masses --      3.4900                 1.4494                 1.9448
 Frc consts  --      1.0380                 0.5109                 0.7040
 IR Inten    --      0.4354                22.3709                 5.7731

                     31                     32                     33
                      A                      A                      A
 Frequencies --    791.9489               816.7377               869.0455
 Red. masses --      1.6337                 1.4739                 1.3058
 Frc consts  --      0.6037                 0.5793                 0.5811
 IR Inten    --      0.9860                14.7847                 3.3344

                     34                     35                     36
                      A                      A                      A
 Frequencies --    873.5882               887.2793               914.1044
 Red. masses --      2.3540                 2.1301                 1.4092
 Frc consts  --      1.0585                 0.9880                 0.6938
 IR Inten    --      6.6940                 5.9853                 2.2711

                     37                     38                     39
                      A                      A                      A
 Frequencies --    917.3919               953.5376               959.5987
 Red. masses --      1.9279                 3.9978                 1.5265
 Frc consts  --      0.9560                 2.1416                 0.8282
 IR Inten    --      3.2175                10.1267                 1.3920

                     40                     41                     42
                      A                      A                      A
 Frequencies --    966.5458               987.9656              1029.2550
 Red. masses --      1.9516                 1.4024                 1.7351
 Frc consts  --      1.0742                 0.8065                 1.0830
 IR Inten    --      2.8452                16.7435                 9.3367

                     43                     44                     45
                      A                      A                      A
 Frequencies --   1039.2617              1049.6352              1067.0926
 Red. masses --      2.7760                 1.9459                 1.9478
 Frc consts  --      1.7665                 1.2631                 1.3067
 IR Inten    --      3.6247                14.6791                25.3521

                     46                     47                     48
                      A                      A                      A
 Frequencies --   1081.8434              1102.1344              1115.5402
 Red. masses --      2.2525                 1.5742                 2.0205
 Frc consts  --      1.5532                 1.1267                 1.4814
 IR Inten    --     11.9530                12.8807                 7.7067

                     49                     50                     51
                      A                      A                      A
 Frequencies --   1124.4508              1126.7222              1160.1006
 Red. masses --      3.6618                 2.1456                 1.8975
 Frc consts  --      2.7279                 1.6048                 1.5046
 IR Inten    --     37.5672                 5.2030                16.9896

                     52                     53                     54
                      A                      A                      A
 Frequencies --   1161.8774              1185.1180              1206.8706
 Red. masses --      1.4548                 2.0096                 2.2197
 Frc consts  --      1.1571                 1.6630                 1.9049
 IR Inten    --     10.2061                10.2471                 1.5663

                     55                     56                     57
                      A                      A                      A
 Frequencies --   1231.6584              1254.1094              1263.8026
 Red. masses --      1.8534                 1.8145                 1.4241
 Frc consts  --      1.6566                 1.6814                 1.3402
 IR Inten    --     19.9269                 2.1797                20.9714

                     58                     59                     60
                      A                      A                      A
 Frequencies --   1284.2054              1302.2813              1303.3239
 Red. masses --      1.4129                 1.2760                 1.2742
 Frc consts  --      1.3729                 1.2750                 1.2753
 IR Inten    --      1.9762                 2.2729                 2.5815

                     61                     62                     63
                      A                      A                      A
 Frequencies --   1337.0097              1345.8301              1356.6303
 Red. masses --      1.6810                 1.3897                 1.3468
 Frc consts  --      1.7705                 1.4830                 1.4604
 IR Inten    --     40.5472                 1.6786                 1.6824

                     64                     65                     66
                      A                      A                      A
 Frequencies --   1373.1923              1375.0689              1388.8527
 Red. masses --      1.7382                 1.7396                 1.8377
 Frc consts  --      1.9311                 1.9379                 2.0885
 IR Inten    --      3.3747                 4.5477                12.3274

                     67                     68                     69
                      A                      A                      A
 Frequencies --   1398.8753              1402.3249              1407.0653
 Red. masses --      1.6358                 1.4333                 1.5443
 Frc consts  --      1.8859                 1.6607                 1.8015
 IR Inten    --      0.5165                 1.0992                34.8431

                     70                     71                     72
                      A                      A                      A
 Frequencies --   1419.8468              1432.0281              1437.1245
 Red. masses --      1.6402                 1.5842                 2.2454
 Frc consts  --      1.9482                 1.9141                 2.7323
 IR Inten    --      9.1602                25.0719                14.6972

                     73                     74                     75
                      A                      A                      A
 Frequencies --   1441.6181              1449.1905              1501.9460
 Red. masses --      1.2788                 1.2892                 1.0856
 Frc consts  --      1.5659                 1.5953                 1.4429
 IR Inten    --      4.4939                 5.8765                 2.4433

                     76                     77                     78
                      A                      A                      A
 Frequencies --   1504.3125              1512.9164              1517.6759
 Red. masses --      1.3059                 1.2909                 1.0971
 Frc consts  --      1.7412                 1.7409                 1.4888
 IR Inten    --      4.0540                10.5269                 1.9046

                     79                     80                     81
                      A                      A                      A
 Frequencies --   1522.0749              1524.7840              1527.7257
 Red. masses --      1.4070                 1.3388                 1.0528
 Frc consts  --      1.9205                 1.8339                 1.4477
 IR Inten    --      2.4803                 3.7433                 5.8031

                     82                     83                     84
                      A                      A                      A
 Frequencies --   1529.8914              1530.8250              1535.2085
 Red. masses --      1.0489                 1.0602                 1.0967
 Frc consts  --      1.4465                 1.4638                 1.5229
 IR Inten    --      9.6323                 3.6230                 2.7565

                     85                     86                     87
                      A                      A                      A
 Frequencies --   1537.2599              1580.7401              2992.1251
 Red. masses --      1.0862                 4.5823                 1.0822
 Frc consts  --      1.5124                 6.7461                 5.7087
 IR Inten    --      9.0867                 5.6762                10.7066

                     88                     89                     90
                      A                      A                      A
 Frequencies --   3003.5042              3017.4932              3038.4326
 Red. masses --      1.0722                 1.0713                 1.0396
 Frc consts  --      5.6990                 5.7473                 5.6548
 IR Inten    --     23.4792                54.5726                12.5424

                     91                     92                     93
                      A                      A                      A
 Frequencies --   3043.5816              3048.1730              3051.5601
 Red. masses --      1.0566                 1.0685                 1.0660
 Frc consts  --      5.7666                 5.8494                 5.8488
 IR Inten    --     40.7187                37.4836                46.1195

                     94                     95                     96
                      A                      A                      A
 Frequencies --   3053.0472              3080.3481              3094.3253
 Red. masses --      1.0360                 1.1037                 1.0943
 Frc consts  --      5.6897                 6.1703                 6.1733
 IR Inten    --     18.4358                25.8241                18.0168

                     97                     98                     99
                      A                      A                      A
 Frequencies --   3096.8645              3104.1270              3107.1160
 Red. masses --      1.0907                 1.0976                 1.0973
 Frc consts  --      6.1634                 6.2311                 6.2413
 IR Inten    --      9.2428                14.7873                80.5717

                    100                    101                    102
                      A                      A                      A
 Frequencies --   3111.0867              3116.2627              3117.6802
 Red. masses --      1.1025                 1.0726                 1.0914
 Frc consts  --      6.2872                 6.1368                 6.2501
 IR Inten    --     34.5511                21.2309                27.4439

                    103                    104                    105
                      A                      A                      A
 Frequencies --   3120.5364              3127.7122              3180.2836
 Red. masses --      1.1009                 1.0947                 1.1034
 Frc consts  --      6.3160                 6.3096                 6.5754
 IR Inten    --     43.8487                53.1480                 7.0362

                    106                    107                    108
                      A                      A                      A
 Frequencies --   3255.2656              3310.9246              3740.3217
 Red. masses --      1.0949                 1.0968                 1.0659
 Frc consts  --      6.8358                 7.0837                 8.7855
 IR Inten    --     12.3031                 4.0922                 9.3042

 - Thermochemistry -
 -------------------
 Temperature   298.150 Kelvin.  Pressure   1.00000 Atm.
 Atom     1 has atomic number  6 and mass  12.00000

 Molecular mass:   222.17321 amu.
 Principal axes and moments of inertia in atomic units:
                           1         2         3
     Eigenvalues --  2075.973074988.829755355.77756
           X            0.99976   0.02153  -0.00334
           Y           -0.02161   0.99942  -0.02626
           Z            0.00277   0.02632   0.99965
 This molecule is an asymmetric top.
 Rotational symmetry number  1.
 Warning -- assumption of classical behavior for rotation
           may cause significant error
 Rotational temperatures (Kelvin)      0.04172     0.01736     0.01617
 Rotational constants (GHZ):           0.86935     0.36176     0.33697
 Zero-point vibrational energy     896673.6 (Joules/Mol)
                                  214.31013 (Kcal/Mol)
 Warning -- explicit consideration of  24 degrees of freedom as
           vibrations may cause significant error
 Vibrational temperatures:     48.14    89.84    99.24   105.32   184.68
          (Kelvin)            234.73   303.67   317.94   330.22   353.66
                              385.67   393.48   406.45   432.83   438.57
                              484.04   511.92   597.96   615.74   634.90
                              692.34   717.16   734.24   851.73   901.83
                              963.07   999.60  1022.22  1112.82  1127.71
                             1139.44  1175.10  1250.36  1256.90  1276.60
                             1315.19  1319.92  1371.93  1380.65  1390.64
                             1421.46  1480.87  1495.27  1510.19  1535.31
                             1556.53  1585.73  1605.01  1617.83  1621.10
                             1669.13  1671.68  1705.12  1736.42  1772.08
                             1804.38  1818.33  1847.69  1873.69  1875.19
                             1923.66  1936.35  1951.89  1975.72  1978.42
                             1998.25  2012.67  2017.63  2024.45  2042.84
                             2060.37  2067.70  2074.17  2085.06  2160.97
                             2164.37  2176.75  2183.60  2189.93  2193.82
                             2198.06  2201.17  2202.52  2208.82  2211.77
                             2274.33  4305.00  4321.37  4341.50  4371.63
                             4379.04  4385.64  4390.51  4392.65  4431.93
                             4452.04  4455.70  4466.15  4470.45  4476.16
                             4483.61  4485.65  4489.76  4500.08  4575.72
                             4683.60  4763.68  5381.49

 Zero-point correction=                           0.341525 (Hartree/Particle)
 Thermal correction to Energy=                    0.357435
 Thermal correction to Enthalpy=                  0.358380
 Thermal correction to Gibbs Free Energy=         0.298755
 Sum of electronic and zero-point Energies=           -693.077585
 Sum of electronic and thermal Energies=              -693.061675
 Sum of electronic and thermal Enthalpies=            -693.060731
 Sum of electronic and thermal Free Energies=         -693.120356

                     E (Thermal)             CV                S
                      KCal/Mol        Cal/Mol-Kelvin    Cal/Mol-Kelvin
 Total                  224.294             62.819            125.491
 Electronic               0.000              0.000              0.000
 Translational            0.889              2.981             42.098
 Rotational               0.889              2.981             32.384
 Vibrational            222.517             56.857             51.010
 Vibration     1          0.594              1.983              5.613
 Vibration     2          0.597              1.972              4.379
 Vibration     3          0.598              1.969              4.182
 Vibration     4          0.599              1.967              4.065
 Vibration     5          0.611              1.925              2.970
 Vibration     6          0.623              1.888              2.513
 Vibration     7          0.643              1.824              2.034
 Vibration     8          0.648              1.809              1.951
 Vibration     9          0.652              1.796              1.883
 Vibration    10          0.660              1.770              1.760
 Vibration    11          0.673              1.732              1.609
 Vibration    12          0.676              1.722              1.574
 Vibration    13          0.682              1.706              1.519
 Vibration    14          0.693              1.672              1.412
 Vibration    15          0.696              1.665              1.390
 Vibration    16          0.717              1.603              1.229
 Vibration    17          0.731              1.563              1.140
 Vibration    18          0.779              1.436              0.907
 Vibration    19          0.789              1.409              0.865
 Vibration    20          0.801              1.380              0.823
 Vibration    21          0.838              1.292              0.707
 Vibration    22          0.854              1.253              0.662
 Vibration    23          0.865              1.227              0.633
 Vibration    24          0.949              1.049              0.464

 Optimization completed.
    -- Stationary point found.
 Normal termination of Gaussian 16 at Fri Dec 11 00:32:08 2020.

 ----------------------------------------------------------------------
 # B3LYP/6-311++G(d,p) empiricaldispersion=gd3bj scf=xqc pop=npa geom=c
 heck
 ----------------------------------------------------------------------

 --------------------------------------
 CID_63976937_JID_6702_Energie_neutraal
 --------------------------------------
 Structure from the checkpoint file:  "JID_6702.chk"
 Charge =  0 Multiplicity = 1

 SCF Done:  E(RB3LYP) =  -693.613425286     A.U. after   14 cycles
 Normal termination of Gaussian 16 at Fri Dec 11 00:38:26 2020.

 ----------------------------------------------------------------------
 # B3LYP/6-311++G(d,p) empiricaldispersion=gd3bj scf=xqc pop=npa geom=c
 heck
 ----------------------------------------------------------------------

 ------------------------------------
 CID_63976937_JID_6702_Energie_kation
 ------------------------------------
 Structure from the checkpoint file:  "JID_6702.chk"
 Charge =  1 Multiplicity = 2

 SCF Done:  E(UB3LYP) =  -693.306498401     A.U. after   33 cycles
 SCF Done:  E(UB3LYP) =  -693.306498525     a.u. after    2 cycles
 Normal termination of Gaussian 16 at Fri Dec 11 01:11:36 2020.
 Gaussian 16:  ES64L-G16RevA.03 25-Dec-2016

 ----------------------------------------------------------------------
 # B3LYP/6-311++G(d,p) empiricaldispersion=gd3bj scf=xqc pop=npa geom=c
 heck
 ----------------------------------------------------------------------

 -----------------------------------
 CID_63976937_JID_6702_Energie_anion
 -----------------------------------
 Structure from the checkpoint file:  "JID_6702.chk"
 Charge = -1 Multiplicity = 2

                         Standard orientation:
 ---------------------------------------------------------------------
 Center     Atomic      Atomic             Coordinates (Angstroms)
 Number     Number       Type             X           Y           Z
 ---------------------------------------------------------------------
      1          6           0       -3.054918   -0.990242    1.820983
      2          6           0       -2.938802   -1.483771    0.377941
      3          6           0       -2.872440   -0.351094   -0.650693
      4          7           0       -1.868296    0.672116   -0.343966
      5          6           0       -0.497094    0.673586   -0.431759
      6          6           0       -0.095831    1.930092    0.008962
      7          6           0       -1.282069    2.609398    0.339893
      8          7           0       -2.352067    1.851422    0.124572
      9          6           0        0.354139   -0.510517   -0.841638
     10          6           0        1.621374   -0.098410   -1.631362
     11          6           0        2.794112    0.452113   -0.806751
     12          6           0        3.127989   -0.419125    0.413614
     13          6           0        1.858398   -0.682326    1.236305
     14          6           0        0.769325   -1.348734    0.392053
     15          6           0        4.234220    0.211276    1.262240
     16          8           0       -0.463684   -1.308407   -1.713623
     17          1           0       -2.175437   -0.404666    2.109482
     18          1           0       -3.146825   -1.831146    2.517196
     19          1           0       -3.929349   -0.342620    1.948841
     20          1           0       -2.060683   -2.126382    0.260024
     21          1           0       -3.808926   -2.102296    0.120010
     22          1           0       -2.679155   -0.747777   -1.645881
     23          1           0       -3.813245    0.202782   -0.659278
     24          1           0        0.910122    2.308226    0.078775
     25          1           0       -1.402457    3.617102    0.715408
     26          1           0        1.966582   -1.015671   -2.131527
     27          1           0        1.332814    0.599423   -2.423722
     28          1           0        2.584260    1.471963   -0.467399
     29          1           0        3.674343    0.531191   -1.457622
     30          1           0        3.488882   -1.392426    0.043338
     31          1           0        1.478866    0.265175    1.641545
     32          1           0        2.094790   -1.319630    2.097483
     33          1           0       -0.114701   -1.567104    0.997379
     34          1           0        1.151623   -2.312891    0.020690
     35          1           0        4.500046   -0.430661    2.109995
     36          1           0        5.141401    0.383201    0.671247
     37          1           0        3.910300    1.179029    1.665663
     38          1           0        0.038346   -2.115809   -1.905636
 ---------------------------------------------------------------------

 SCF Done:  E(UB3LYP) =  -693.601670383     A.U. after   33 cycles
 SCF Done:  E(UB3LYP) =  -693.601670383     a.u. after    1 cycles

 The electronic state is 2-A.
 Alpha  occ. eigenvalues --  -19.02579 -14.29143 -14.23060 -10.14667 -10.11689
 Alpha  occ. eigenvalues --  -10.10874 -10.09388 -10.07486 -10.07298 -10.07013
 Alpha  occ. eigenvalues --  -10.06929 -10.06919 -10.06881 -10.06636 -10.06605
 Alpha  occ. eigenvalues --  -10.06307  -0.95267  -0.93093  -0.74945  -0.74257
 Alpha  occ. eigenvalues --   -0.70324  -0.67240  -0.65395  -0.65016  -0.59599
 Alpha  occ. eigenvalues --   -0.58141  -0.52803  -0.52322  -0.51296  -0.49902
 Alpha  occ. eigenvalues --   -0.46995  -0.44446  -0.41650  -0.40026  -0.38144
 Alpha  occ. eigenvalues --   -0.37338  -0.35651  -0.34889  -0.34488  -0.34216
 Alpha  occ. eigenvalues --   -0.33790  -0.32654  -0.32147  -0.31404  -0.30317
 Alpha  occ. eigenvalues --   -0.29319  -0.28679  -0.28024  -0.26810  -0.25972
 Alpha  occ. eigenvalues --   -0.25665  -0.25082  -0.25016  -0.24070  -0.22386
 Alpha  occ. eigenvalues --   -0.21757  -0.21361  -0.19820  -0.17966  -0.15763
 Alpha  occ. eigenvalues --   -0.14788   0.04366
 Alpha virt. eigenvalues --    0.06397   0.06837   0.07576   0.08035   0.08471
 Alpha virt. eigenvalues --    0.09109   0.09539   0.09827   0.10306   0.10732
 Alpha virt. eigenvalues --    0.11113   0.11380   0.11737   0.12163   0.12658

  Beta  occ. eigenvalues --  -19.02541 -14.29143 -14.23058 -10.14671 -10.11681
  Beta  occ. eigenvalues --  -10.10870 -10.09387 -10.07471 -10.07281 -10.06986
  Beta  occ. eigenvalues --  -10.06917 -10.06897 -10.06868 -10.06624 -10.06594
  Beta  occ. eigenvalues --  -10.06286  -0.95258  -0.93032  -0.74937  -0.74222
  Beta  occ. eigenvalues --   -0.70304  -0.67221  -0.65360  -0.64974  -0.59581
  Beta  occ. eigenvalues --   -0.58098  -0.52762  -0.52263  -0.51254  -0.49882
  Beta  occ. eigenvalues --   -0.46944  -0.44417  -0.41574  -0.39994  -0.38122
  Beta  occ. eigenvalues --   -0.37320  -0.35615  -0.34845  -0.34468  -0.34178
  Beta  occ. eigenvalues --   -0.33758  -0.32632  -0.32133  -0.31385  -0.30295
  Beta  occ. eigenvalues --   -0.29297  -0.28653  -0.27982  -0.26773  -0.25947
  Beta  occ. eigenvalues --   -0.25627  -0.25029  -0.24976  -0.24047  -0.22329
  Beta  occ. eigenvalues --   -0.21727  -0.21325  -0.19814  -0.17933  -0.15758
  Beta  occ. eigenvalues --   -0.14773
  Beta virt. eigenvalues --    0.06532   0.06926   0.07643   0.08035   0.08499
  Beta virt. eigenvalues --    0.08901   0.09318   0.09758   0.10100   0.10630
  Beta virt. eigenvalues --    0.10974   0.11468   0.11680   0.12035   0.12334

 Mulliken charges and spin densities:
               1          2
     1  C    0.069937  -0.672274
     2  C   -0.376832   0.247870
     3  C    0.069685  -0.353115
     4  N    0.371591   0.055986
     5  C    1.618385  -2.296195
     6  C   -0.403500   0.503283
     7  C   -0.051899  -0.433976
     8  N   -0.084560  -0.010004
     9  C   -0.668084   0.508326
    10  C   -0.289164  -0.139373
    11  C    0.810932  -1.004048
    12  C   -0.974895   1.169029
    13  C    1.010746  -1.515360
    14  C   -0.954285   1.092099
    15  C    0.859922  -1.680747
    16  O   -0.110734  -0.035700
    17  H    0.125225   0.043285
    18  H   -0.180127   0.318574
    19  H    0.153778  -0.021491
    20  H   -0.096290   0.299453
    21  H   -0.266411   0.430434
    22  H    0.218514  -0.034584
    23  H    0.112574   0.068883
    24  H    0.076090   0.038924
    25  H    0.123887   0.021252
    26  H   -0.569038   0.724247
    27  H    0.052941   0.139481
    28  H   -0.076870   0.181934
    29  H   -0.132211   0.336956
    30  H   -0.344976   0.540345
    31  H    0.067994   0.100242
    32  H   -0.113809   0.294287
    33  H    0.111799   0.066588
    34  H   -0.636144   0.817286
    35  H   -0.116227   0.250196
    36  H   -0.222407   0.362959
    37  H    0.101924   0.022023
    38  H   -0.287464   0.562924
 Sum of Mulliken charges =  -1.00000   1.00000

 Dipole moment (field-independent basis, Debye):
    X=             -3.9400    Y=              6.4458    Z=              1.6864  Tot=              7.7406
 Quadrupole moment (field-independent basis, Debye-Ang):
   XX=           -173.6158   YY=           -149.7451   ZZ=           -139.5193
   XY=             10.3523   XZ=              6.0301   YZ=             -2.7462

 Summary of Natural Population Analysis:

                                       Natural Population
                Natural  -----------------------------------------------
    Atom  No    Charge         Core      Valence    Rydberg      Total
 -----------------------------------------------------------------------
      C    1   -0.28937      0.99966     2.28388    0.00582     3.28937
      C    2   -0.19712      0.99963     2.19014    0.00734     3.19712
      C    3   -0.08138      0.99960     2.07073    0.01105     3.08138
      N    4   -0.10930      0.99962     2.59556    0.01412     3.60930
      C    5    0.09044      0.99948     1.89549    0.01459     2.90956
      C    6   -0.16519      0.99950     2.15902    0.00668     3.16519
      C    7   -0.01904      0.99964     2.00469    0.01471     3.01904
      N    8   -0.15640      0.99974     2.64645    0.01021     3.65640
      C    9    0.11917      0.99947     1.86535    0.01601     2.88083
      C   10   -0.19343      0.99959     2.18303    0.01081     3.19343
      C   11   -0.18685      0.99960     2.17776    0.00950     3.18685
      C   12   -0.11309      0.99959     2.10313    0.01037     3.11309
      C   13   -0.19003      0.99960     2.18086    0.00957     3.19003
      C   14   -0.19448      0.99958     2.18354    0.01135     3.19448
      C   15   -0.28069      0.99965     2.27463    0.00641     3.28069
      O   16   -0.37864      0.99989     3.37171    0.00704     4.37864
      H   17    0.10042      0.00000     0.39860    0.00098     0.39958
      H   18    0.09880      0.00000     0.40048    0.00072     0.40120
      H   19    0.09682      0.00000     0.40232    0.00086     0.40318
      H   20    0.10333      0.00000     0.39470    0.00197     0.39667
      H   21    0.09626      0.00000     0.40270    0.00105     0.40374
      H   22    0.11359      0.00000     0.38527    0.00114     0.38641
      H   23    0.10175      0.00000     0.39684    0.00141     0.39825
      H   24    0.10800      0.00000     0.39100    0.00100     0.39200
      H   25    0.09508      0.00000     0.40418    0.00073     0.40492
      H   26    0.10392      0.00000     0.39373    0.00234     0.39608
      H   27    0.10417      0.00000     0.39485    0.00098     0.39583
      H   28    0.08929      0.00000     0.40920    0.00150     0.41071
      H   29    0.10262      0.00000     0.39631    0.00107     0.39738
      H   30    0.09739      0.00000     0.39918    0.00343     0.40261
      H   31    0.09655      0.00000     0.40185    0.00160     0.40345
      H   32    0.10233      0.00000     0.39671    0.00096     0.39767
      H   33    0.10285      0.00000     0.39548    0.00167     0.39715
      H   34    0.10241      0.00000     0.39405    0.00354     0.39759
      H   35    0.09975      0.00000     0.39937    0.00088     0.40025
      H   36    0.09968      0.00000     0.39940    0.00092     0.40032
      H   37    0.09288      0.00000     0.40620    0.00092     0.40712
      H   38    0.23752      0.00000     0.25571    0.00677     0.26248
 =======================================================================
   * Total *    0.00004     15.99383    44.80409    0.20204    60.99996

 Normal termination of Gaussian 16 at Fri Dec 11 01:31:33 2020.
