 Gaussian 16, Revision A.03,

 -----------------------------------------------------------
 # opt freq B3LYP/6-31G(d) empiricaldispersion=gd3bj scf=xqc
 -----------------------------------------------------------

 ------------------------------
 CID_79810795_JID_5839_neutraal
 ------------------------------
 Symbolic Z-matrix:
 Charge =  0 Multiplicity = 1

 SCF Done:  E(RB3LYP) =  -656.529512005     A.U. after   14 cycles
 SCF Done:  E(RB3LYP) =  -656.533868885     A.U. after   11 cycles
 SCF Done:  E(RB3LYP) =  -656.533470363     A.U. after   12 cycles
 SCF Done:  E(RB3LYP) =  -656.530897881     A.U. after   12 cycles
 SCF Done:  E(RB3LYP) =  -656.528787695     A.U. after   12 cycles
 SCF Done:  E(RB3LYP) =  -656.533940716     A.U. after    9 cycles
 SCF Done:  E(RB3LYP) =  -656.534836903     A.U. after   12 cycles
 SCF Done:  E(RB3LYP) =  -656.534707780     A.U. after   11 cycles
 SCF Done:  E(RB3LYP) =  -656.535120564     A.U. after   11 cycles
 SCF Done:  E(RB3LYP) =  -656.535158125     A.U. after    9 cycles
 SCF Done:  E(RB3LYP) =  -656.535253026     A.U. after    9 cycles
 SCF Done:  E(RB3LYP) =  -656.535254855     A.U. after    8 cycles
 SCF Done:  E(RB3LYP) =  -656.535255299     A.U. after    7 cycles
 SCF Done:  E(RB3LYP) =  -656.535255306     A.U. after    9 cycles
 SCF Done:  E(RB3LYP) =  -656.535255854     A.U. after    9 cycles
 SCF Done:  E(RB3LYP) =  -656.535255889     A.U. after    7 cycles
 Optimization completed on the basis of negligible forces.
    -- Stationary point found.
 Normal termination of Gaussian 16 at Thu Dec 10 17:37:41 2020.

 --------------------------------------------------------------------
 #N Geom=AllCheck Guess=TCheck SCRF=Check GenChk RB3LYP/6-31G(d) Freq
 --------------------------------------------------------------------

 Structure from the checkpoint file:  "JID_5839.chk"
 ------------------------------
 CID_79810795_JID_5839_neutraal
 ------------------------------
 Charge =  0 Multiplicity = 1

 SCF Done:  E(RB3LYP) =  -656.535255889     A.U. after    1 cycles

  Exact polarizability: 162.322   1.829 126.253  -1.660   2.310 129.378
 Approx polarizability: 191.816   2.028 179.964  -5.860  10.824 206.309

                      1                      2                      3
                      A                      A                      A
 Frequencies --     29.2614                34.0390                38.9756
 Red. masses --      2.7191                 2.3932                 2.6961
 Frc consts  --      0.0014                 0.0016                 0.0024
 IR Inten    --      0.0921                 0.0793                 0.3230

                      4                      5                      6
                      A                      A                      A
 Frequencies --     67.4740                77.6040               109.0407
 Red. masses --      2.8144                 3.6932                 2.2833
 Frc consts  --      0.0075                 0.0131                 0.0160
 IR Inten    --      0.6717                 2.1497                 0.6754

                      7                      8                      9
                      A                      A                      A
 Frequencies --    131.3972               167.8789               180.9665
 Red. masses --      2.6295                 1.6055                 2.2614
 Frc consts  --      0.0267                 0.0267                 0.0436
 IR Inten    --      2.4728                 0.5538                 0.1050

                     10                     11                     12
                      A                      A                      A
 Frequencies --    185.6730               194.4803               236.3103
 Red. masses --      1.2019                 1.9022                 2.6845
 Frc consts  --      0.0244                 0.0424                 0.0883
 IR Inten    --      0.2199                 0.1332                 1.7971

                     13                     14                     15
                      A                      A                      A
 Frequencies --    246.2591               263.8976               275.6947
 Red. masses --      1.5451                 1.2030                 2.5301
 Frc consts  --      0.0552                 0.0494                 0.1133
 IR Inten    --      1.2737                36.8077                 3.9023

                     16                     17                     18
                      A                      A                      A
 Frequencies --    303.3547               308.2790               349.9725
 Red. masses --      1.8951                 2.5846                 3.0422
 Frc consts  --      0.1028                 0.1447                 0.2195
 IR Inten    --      0.3026                 0.5350                 6.1916

                     19                     20                     21
                      A                      A                      A
 Frequencies --    382.1094               408.1727               427.7460
 Red. masses --      2.4560                 2.4581                 3.1401
 Frc consts  --      0.2113                 0.2413                 0.3385
 IR Inten    --      3.5189                 6.1460                 3.8336

                     22                     23                     24
                      A                      A                      A
 Frequencies --    451.6741               463.8992               562.8343
 Red. masses --      2.4938                 2.4453                 2.8740
 Frc consts  --      0.2998                 0.3101                 0.5364
 IR Inten    --     13.8653                11.5203                 6.5157

                     25                     26                     27
                      A                      A                      A
 Frequencies --    597.7803               627.2889               631.9393
 Red. masses --      2.6655                 2.9839                 3.3930
 Frc consts  --      0.5612                 0.6918                 0.7983
 IR Inten    --      2.8111                 1.1578                 1.9629

                     28                     29                     30
                      A                      A                      A
 Frequencies --    702.6607               742.6606               784.5247
 Red. masses --      3.8544                 7.9679                 1.1868
 Frc consts  --      1.1212                 2.5893                 0.4304
 IR Inten    --      7.7921                 6.9691                 1.0805

                     31                     32                     33
                      A                      A                      A
 Frequencies --    794.3262               819.0892               852.1151
 Red. masses --      1.2333                 2.1319                 2.4304
 Frc consts  --      0.4585                 0.8427                 1.0398
 IR Inten    --      2.8349                 0.6601                10.2526

                     34                     35                     36
                      A                      A                      A
 Frequencies --    877.3501               898.4798               910.4780
 Red. masses --      2.0466                 2.6674                 2.0431
 Frc consts  --      0.9282                 1.2687                 0.9979
 IR Inten    --      2.4174                 0.3536                 0.9427

                     37                     38                     39
                      A                      A                      A
 Frequencies --    930.1277               957.5715               974.1188
 Red. masses --      2.0677                 2.2289                 1.9650
 Frc consts  --      1.0540                 1.2042                 1.0986
 IR Inten    --     66.7988                 2.3168                 5.7542

                     40                     41                     42
                      A                      A                      A
 Frequencies --    992.8509              1002.1707              1021.3288
 Red. masses --      1.5662                 1.5797                 1.4447
 Frc consts  --      0.9096                 0.9348                 0.8879
 IR Inten    --     51.0076                12.4429                 0.3233

                     43                     44                     45
                      A                      A                      A
 Frequencies --   1026.2515              1046.8006              1059.8041
 Red. masses --      1.5646                 2.3329                 1.8125
 Frc consts  --      0.9709                 1.5062                 1.1994
 IR Inten    --     15.5674                 1.5825                47.1516

                     46                     47                     48
                      A                      A                      A
 Frequencies --   1088.2604              1093.7109              1121.0380
 Red. masses --      1.4904                 2.1273                 1.7950
 Frc consts  --      1.0400                 1.4993                 1.3291
 IR Inten    --      2.4211                32.4662                29.9709

                     49                     50                     51
                      A                      A                      A
 Frequencies --   1123.7784              1133.9452              1155.2109
 Red. masses --      1.6864                 2.7961                 1.3590
 Frc consts  --      1.2548                 2.1183                 1.0685
 IR Inten    --     94.0582                15.5988                 5.6617

                     52                     53                     54
                      A                      A                      A
 Frequencies --   1175.9076              1213.3313              1221.5503
 Red. masses --      1.6712                 1.9817                 1.4215
 Frc consts  --      1.3616                 1.7189                 1.2497
 IR Inten    --     32.4244                 6.4490                 3.1103

                     55                     56                     57
                      A                      A                      A
 Frequencies --   1229.6842              1243.7032              1264.5554
 Red. masses --      1.4702                 2.2012                 1.8050
 Frc consts  --      1.3099                 2.0061                 1.7006
 IR Inten    --      1.3889                 6.3275                 4.1990

                     58                     59                     60
                      A                      A                      A
 Frequencies --   1293.2246              1304.6049              1315.9756
 Red. masses --      1.2815                 1.4216                 1.5941
 Frc consts  --      1.2627                 1.4256                 1.6266
 IR Inten    --      4.6092                12.8844                26.4837

                     61                     62                     63
                      A                      A                      A
 Frequencies --   1322.3143              1339.0130              1347.6786
 Red. masses --      1.3916                 1.3762                 1.2828
 Frc consts  --      1.4336                 1.4538                 1.3727
 IR Inten    --      6.8248                16.2483                 5.6190

                     64                     65                     66
                      A                      A                      A
 Frequencies --   1361.1821              1375.2776              1384.6086
 Red. masses --      1.3120                 1.3463                 1.4897
 Frc consts  --      1.4322                 1.5003                 1.6826
 IR Inten    --      5.8865                14.9000                 0.2514

                     67                     68                     69
                      A                      A                      A
 Frequencies --   1385.2279              1406.5503              1419.0603
 Red. masses --      1.5072                 1.4962                 1.5008
 Frc consts  --      1.7040                 1.7440                 1.7806
 IR Inten    --      1.4180                 4.2738                38.8072

                     70                     71                     72
                      A                      A                      A
 Frequencies --   1430.2828              1432.9735              1448.0899
 Red. masses --      1.2681                 1.4533                 1.6757
 Frc consts  --      1.5285                 1.7583                 2.0703
 IR Inten    --      2.8067                18.8752                46.9518

                     73                     74                     75
                      A                      A                      A
 Frequencies --   1491.6014              1508.8178              1515.9479
 Red. masses --      1.1424                 1.1224                 1.0838
 Frc consts  --      1.4976                 1.5055                 1.4674
 IR Inten    --      3.5143                 4.9737                 0.8630

                     76                     77                     78
                      A                      A                      A
 Frequencies --   1517.8042              1521.4288              1522.7274
 Red. masses --      1.0734                 1.0677                 1.1074
 Frc consts  --      1.4569                 1.4561                 1.5128
 IR Inten    --      1.2356                 2.3735                 7.8380

                     79                     80                     81
                      A                      A                      A
 Frequencies --   1526.1095              1527.2644              1532.8528
 Red. masses --      1.0867                 1.0809                 1.0897
 Frc consts  --      1.4912                 1.4854                 1.5086
 IR Inten    --      2.4014                 2.0332                29.2974

                     82                     83                     84
                      A                      A                      A
 Frequencies --   1544.9634              1546.5772              1550.3107
 Red. masses --      1.0567                 1.0851                 1.0953
 Frc consts  --      1.4860                 1.5292                 1.5511
 IR Inten    --      7.3448                 8.5208                 0.9685

                     85                     86                     87
                      A                      A                      A
 Frequencies --   1554.5713              1713.0684              1721.5141
 Red. masses --      1.0748                 6.4988                 1.1493
 Frc consts  --      1.5304                11.2365                 2.0067
 IR Inten    --     12.6302               152.9818                68.4998

                     88                     89                     90
                      A                      A                      A
 Frequencies --   3014.8089              3034.2348              3036.9228
 Red. masses --      1.0695                 1.0701                 1.0534
 Frc consts  --      5.7273                 5.8048                 5.7241
 IR Inten    --     26.8554                25.9194                43.0168

                     91                     92                     93
                      A                      A                      A
 Frequencies --   3046.7420              3051.6848              3053.2011
 Red. masses --      1.0621                 1.0673                 1.0658
 Frc consts  --      5.8089                 5.8563                 5.8538
 IR Inten    --     28.3989                43.3717                 5.0028

                     94                     95                     96
                      A                      A                      A
 Frequencies --   3054.6986              3060.9047              3067.2808
 Red. masses --      1.0383                 1.0441                 1.0658
 Frc consts  --      5.7085                 5.7638                 5.9078
 IR Inten    --     33.9319                19.4787                47.8620

                     97                     98                     99
                      A                      A                      A
 Frequencies --   3071.7019              3081.8020              3090.8158
 Red. masses --      1.0778                 1.0982                 1.0958
 Frc consts  --      5.9918                 6.1453                 6.1680
 IR Inten    --     31.8567                29.3346                25.3234

                    100                    101                    102
                      A                      A                      A
 Frequencies --   3097.6770              3102.6449              3112.9733
 Red. masses --      1.0961                 1.0986                 1.1020
 Frc consts  --      6.1968                 6.2309                 6.2920
 IR Inten    --     32.5777                16.4354                44.1107

                    103                    104                    105
                      A                      A                      A
 Frequencies --   3116.5229              3125.8024              3128.6230
 Red. masses --      1.1041                 1.0931                 1.0945
 Frc consts  --      6.3182                 6.2925                 6.3119
 IR Inten    --     74.6160                 5.6429                24.1659

                    106                    107                    108
                      A                      A                      A
 Frequencies --   3129.6529              3150.1389              3163.8400
 Red. masses --      1.0957                 1.1008                 1.0996
 Frc consts  --      6.3232                 6.4358                 6.4851
 IR Inten    --     24.0657                15.0475                23.0925

                    109                    110                    111
                      A                      A                      A
 Frequencies --   3195.3648              3449.0010              3523.7783
 Red. masses --      1.0954                 1.0507                 1.0892
 Frc consts  --      6.5899                 7.3642                 7.9685
 IR Inten    --     15.2945                 3.4756                 5.5543

 - Thermochemistry -
 -------------------
 Temperature   298.150 Kelvin.  Pressure   1.00000 Atm.
 Atom     1 has atomic number  6 and mass  12.00000

 Molecular mass:   212.18886 amu.
 Principal axes and moments of inertia in atomic units:
                           1         2         3
     Eigenvalues --  1571.234096250.166356449.76529
           X            0.99997   0.00637   0.00511
           Y           -0.00604   0.99808  -0.06164
           Z           -0.00549   0.06161   0.99809
 This molecule is an asymmetric top.
 Rotational symmetry number  1.
 Warning -- assumption of classical behavior for rotation
           may cause significant error
 Rotational temperatures (Kelvin)      0.05512     0.01386     0.01343
 Rotational constants (GHZ):           1.14861     0.28875     0.27982
 Zero-point vibrational energy     939270.9 (Joules/Mol)
                                  224.49113 (Kcal/Mol)
 Warning -- explicit consideration of  25 degrees of freedom as
           vibrations may cause significant error
 Vibrational temperatures:     42.10    48.97    56.08    97.08   111.65
          (Kelvin)            156.89   189.05   241.54   260.37   267.14
                              279.81   340.00   354.31   379.69   396.66
                              436.46   443.54   503.53   549.77   587.27
                              615.43   649.86   667.45   809.79   860.07
                              902.53   909.22  1010.97  1068.52  1128.76
                             1142.86  1178.49  1226.00  1262.31  1292.71
                             1309.97  1338.25  1377.73  1401.54  1428.49
                             1441.90  1469.46  1476.55  1506.11  1524.82
                             1565.76  1573.61  1612.92  1616.87  1631.49
                             1662.09  1691.87  1745.71  1757.54  1769.24
                             1789.41  1819.41  1860.66  1877.04  1893.40
                             1902.52  1926.54  1939.01  1958.44  1978.72
                             1992.14  1993.03  2023.71  2041.71  2057.86
                             2061.73  2083.48  2146.08  2170.85  2181.11
                             2183.78  2189.00  2190.87  2195.73  2197.39
                             2205.43  2222.86  2225.18  2230.55  2236.68
                             2464.72  2476.87  4337.64  4365.59  4369.45
                             4383.58  4390.69  4392.88  4395.03  4403.96
                             4413.13  4419.49  4434.03  4446.99  4456.87
                             4464.01  4478.87  4483.98  4497.33  4501.39
                             4502.87  4532.35  4552.06  4597.42  4962.34
                             5069.93

 Zero-point correction=                           0.357749 (Hartree/Particle)
 Thermal correction to Energy=                    0.375105
 Thermal correction to Enthalpy=                  0.376049
 Thermal correction to Gibbs Free Energy=         0.311719
 Sum of electronic and zero-point Energies=           -656.177507
 Sum of electronic and thermal Energies=              -656.160151
 Sum of electronic and thermal Enthalpies=            -656.159207
 Sum of electronic and thermal Free Energies=         -656.223537

                     E (Thermal)             CV                S
                      KCal/Mol        Cal/Mol-Kelvin    Cal/Mol-Kelvin
 Total                  235.382             64.695            135.395
 Electronic               0.000              0.000              0.000
 Translational            0.889              2.981             41.960
 Rotational               0.889              2.981             32.516
 Vibrational            233.605             58.733             60.919
 Vibration     1          0.593              1.984              5.879
 Vibration     2          0.594              1.983              5.579
 Vibration     3          0.594              1.981              5.310
 Vibration     4          0.598              1.970              4.226
 Vibration     5          0.599              1.964              3.951
 Vibration     6          0.606              1.942              3.286
 Vibration     7          0.612              1.922              2.925
 Vibration     8          0.625              1.882              2.459
 Vibration     9          0.630              1.866              2.318
 Vibration    10          0.632              1.859              2.271
 Vibration    11          0.635              1.848              2.185
 Vibration    12          0.655              1.785              1.830
 Vibration    13          0.661              1.769              1.757
 Vibration    14          0.670              1.739              1.636
 Vibration    15          0.677              1.718              1.560
 Vibration    16          0.695              1.667              1.398
 Vibration    17          0.698              1.658              1.372
 Vibration    18          0.727              1.575              1.166
 Vibration    19          0.752              1.508              1.031
 Vibration    20          0.773              1.452              0.933
 Vibration    21          0.789              1.410              0.866
 Vibration    22          0.810              1.357              0.791
 Vibration    23          0.821              1.330              0.755
 Vibration    24          0.919              1.112              0.518
 Vibration    25          0.956              1.037              0.453

 Optimization completed on the basis of negligible forces.
    -- Stationary point found.
 Normal termination of Gaussian 16 at Thu Dec 10 17:51:11 2020.

 ----------------------------------------------------------------------
 # B3LYP/6-311++G(d,p) empiricaldispersion=gd3bj scf=xqc pop=npa geom=c
 heck
 ----------------------------------------------------------------------

 --------------------------------------
 CID_79810795_JID_5839_Energie_neutraal
 --------------------------------------
 Structure from the checkpoint file:  "JID_5839.chk"
 Charge =  0 Multiplicity = 1

 SCF Done:  E(RB3LYP) =  -656.725777501     A.U. after   14 cycles
 Normal termination of Gaussian 16 at Thu Dec 10 17:58:03 2020.

 ----------------------------------------------------------------------
 # B3LYP/6-311++G(d,p) empiricaldispersion=gd3bj scf=xqc pop=npa geom=c
 heck
 ----------------------------------------------------------------------

 ------------------------------------
 CID_79810795_JID_5839_Energie_kation
 ------------------------------------
 Structure from the checkpoint file:  "JID_5839.chk"
 Charge =  1 Multiplicity = 2

 SCF Done:  E(UB3LYP) =  -656.417916358     A.U. after   26 cycles
 Normal termination of Gaussian 16 at Thu Dec 10 18:15:21 2020.
 Gaussian 16:  ES64L-G16RevA.03 25-Dec-2016

 ----------------------------------------------------------------------
 # B3LYP/6-311++G(d,p) empiricaldispersion=gd3bj scf=xqc pop=npa geom=c
 heck
 ----------------------------------------------------------------------

 -----------------------------------
 CID_79810795_JID_5839_Energie_anion
 -----------------------------------
 Structure from the checkpoint file:  "JID_5839.chk"
 Charge = -1 Multiplicity = 2

                         Standard orientation:
 ---------------------------------------------------------------------
 Center     Atomic      Atomic             Coordinates (Angstroms)
 Number     Number       Type             X           Y           Z
 ---------------------------------------------------------------------
      1          6           0        3.777037    1.974575   -0.424328
      2          6           0        2.404630    1.300346   -0.448206
      3          6           0        2.450857   -0.231712   -0.204962
      4          6           0        3.215653   -0.621391    1.073329
      5          6           0        0.978449   -0.762610   -0.239395
      6          8           0        0.585885   -1.328933   -1.263376
      7          7           0        0.114891   -0.586172    0.808187
      8          6           0        0.384699    0.091202    2.068667
      9          6           0       -1.228727   -1.164591    0.654472
     10          6           0       -2.177900   -0.283268   -0.155305
     11          6           0       -3.575647   -0.912440   -0.335855
     12          6           0       -4.543921    0.276501   -0.597007
     13          6           0       -3.703366    1.561945   -0.378034
     14          6           0       -2.491197    1.096909    0.443637
     15          7           0        3.190020   -0.821590   -1.330464
     16          1           0        4.221829    1.950119    0.576979
     17          1           0        3.694337    3.025448   -0.722958
     18          1           0        4.456132    1.465934   -1.113031
     19          1           0        1.739274    1.781573    0.278349
     20          1           0        1.937443    1.451533   -1.430077
     21          1           0        2.992138    0.016241    1.929321
     22          1           0        2.996878   -1.657757    1.357165
     23          1           0        4.287639   -0.545081    0.872140
     24          1           0       -0.540019    0.553455    2.421303
     25          1           0        0.740587   -0.601580    2.843131
     26          1           0        1.117308    0.885956    1.948412
     27          1           0       -1.123913   -2.135094    0.163836
     28          1           0       -1.634248   -1.332815    1.659512
     29          1           0       -1.722161   -0.137195   -1.141731
     30          1           0       -3.587611   -1.655437   -1.139405
     31          1           0       -3.862346   -1.437420    0.585537
     32          1           0       -5.390730    0.241738    0.096709
     33          1           0       -4.964803    0.244587   -1.606877
     34          1           0       -4.270219    2.362834    0.107785
     35          1           0       -3.355998    1.952382   -1.342417
     36          1           0       -2.775178    0.988431    1.501569
     37          1           0       -1.645510    1.791306    0.395301
     38          1           0        3.388314   -1.797698   -1.107183
     39          1           0        2.536006   -0.878453   -2.112493
 ---------------------------------------------------------------------

 SCF Done:  E(UB3LYP) =  -656.714209943     A.U. after   32 cycles

 The electronic state is 2-A.
 Alpha  occ. eigenvalues --  -18.98714 -14.24570 -14.19162 -10.16747 -10.12054
 Alpha  occ. eigenvalues --  -10.10156 -10.10139 -10.07391 -10.07319 -10.07225
 Alpha  occ. eigenvalues --  -10.07098 -10.07082 -10.06668 -10.06575 -10.06007
 Alpha  occ. eigenvalues --   -0.94134  -0.83534  -0.79775  -0.74421  -0.67977
 Alpha  occ. eigenvalues --   -0.65362  -0.62708  -0.61513  -0.61113  -0.57786
 Alpha  occ. eigenvalues --   -0.54944  -0.48394  -0.47615  -0.46931  -0.44080
 Alpha  occ. eigenvalues --   -0.41323  -0.39206  -0.38746  -0.38537  -0.37433
 Alpha  occ. eigenvalues --   -0.36380  -0.34807  -0.33701  -0.32459  -0.32058
 Alpha  occ. eigenvalues --   -0.31772  -0.30972  -0.30188  -0.29188  -0.28298
 Alpha  occ. eigenvalues --   -0.27847  -0.27038  -0.26497  -0.24828  -0.24611
 Alpha  occ. eigenvalues --   -0.24434  -0.24040  -0.23399  -0.23291  -0.22689
 Alpha  occ. eigenvalues --   -0.22039  -0.16173  -0.15400  -0.14429   0.04199
 Alpha virt. eigenvalues --    0.06257   0.07013   0.07496   0.08202   0.08336
 Alpha virt. eigenvalues --    0.08581   0.09577   0.10066   0.10119   0.10590
 Alpha virt. eigenvalues --    0.10849   0.11172   0.11552   0.11908   0.12642

  Beta  occ. eigenvalues --  -18.98698 -14.24567 -14.19151 -10.16738 -10.12053
  Beta  occ. eigenvalues --  -10.10124 -10.10108 -10.07379 -10.07308 -10.07223
  Beta  occ. eigenvalues --  -10.07087 -10.07070 -10.06634 -10.06551 -10.05987
  Beta  occ. eigenvalues --   -0.94111  -0.83515  -0.79759  -0.74401  -0.67951
  Beta  occ. eigenvalues --   -0.65334  -0.62667  -0.61477  -0.61051  -0.57747
  Beta  occ. eigenvalues --   -0.54904  -0.48347  -0.47569  -0.46894  -0.44031
  Beta  occ. eigenvalues --   -0.41279  -0.39179  -0.38721  -0.38497  -0.37403
  Beta  occ. eigenvalues --   -0.36353  -0.34782  -0.33669  -0.32432  -0.32028
  Beta  occ. eigenvalues --   -0.31751  -0.30934  -0.30144  -0.29155  -0.28265
  Beta  occ. eigenvalues --   -0.27804  -0.27003  -0.26471  -0.24801  -0.24584
  Beta  occ. eigenvalues --   -0.24405  -0.24014  -0.23374  -0.23258  -0.22665
  Beta  occ. eigenvalues --   -0.22010  -0.16158  -0.15380  -0.14392
  Beta virt. eigenvalues --    0.06309   0.06842   0.07669   0.07969   0.08474
  Beta virt. eigenvalues --    0.08625   0.08972   0.10087   0.10253   0.10507
  Beta virt. eigenvalues --    0.10731   0.11111   0.11476   0.11814   0.12074

 Mulliken charges and spin densities:
               1          2
     1  C    0.534128  -1.171103
     2  C   -0.686056   0.716631
     3  C    0.381471  -0.102422
     4  C    1.121307  -1.673251
     5  C   -1.625790   0.775276
     6  O   -0.280038  -0.000558
     7  N    0.183172   0.116800
     8  C    1.157948  -1.481118
     9  C   -0.255962  -0.667889
    10  C    0.041437   1.018634
    11  C   -0.011223  -0.634151
    12  C   -0.081717  -0.271731
    13  C    0.144504  -0.748783
    14  C    0.127300  -0.390419
    15  N   -0.268468   0.012631
    16  H   -0.052614   0.188830
    17  H   -0.148270   0.294549
    18  H    0.141006   0.047206
    19  H   -0.162179   0.264233
    20  H    0.119641   0.052869
    21  H   -0.360901   0.510736
    22  H   -0.117661   0.289785
    23  H    0.041305   0.125634
    24  H   -0.642134   0.804608
    25  H   -0.583759   0.773008
    26  H    0.131092   0.042605
    27  H    0.048235   0.146540
    28  H   -0.165408   0.365928
    29  H    0.153658   0.062933
    30  H    0.152309  -0.007059
    31  H   -0.116225   0.257694
    32  H   -0.028451   0.167587
    33  H    0.018131   0.112858
    34  H   -0.214218   0.381906
    35  H    0.085231   0.047199
    36  H   -0.027266   0.181551
    37  H   -0.089150   0.243755
    38  H    0.149147   0.076547
    39  H    0.186469   0.069949
 Sum of Mulliken charges =  -1.00000   1.00000

 Dipole moment (field-independent basis, Debye):
    X=             -0.7272    Y=             -1.3513    Z=             -5.0003  Tot=              5.2305
 Quadrupole moment (field-independent basis, Debye-Ang):
   XX=           -169.9134   YY=           -135.3903   ZZ=           -146.7597
   XY=             -0.0038   XZ=              1.8346   YZ=             -2.1095

 Summary of Natural Population Analysis:

                                       Natural Population
                Natural  -----------------------------------------------
    Atom  No    Charge         Core      Valence    Rydberg      Total
 -----------------------------------------------------------------------
      C    1   -0.28983      0.99966     2.28464    0.00553     3.28983
      C    2   -0.18849      0.99959     2.17911    0.00979     3.18849
      C    3    0.02218      0.99957     1.96485    0.01340     2.97782
      C    4   -0.29406      0.99963     2.28683    0.00760     3.29406
      C    5    0.34731      0.99958     1.62771    0.02540     2.65269
      O    6   -0.34046      0.99988     3.33561    0.00498     4.34046
      N    7   -0.25378      0.99964     2.74222    0.01192     3.75378
      C    8   -0.17493      0.99962     2.16667    0.00865     3.17493
      C    9   -0.07881      0.99957     2.06676    0.01247     3.07881
      C   10   -0.11839      0.99958     2.10913    0.00968     3.11839
      C   11   -0.19000      0.99963     2.18253    0.00784     3.19000
      C   12   -0.19129      0.99965     2.18502    0.00663     3.19129
      C   13   -0.19025      0.99964     2.18271    0.00789     3.19025
      C   14   -0.19172      0.99962     2.18340    0.00870     3.19172
      N   15   -0.42185      0.99976     2.91305    0.00904     3.92185
      H   16    0.09709      0.00000     0.40205    0.00086     0.40291
      H   17    0.09778      0.00000     0.40148    0.00074     0.40222
      H   18    0.10592      0.00000     0.39284    0.00124     0.39408
      H   19    0.09831      0.00000     0.40014    0.00155     0.40169
      H   20    0.09816      0.00000     0.40071    0.00113     0.40184
      H   21    0.10640      0.00000     0.39217    0.00143     0.39360
      H   22    0.10268      0.00000     0.39608    0.00124     0.39732
      H   23    0.10616      0.00000     0.39269    0.00115     0.39384
      H   24    0.10272      0.00000     0.39554    0.00174     0.39728
      H   25    0.09782      0.00000     0.39964    0.00254     0.40218
      H   26    0.10056      0.00000     0.39736    0.00208     0.39944
      H   27    0.10791      0.00000     0.39096    0.00114     0.39209
      H   28    0.09585      0.00000     0.40275    0.00140     0.40415
      H   29    0.10400      0.00000     0.39415    0.00186     0.39600
      H   30    0.09928      0.00000     0.39986    0.00086     0.40072
      H   31    0.09550      0.00000     0.40327    0.00123     0.40450
      H   32    0.09656      0.00000     0.40221    0.00122     0.40344
      H   33    0.09499      0.00000     0.40398    0.00103     0.40501
      H   34    0.09945      0.00000     0.39954    0.00101     0.40055
      H   35    0.09283      0.00000     0.40597    0.00121     0.40717
      H   36    0.09434      0.00000     0.40389    0.00176     0.40566
      H   37    0.10313      0.00000     0.39551    0.00136     0.39687
      H   38    0.17214      0.00000     0.32628    0.00158     0.32786
      H   39    0.18480      0.00000     0.31331    0.00189     0.31520
 =======================================================================
   * Total *   -0.00000     14.99461    43.82261    0.18278    59.00000

 Normal termination of Gaussian 16 at Thu Dec 10 18:36:08 2020.
