 Gaussian 16, Revision A.03,

 -----------------------------------------------------------
 # opt freq B3LYP/6-31G(d) empiricaldispersion=gd3bj scf=xqc
 -----------------------------------------------------------

 -------------------------------
 CID_115356318_JID_8895_neutraal
 -------------------------------
 Symbolic Z-matrix:
 Charge =  0 Multiplicity = 1

 SCF Done:  E(RB3LYP) =  -1234.86414049     A.U. after   15 cycles
 SCF Done:  E(RB3LYP) =  -1234.87044767     A.U. after   14 cycles
 SCF Done:  E(RB3LYP) =  -1234.87279512     A.U. after   14 cycles
 SCF Done:  E(RB3LYP) =  -1234.87385867     A.U. after   13 cycles
 SCF Done:  E(RB3LYP) =  -1234.87507716     A.U. after   13 cycles
 SCF Done:  E(RB3LYP) =  -1234.87566885     A.U. after   13 cycles
 SCF Done:  E(RB3LYP) =  -1234.87626333     A.U. after   13 cycles
 SCF Done:  E(RB3LYP) =  -1234.87656894     A.U. after   14 cycles
 SCF Done:  E(RB3LYP) =  -1234.87714999     A.U. after   13 cycles
 SCF Done:  E(RB3LYP) =  -1234.87734121     A.U. after   13 cycles
 SCF Done:  E(RB3LYP) =  -1234.88814123     A.U. after   10 cycles
 SCF Done:  E(RB3LYP) =  -1234.88814398     A.U. after   10 cycles
 SCF Done:  E(RB3LYP) =  -1234.88814449     A.U. after    8 cycles
 SCF Done:  E(RB3LYP) =  -1234.88814466     A.U. after    8 cycles
 SCF Done:  E(RB3LYP) =  -1234.88814469     A.U. after    8 cycles
 Optimization completed.
    -- Stationary point found.
 Normal termination of Gaussian 16 at Fri Dec 11 21:37:39 2020.

 --------------------------------------------------------------------
 #N Geom=AllCheck Guess=TCheck SCRF=Check GenChk RB3LYP/6-31G(d) Freq
 --------------------------------------------------------------------

 Structure from the checkpoint file:  "JID_8895.chk"
 -------------------------------
 CID_115356318_JID_8895_neutraal
 -------------------------------
 Charge =  0 Multiplicity = 1

 SCF Done:  E(RB3LYP) =  -1234.88814469     A.U. after    1 cycles

  Exact polarizability: 228.568   6.238 147.070  -6.411  -5.097 109.533
 Approx polarizability: 283.000  13.547 245.296 -17.255  -7.864 169.178

                      1                      2                      3
                      A                      A                      A
 Frequencies --     16.5523                28.6516                31.0498
 Red. masses --      6.5895                 4.7001                 5.4737
 Frc consts  --      0.0011                 0.0023                 0.0031
 IR Inten    --      0.1348                 2.2588                 1.6758

                      4                      5                      6
                      A                      A                      A
 Frequencies --     42.0736                59.9442                81.4793
 Red. masses --      4.9983                 5.8647                 5.7013
 Frc consts  --      0.0052                 0.0124                 0.0223
 IR Inten    --      1.4546                 1.8199                 3.0715

                      7                      8                      9
                      A                      A                      A
 Frequencies --     92.0587               112.3978               118.9177
 Red. masses --      6.2235                 4.0754                 6.6428
 Frc consts  --      0.0311                 0.0303                 0.0553
 IR Inten    --      2.7129                 0.2348                 9.2489

                     10                     11                     12
                      A                      A                      A
 Frequencies --    175.5877               184.3235               198.6434
 Red. masses --      6.2896                 3.4989                 2.7866
 Frc consts  --      0.1143                 0.0700                 0.0648
 IR Inten    --      6.3342                 1.3709                 1.0602

                     13                     14                     15
                      A                      A                      A
 Frequencies --    228.2739               248.2499               274.9814
 Red. masses --      1.6676                 2.2243                 1.5467
 Frc consts  --      0.0512                 0.0808                 0.0689
 IR Inten    --      2.1583                 3.5851                 1.1161

                     16                     17                     18
                      A                      A                      A
 Frequencies --    280.1218               289.4085               300.3027
 Red. masses --      2.2060                 2.0027                 1.4517
 Frc consts  --      0.1020                 0.0988                 0.0771
 IR Inten    --      0.9759                 0.3489                 0.5428

                     19                     20                     21
                      A                      A                      A
 Frequencies --    347.0426               357.1069               372.9853
 Red. masses --      5.8807                 2.4262                 5.6563
 Frc consts  --      0.4173                 0.1823                 0.4636
 IR Inten    --     16.4084                 0.3050                 2.7150

                     22                     23                     24
                      A                      A                      A
 Frequencies --    376.2917               392.7693               413.0872
 Red. masses --      2.8405                 2.5585                 3.2749
 Frc consts  --      0.2370                 0.2326                 0.3293
 IR Inten    --     10.1702                 2.0161                20.5188

                     25                     26                     27
                      A                      A                      A
 Frequencies --    457.5632               460.4148               461.7254
 Red. masses --      4.0779                 2.8025                 2.9430
 Frc consts  --      0.5030                 0.3500                 0.3697
 IR Inten    --      1.0859                 8.2149                10.0019

                     28                     29                     30
                      A                      A                      A
 Frequencies --    511.2259               554.0175               571.4205
 Red. masses --      1.6122                 2.2075                 2.6761
 Frc consts  --      0.2483                 0.3992                 0.5148
 IR Inten    --     11.1323                70.0648                11.7747

                     31                     32                     33
                      A                      A                      A
 Frequencies --    584.3365               608.9104               660.0790
 Red. masses --      2.1949                 4.8991                 1.9065
 Frc consts  --      0.4416                 1.0702                 0.4894
 IR Inten    --    174.0702                20.7632                42.7806

                     34                     35                     36
                      A                      A                      A
 Frequencies --    669.9980               681.6399               698.0668
 Red. masses --      1.5819                 2.0877                 3.2661
 Frc consts  --      0.4184                 0.5715                 0.9377
 IR Inten    --    105.1206                19.2434                43.2671

                     37                     38                     39
                      A                      A                      A
 Frequencies --    749.9979               769.0256               775.2873
 Red. masses --      1.5439                 1.4165                 2.0760
 Frc consts  --      0.5117                 0.4936                 0.7352
 IR Inten    --    135.2242                35.8802                 5.4833

                     40                     41                     42
                      A                      A                      A
 Frequencies --    787.6604               800.5699               813.8261
 Red. masses --      3.5997                 4.7079                 9.9498
 Frc consts  --      1.3158                 1.7778                 3.8826
 IR Inten    --     16.0420                31.1662                 2.1970

                     43                     44                     45
                      A                      A                      A
 Frequencies --    865.3941               934.3898               943.2414
 Red. masses --      3.1876                 1.7114                 1.7528
 Frc consts  --      1.4065                 0.8804                 0.9188
 IR Inten    --      1.9017                 0.2144                 2.7138

                     46                     47                     48
                      A                      A                      A
 Frequencies --    978.2693               981.1542              1011.8680
 Red. masses --      1.9873                 1.2031                 2.1298
 Frc consts  --      1.1206                 0.6824                 1.2848
 IR Inten    --      3.7697                 0.1393                14.3644

                     49                     50                     51
                      A                      A                      A
 Frequencies --   1019.8658              1020.7022              1065.5742
 Red. masses --      2.0173                 2.0340                 1.3929
 Frc consts  --      1.2363                 1.2485                 0.9318
 IR Inten    --      4.0827                10.0021                 1.8517

                     52                     53                     54
                      A                      A                      A
 Frequencies --   1074.0635              1112.9462              1173.4469
 Red. masses --      1.4526                 3.0152                 4.1502
 Frc consts  --      0.9873                 2.2005                 3.3670
 IR Inten    --      1.5013                29.0039                19.2941

                     55                     56                     57
                      A                      A                      A
 Frequencies --   1244.2285              1256.6736              1263.3557
 Red. masses --      2.2556                 1.4341                 1.8770
 Frc consts  --      2.0574                 1.3344                 1.7651
 IR Inten    --     34.8528               151.6321                 8.2559

                     58                     59                     60
                      A                      A                      A
 Frequencies --   1271.1102              1281.8698              1312.0944
 Red. masses --      1.5147                 2.4775                 1.4256
 Frc consts  --      1.4419                 2.3985                 1.4461
 IR Inten    --     23.2038                48.5434                58.0289

                     61                     62                     63
                      A                      A                      A
 Frequencies --   1327.9610              1351.6971              1390.4442
 Red. masses --      1.7466                 2.2711                 1.5283
 Frc consts  --      1.8147                 2.4448                 1.7409
 IR Inten    --     81.0058                29.7734                38.1802

                     64                     65                     66
                      A                      A                      A
 Frequencies --   1416.3273              1430.7963              1432.6574
 Red. masses --      2.3642                 1.2440                 1.2320
 Frc consts  --      2.7942                 1.5004                 1.4899
 IR Inten    --    290.6528                 4.4304                10.6316

                     67                     68                     69
                      A                      A                      A
 Frequencies --   1458.1076              1467.4511              1475.8861
 Red. masses --      1.2556                 2.1841                 2.7475
 Frc consts  --      1.5728                 2.7711                 3.5261
 IR Inten    --     37.6723                84.5455               209.6471

                     70                     71                     72
                      A                      A                      A
 Frequencies --   1486.3232              1502.1867              1505.3910
 Red. masses --      1.4153                 1.9495                 1.2143
 Frc consts  --      1.8422                 2.5919                 1.6213
 IR Inten    --      6.0189               156.2439                 3.4909

                     73                     74                     75
                      A                      A                      A
 Frequencies --   1509.5597              1514.1635              1519.5309
 Red. masses --      1.1026                 1.0540                 1.0773
 Frc consts  --      1.4804                 1.4238                 1.4655
 IR Inten    --     11.9947                 2.7496                 9.5183

                     76                     77                     78
                      A                      A                      A
 Frequencies --   1525.8248              1530.9288              1537.9842
 Red. masses --      1.4106                 1.8240                 1.0977
 Frc consts  --      1.9350                 2.5187                 1.5298
 IR Inten    --     39.6722                28.3808                 4.0573

                     79                     80                     81
                      A                      A                      A
 Frequencies --   1544.0486              1556.8711              1673.2205
 Red. masses --      1.0672                 1.0587                 1.4108
 Frc consts  --      1.4991                 1.5120                 2.3272
 IR Inten    --      2.8301                11.0123               294.2423

                     82                     83                     84
                      A                      A                      A
 Frequencies --   1738.3309              1762.5020              1773.4264
 Red. masses --      6.1519                 7.8037                 6.9733
 Frc consts  --     10.9527                14.2827                12.9215
 IR Inten    --    939.9788               151.9418               327.9590

                     85                     86                     87
                      A                      A                      A
 Frequencies --   3050.8451              3059.0348              3067.4999
 Red. masses --      1.0370                 1.0357                 1.0385
 Frc consts  --      5.6870                 5.7100                 5.7575
 IR Inten    --     20.0361                18.2206                 4.6645

                     88                     89                     90
                      A                      A                      A
 Frequencies --   3078.3748              3118.7032              3121.2838
 Red. masses --      1.0679                 1.1012                 1.0584
 Frc consts  --      5.9624                 6.3105                 6.0755
 IR Inten    --     30.5624                16.1418                 9.0080

                     91                     92                     93
                      A                      A                      A
 Frequencies --   3127.8568              3131.1124              3136.0906
 Red. masses --      1.1026                 1.1027                 1.1024
 Frc consts  --      6.3558                 6.3694                 6.3879
 IR Inten    --     17.2775                13.0477                37.2398

                     94                     95                     96
                      A                      A                      A
 Frequencies --   3142.9803              3151.8306              3155.9821
 Red. masses --      1.1018                 1.0968                 1.0971
 Frc consts  --      6.4128                 6.4197                 6.4380
 IR Inten    --     39.6809                11.8194                10.9805

                     97                     98                     99
                      A                      A                      A
 Frequencies --   3177.0281              3414.1134              3513.9018
 Red. masses --      1.1091                 1.0608                 1.0752
 Frc consts  --      6.5960                 7.2855                 7.8219
 IR Inten    --      3.5351               663.3017               171.4974

                    100                    101                    102
                      A                      A                      A
 Frequencies --   3572.2165              3574.4561              3654.1405
 Red. masses --      1.0756                 1.0753                 1.0919
 Frc consts  --      8.0866                 8.0947                 8.5906
 IR Inten    --     36.8688                22.1727               100.6328

 - Thermochemistry -
 -------------------
 Temperature   298.150 Kelvin.  Pressure   1.00000 Atm.
 Atom     1 has atomic number  6 and mass  12.00000

 Molecular mass:   274.10996 amu.
 Principal axes and moments of inertia in atomic units:
                           1         2         3
     Eigenvalues --  1817.17474********************
           X            0.99990  -0.01430  -0.00080
           Y            0.01429   0.99979  -0.01444
           Z            0.00101   0.01442   0.99990
 This molecule is an asymmetric top.
 Rotational symmetry number  1.
 Warning -- assumption of classical behavior for rotation
           may cause significant error
 Rotational temperatures (Kelvin)      0.04766     0.00622     0.00579
 Rotational constants (GHZ):           0.99316     0.12954     0.12074
 Zero-point vibrational energy     784315.9 (Joules/Mol)
                                  187.45601 (Kcal/Mol)
 Warning -- explicit consideration of  32 degrees of freedom as
           vibrations may cause significant error
 Vibrational temperatures:     23.82    41.22    44.67    60.53    86.25
          (Kelvin)            117.23   132.45   161.72   171.10   252.63
                              265.20   285.80   328.44   357.18   395.64
                              403.03   416.39   432.07   499.32   513.80
                              536.64   541.40   565.11   594.34   658.33
                              662.43   664.32   735.54   797.11   822.15
                              840.73   876.09   949.71   963.98   980.73
                             1004.36  1079.08  1106.46  1115.47  1133.27
                             1151.84  1170.91  1245.11  1344.38  1357.11
                             1407.51  1411.66  1455.85  1467.36  1468.56
                             1533.12  1545.34  1601.28  1688.33  1790.17
                             1808.07  1817.69  1828.84  1844.32  1887.81
                             1910.64  1944.79  2000.54  2037.78  2058.60
                             2061.27  2097.89  2111.33  2123.47  2138.49
                             2161.31  2165.92  2171.92  2178.54  2186.27
                             2195.32  2202.67  2212.82  2221.54  2239.99
                             2407.39  2501.07  2535.85  2551.57  4389.49
                             4401.27  4413.45  4429.09  4487.12  4490.83
                             4500.29  4504.97  4512.13  4522.05  4534.78
                             4540.75  4571.03  4912.15  5055.72  5139.62
                             5142.85  5257.49

 Zero-point correction=                           0.298730 (Hartree/Particle)
 Thermal correction to Energy=                    0.318623
 Thermal correction to Enthalpy=                  0.319568
 Thermal correction to Gibbs Free Energy=         0.247799
 Sum of electronic and zero-point Energies=          -1234.589415
 Sum of electronic and thermal Energies=             -1234.569521
 Sum of electronic and thermal Enthalpies=           -1234.568577
 Sum of electronic and thermal Free Energies=        -1234.640346

                     E (Thermal)             CV                S
                      KCal/Mol        Cal/Mol-Kelvin    Cal/Mol-Kelvin
 Total                  199.939             73.045            151.050
 Electronic               0.000              0.000              0.000
 Translational            0.889              2.981             42.724
 Rotational               0.889              2.981             34.292
 Vibrational            198.162             67.083             74.035
 Vibration     1          0.593              1.986              7.010
 Vibration     2          0.593              1.984              5.921
 Vibration     3          0.594              1.983              5.761
 Vibration     4          0.595              1.980              5.159
 Vibration     5          0.597              1.973              4.459
 Vibration     6          0.600              1.962              3.855
 Vibration     7          0.602              1.955              3.616
 Vibration     8          0.607              1.939              3.227
 Vibration     9          0.609              1.934              3.118
 Vibration    10          0.628              1.872              2.375
 Vibration    11          0.631              1.861              2.284
 Vibration    12          0.637              1.842              2.146
 Vibration    13          0.651              1.798              1.892
 Vibration    14          0.662              1.766              1.743
 Vibration    15          0.677              1.720              1.565
 Vibration    16          0.680              1.710              1.533
 Vibration    17          0.686              1.693              1.477
 Vibration    18          0.693              1.673              1.415
 Vibration    19          0.725              1.581              1.180
 Vibration    20          0.732              1.561              1.135
 Vibration    21          0.744              1.528              1.067
 Vibration    22          0.747              1.521              1.054
 Vibration    23          0.760              1.486              0.990
 Vibration    24          0.777              1.442              0.916
 Vibration    25          0.816              1.344              0.773
 Vibration    26          0.818              1.338              0.765
 Vibration    27          0.819              1.335              0.761
 Vibration    28          0.866              1.225              0.631
 Vibration    29          0.909              1.131              0.536
 Vibration    30          0.928              1.093              0.502
 Vibration    31          0.941              1.065              0.477
 Vibration    32          0.968              1.013              0.435

                           ! Non-Optimized Parameters !
 Normal termination of Gaussian 16 at Fri Dec 11 21:51:29 2020.

 ----------------------------------------------------------------------
 # B3LYP/6-311++G(d,p) empiricaldispersion=gd3bj scf=xqc pop=npa geom=c
 heck
 ----------------------------------------------------------------------

 ---------------------------------------
 CID_115356318_JID_8895_Energie_neutraal
 ---------------------------------------
 Structure from the checkpoint file:  "JID_8895.chk"
 Charge =  0 Multiplicity = 1

 SCF Done:  E(RB3LYP) =  -1235.17374314     A.U. after   15 cycles
 Normal termination of Gaussian 16 at Fri Dec 11 21:58:17 2020.

 ----------------------------------------------------------------------
 # B3LYP/6-311++G(d,p) empiricaldispersion=gd3bj scf=xqc pop=npa geom=c
 heck
 ----------------------------------------------------------------------

 -------------------------------------
 CID_115356318_JID_8895_Energie_kation
 -------------------------------------
 Structure from the checkpoint file:  "JID_8895.chk"
 Charge =  1 Multiplicity = 2

 SCF Done:  E(UB3LYP) =  -1234.87926234     A.U. after   28 cycles
 Normal termination of Gaussian 16 at Fri Dec 11 22:17:04 2020.
 Gaussian 16:  ES64L-G16RevA.03 25-Dec-2016

 ----------------------------------------------------------------------
 # B3LYP/6-311++G(d,p) empiricaldispersion=gd3bj scf=xqc pop=npa geom=c
 heck
 ----------------------------------------------------------------------

 ------------------------------------
 CID_115356318_JID_8895_Energie_anion
 ------------------------------------
 Structure from the checkpoint file:  "JID_8895.chk"
 Charge = -1 Multiplicity = 2

                         Standard orientation:
 ---------------------------------------------------------------------
 Center     Atomic      Atomic             Coordinates (Angstroms)
 Number     Number       Type             X           Y           Z
 ---------------------------------------------------------------------
      1          6           0        4.392826   -0.871076   -1.534364
      2          6           0        4.459681   -0.709354   -0.005507
      3          6           0        3.674577   -1.829279    0.697801
      4          6           0        5.925305   -0.774863    0.453442
      5          7           0        3.989653    0.640061    0.397709
      6          6           0        2.774417    1.247032    0.320782
      7          8           0        2.658407    2.463770    0.459307
      8          6           0        1.535543    0.377731    0.106220
      9          7           0        0.401723    1.271264   -0.026282
     10          6           0       -0.890975    0.964411   -0.211781
     11          8           0       -1.765380    1.833210   -0.331906
     12          6           0       -1.217202   -0.535736   -0.334491
     13          8           0       -0.473489   -1.279928   -0.969518
     14          7           0       -2.349931   -0.980770    0.264485
     15          6           0       -3.383871   -0.253470    0.995956
     16          6           0       -4.607957   -0.007478    0.109456
     17         16           0       -5.971717   -0.953755    0.236685
     18          7           0       -4.436282    0.982980   -0.770025
     19          1           0        4.792050   -1.846949   -1.831326
     20          1           0        4.981921   -0.092505   -2.029928
     21          1           0        3.364801   -0.806620   -1.902703
     22          1           0        4.197422   -2.779927    0.551847
     23          1           0        3.608441   -1.637486    1.773540
     24          1           0        2.666207   -1.955384    0.297528
     25          1           0        6.520600    0.017951   -0.015460
     26          1           0        5.998313   -0.668842    1.540990
     27          1           0        6.366165   -1.734624    0.169684
     28          1           0        4.722957    1.331146    0.512095
     29          1           0        1.630439   -0.251197   -0.779154
     30          1           0        1.413307   -0.292199    0.963932
     31          1           0        0.641675    2.258657    0.050804
     32          1           0       -2.554218   -1.952291    0.053078
     33          1           0       -3.689826   -0.855965    1.851077
     34          1           0       -2.969697    0.691309    1.349530
     35          1           0       -3.542319    1.478243   -0.811182
     36          1           0       -5.167262    1.178109   -1.440652
 ---------------------------------------------------------------------

 SCF Done:  E(UB3LYP) =  -1235.18360235     A.U. after   33 cycles
 SCF Done:  E(UB3LYP) =  -1235.18360235     a.u. after    1 cycles

 The electronic state is 2-A.
 Alpha  occ. eigenvalues --  -88.68405 -19.01213 -18.98407 -18.97608 -14.25743
 Alpha  occ. eigenvalues --  -14.23390 -14.23291 -14.22964 -10.19719 -10.16315
 Alpha  occ. eigenvalues --  -10.15720 -10.15645 -10.14015 -10.12406 -10.11327
 Alpha  occ. eigenvalues --  -10.09433 -10.09019 -10.08810  -7.77178  -5.73525
 Alpha  occ. eigenvalues --   -5.73099  -5.72703  -0.96521  -0.94452  -0.91940
 Alpha  occ. eigenvalues --   -0.85225  -0.84456  -0.82521  -0.81085  -0.72544
 Alpha  occ. eigenvalues --   -0.65367  -0.65131  -0.62353  -0.62046  -0.59390
 Alpha  occ. eigenvalues --   -0.55984  -0.53378  -0.49037  -0.48967  -0.47468
 Alpha  occ. eigenvalues --   -0.43487  -0.42155  -0.41162  -0.39999  -0.39391
 Alpha  occ. eigenvalues --   -0.39034  -0.37612  -0.37536  -0.36052  -0.35085
 Alpha  occ. eigenvalues --   -0.33667  -0.33258  -0.32882  -0.31872  -0.31815
 Alpha  occ. eigenvalues --   -0.30872  -0.30599  -0.30240  -0.29484  -0.29216
 Alpha  occ. eigenvalues --   -0.27414  -0.26931  -0.26617  -0.25729  -0.24994
 Alpha  occ. eigenvalues --   -0.19523  -0.18888  -0.18273  -0.16045  -0.15805
 Alpha  occ. eigenvalues --   -0.13816  -0.12682  -0.10453   0.03079
 Alpha virt. eigenvalues --    0.04329   0.06543   0.06862   0.07067   0.07587
 Alpha virt. eigenvalues --    0.08447   0.09046   0.09339   0.09559   0.10066
 Alpha virt. eigenvalues --    0.10245   0.11013   0.11206   0.11532   0.12685

  Beta  occ. eigenvalues --  -88.68391 -19.01197 -18.98205 -18.97372 -14.25736
  Beta  occ. eigenvalues --  -14.23331 -14.23238 -14.22894 -10.19715 -10.16163
  Beta  occ. eigenvalues --  -10.15720 -10.15465 -10.13789 -10.12402 -10.11345
  Beta  occ. eigenvalues --  -10.09397 -10.09004 -10.08792  -7.77165  -5.73525
  Beta  occ. eigenvalues --   -5.73046  -5.72695  -0.96490  -0.94072  -0.91566
  Beta  occ. eigenvalues --   -0.85210  -0.84234  -0.82348  -0.80887  -0.72523
  Beta  occ. eigenvalues --   -0.65149  -0.65004  -0.62309  -0.61988  -0.59250
  Beta  occ. eigenvalues --   -0.55547  -0.53309  -0.48926  -0.48842  -0.47311
  Beta  occ. eigenvalues --   -0.43411  -0.42109  -0.40923  -0.39886  -0.39247
  Beta  occ. eigenvalues --   -0.38957  -0.37539  -0.37385  -0.36008  -0.34883
  Beta  occ. eigenvalues --   -0.33399  -0.33134  -0.32768  -0.31791  -0.31417
  Beta  occ. eigenvalues --   -0.30674  -0.30380  -0.30177  -0.29421  -0.28836
  Beta  occ. eigenvalues --   -0.27248  -0.26767  -0.26141  -0.25056  -0.24680
  Beta  occ. eigenvalues --   -0.19236  -0.18828  -0.18193  -0.15439  -0.15208
  Beta  occ. eigenvalues --   -0.13484  -0.12238  -0.10395
  Beta virt. eigenvalues --    0.04970   0.06979   0.07258   0.07350   0.07844
  Beta virt. eigenvalues --    0.08388   0.08498   0.09323   0.09469   0.09606
  Beta virt. eigenvalues --    0.10087   0.10297   0.10984   0.11292   0.11591

 Mulliken charges and spin densities:
               1          2
     1  C   -0.074832  -0.422601
     2  C   -1.136240   0.977036
     3  C    0.195571  -0.643432
     4  C    0.587210  -1.008865
     5  N   -0.127624   0.004278
     6  C    0.141257  -0.112534
     7  O   -0.328370   0.004100
     8  C   -0.224165  -0.176158
     9  N   -0.203259   0.016042
    10  C   -0.058344   0.159158
    11  O   -0.371510   0.062004
    12  C   -0.028142   0.216684
    13  O   -0.360143   0.076179
    14  N   -0.064403  -0.036972
    15  C   -0.263704  -0.035295
    16  C    0.298561   0.121239
    17  S   -0.811640   0.041552
    18  N   -0.287028   0.038567
    19  H    0.003687   0.136940
    20  H    0.053584   0.104445
    21  H    0.154481   0.008512
    22  H    0.066159   0.089494
    23  H    0.015768   0.151858
    24  H    0.211162  -0.011343
    25  H   -0.219562   0.359435
    26  H   -0.132014   0.301983
    27  H   -0.134672   0.286016
    28  H    0.236136   0.075447
    29  H    0.174873   0.062672
    30  H    0.159867   0.096238
    31  H    0.330755  -0.011856
    32  H    0.270804   0.009154
    33  H    0.129117   0.035490
    34  H    0.180331   0.021297
    35  H    0.369774   0.006238
    36  H    0.246552  -0.003001
 Sum of Mulliken charges =  -1.00000   1.00000

 Dipole moment (field-independent basis, Debye):
    X=              4.3145    Y=              0.2195    Z=             -0.1603  Tot=              4.3231
 Quadrupole moment (field-independent basis, Debye-Ang):
   XX=           -244.1715   YY=           -148.3873   ZZ=           -132.2090
   XY=            -10.0042   XZ=              0.5210   YZ=             -3.8216

 Summary of Natural Population Analysis:

                                       Natural Population
                Natural  -----------------------------------------------
    Atom  No    Charge         Core      Valence    Rydberg      Total
 -----------------------------------------------------------------------
      C    1   -0.28988      0.99961     2.28358    0.00668     3.28988
      C    2    0.05673      0.99959     1.93249    0.01119     2.94327
      C    3   -0.29335      0.99961     2.28649    0.00725     3.29335
      C    4   -0.28702      0.99962     2.28020    0.00720     3.28702
      N    5   -0.32444      0.99964     2.81371    0.01109     3.82444
      C    6    0.34698      0.99968     1.63235    0.02100     2.65302
      O    7   -0.32923      0.99988     3.32339    0.00597     4.32923
      C    8   -0.13596      0.99958     2.12788    0.00850     3.13596
      N    9   -0.30085      0.99965     2.79201    0.00919     3.80085
      C   10    0.33276      0.99963     1.64593    0.02168     2.66724
      O   11   -0.33127      0.99987     3.32500    0.00640     4.33127
      C   12    0.32779      0.99964     1.65005    0.02252     2.67221
      O   13   -0.31001      0.99988     3.30373    0.00640     4.31001
      N   14   -0.30421      0.99967     2.79420    0.01034     3.80421
      C   15   -0.11635      0.99955     2.10550    0.01130     3.11635
      C   16    0.08736      0.99967     1.89316    0.01981     2.91264
      S   17   -0.13525      4.99953     3.12033    0.01539     8.13525
      N   18   -0.37001      0.99965     2.86035    0.01001     3.87001
      H   19    0.10213      0.00000     0.39716    0.00071     0.39787
      H   20    0.10181      0.00000     0.39739    0.00080     0.39819
      H   21    0.10397      0.00000     0.39504    0.00099     0.39603
      H   22    0.10314      0.00000     0.39614    0.00072     0.39686
      H   23    0.10481      0.00000     0.39438    0.00081     0.39519
      H   24    0.10808      0.00000     0.39077    0.00115     0.39192
      H   25    0.10023      0.00000     0.39859    0.00118     0.39977
      H   26    0.10457      0.00000     0.39433    0.00110     0.39543
      H   27    0.10563      0.00000     0.39329    0.00109     0.39437
      H   28    0.19415      0.00000     0.30330    0.00255     0.30585
      H   29    0.11826      0.00000     0.37988    0.00186     0.38174
      H   30    0.10960      0.00000     0.38881    0.00160     0.39040
      H   31    0.20570      0.00000     0.29086    0.00344     0.29430
      H   32    0.19172      0.00000     0.30545    0.00283     0.30828
      H   33    0.10393      0.00000     0.39443    0.00164     0.39607
      H   34    0.11365      0.00000     0.38425    0.00209     0.38635
      H   35    0.21595      0.00000     0.28195    0.00210     0.28405
      H   36    0.18889      0.00000     0.30886    0.00225     0.31111
 =======================================================================
   * Total *    0.00000     21.99395    50.76522    0.24083    73.00000

 Normal termination of Gaussian 16 at Fri Dec 11 22:38:08 2020.
