 Gaussian 16, Revision A.03,

 -----------------------------------------------------------
 # opt freq B3LYP/6-31G(d) empiricaldispersion=gd3bj scf=xqc
 -----------------------------------------------------------

 -------------------------------
 CID_131095387_JID_3765_neutraal
 -------------------------------
 Symbolic Z-matrix:
 Charge =  0 Multiplicity = 1

 SCF Done:  E(RB3LYP) =  -646.035474293     A.U. after   15 cycles
 SCF Done:  E(RB3LYP) =  -646.041798802     A.U. after   12 cycles
 SCF Done:  E(RB3LYP) =  -646.042796312     A.U. after   12 cycles
 SCF Done:  E(RB3LYP) =  -646.042304406     A.U. after   12 cycles
 SCF Done:  E(RB3LYP) =  -646.043062737     A.U. after   11 cycles
 SCF Done:  E(RB3LYP) =  -646.043091714     A.U. after   10 cycles
 SCF Done:  E(RB3LYP) =  -646.043100242     A.U. after   10 cycles
 SCF Done:  E(RB3LYP) =  -646.043101865     A.U. after    8 cycles
 SCF Done:  E(RB3LYP) =  -646.043102638     A.U. after    8 cycles
 SCF Done:  E(RB3LYP) =  -646.043102798     A.U. after    8 cycles
 SCF Done:  E(RB3LYP) =  -646.049116067     A.U. after   11 cycles
 SCF Done:  E(RB3LYP) =  -646.049228793     A.U. after   11 cycles
 SCF Done:  E(RB3LYP) =  -646.049240952     A.U. after   10 cycles
 SCF Done:  E(RB3LYP) =  -646.049242865     A.U. after   10 cycles
 SCF Done:  E(RB3LYP) =  -646.049243099     A.U. after    8 cycles
 Optimization completed.
    -- Stationary point found.
 Normal termination of Gaussian 16 at Mon Dec 14 18:48:25 2020.

 --------------------------------------------------------------------
 #N Geom=AllCheck Guess=TCheck SCRF=Check GenChk RB3LYP/6-31G(d) Freq
 --------------------------------------------------------------------

 Structure from the checkpoint file:  "JID_3765.chk"
 -------------------------------
 CID_131095387_JID_3765_neutraal
 -------------------------------
 Charge =  0 Multiplicity = 1

 SCF Done:  E(RB3LYP) =  -646.049243099     A.U. after    1 cycles

  Exact polarizability: 142.879  -0.388 132.596  -0.489   0.643  49.620
 Approx polarizability: 203.953  -7.671 218.196  -2.469   4.442  74.357

                      1                      2                      3
                      A                      A                      A
 Frequencies --     44.3501                95.3451                99.9426
 Red. masses --      5.9390                 3.8788                 3.0019
 Frc consts  --      0.0069                 0.0208                 0.0177
 IR Inten    --      2.2465                 2.6789                 6.9348

                      4                      5                      6
                      A                      A                      A
 Frequencies --    118.2086               141.7571               182.5838
 Red. masses --      4.2365                 1.1700                 2.7526
 Frc consts  --      0.0349                 0.0139                 0.0541
 IR Inten    --      0.7184                 0.4829                11.9479

                      7                      8                      9
                      A                      A                      A
 Frequencies --    209.5487               237.7923               240.9807
 Red. masses --      3.5877                 3.6120                 4.0095
 Frc consts  --      0.0928                 0.1203                 0.1372
 IR Inten    --      8.3657                 3.3282                 1.4016

                     10                     11                     12
                      A                      A                      A
 Frequencies --    287.5576               295.7243               344.9255
 Red. masses --      2.0059                 3.5718                 1.1265
 Frc consts  --      0.0977                 0.1840                 0.0790
 IR Inten    --     44.6311                16.3450               118.8373

                     13                     14                     15
                      A                      A                      A
 Frequencies --    348.9428               394.0587               450.2058
 Red. masses --      3.9043                 5.6234                 5.9312
 Frc consts  --      0.2801                 0.5145                 0.7083
 IR Inten    --     18.3892                17.2337                 1.8333

                     16                     17                     18
                      A                      A                      A
 Frequencies --    503.5885               527.7108               559.8360
 Red. masses --      4.8529                 5.5461                 4.7724
 Frc consts  --      0.7251                 0.9100                 0.8813
 IR Inten    --     10.5855                 6.3554                10.5306

                     19                     20                     21
                      A                      A                      A
 Frequencies --    589.1651               627.7403               679.3687
 Red. masses --      2.3986                 4.3526                 2.3552
 Frc consts  --      0.4906                 1.0106                 0.6405
 IR Inten    --     56.1436                23.6675                11.3185

                     22                     23                     24
                      A                      A                      A
 Frequencies --    699.8620               773.4619               783.8241
 Red. masses --      2.1524                 4.7814                 4.6849
 Frc consts  --      0.6211                 1.6853                 1.6959
 IR Inten    --     45.2450                24.3046                26.1504

                     25                     26                     27
                      A                      A                      A
 Frequencies --    815.3175               883.7843               899.2719
 Red. masses --      1.6906                 1.4353                 1.4465
 Frc consts  --      0.6621                 0.6605                 0.6892
 IR Inten    --     37.3851                 3.5165                19.4440

                     28                     29                     30
                      A                      A                      A
 Frequencies --    907.6706               951.7117              1007.3971
 Red. masses --      2.3317                 2.9311                 3.7546
 Frc consts  --      1.1318                 1.5642                 2.2450
 IR Inten    --    106.9569                64.3143                14.4903

                     31                     32                     33
                      A                      A                      A
 Frequencies --   1015.6756              1051.9561              1126.5411
 Red. masses --      5.7349                 4.3535                 1.7820
 Frc consts  --      3.4857                 2.8385                 1.3325
 IR Inten    --      0.5570                55.4802                20.2619

                     34                     35                     36
                      A                      A                      A
 Frequencies --   1156.9272              1186.7657              1212.3740
 Red. masses --      1.9229                 1.2743                 1.4005
 Frc consts  --      1.5164                 1.0574                 1.2128
 IR Inten    --     27.3259                 0.7930               101.8889

                     37                     38                     39
                      A                      A                      A
 Frequencies --   1223.6441              1238.4525              1279.3127
 Red. masses --      1.4709                 2.0105                 3.4517
 Frc consts  --      1.2976                 1.8168                 3.3285
 IR Inten    --      1.1932                27.3531               448.5377

                     40                     41                     42
                      A                      A                      A
 Frequencies --   1312.9306              1332.8732              1377.7204
 Red. masses --      1.4049                 1.2126                 4.2460
 Frc consts  --      1.4269                 1.2693                 4.7484
 IR Inten    --    182.8531                37.3695                73.7649

                     43                     44                     45
                      A                      A                      A
 Frequencies --   1406.2919              1474.0558              1493.1740
 Red. masses --      6.2139                 2.3973                 1.2428
 Frc consts  --      7.2404                 3.0691                 1.6325
 IR Inten    --    122.4372                18.6996                22.5881

                     46                     47                     48
                      A                      A                      A
 Frequencies --   1511.8694              1525.7625              1538.4003
 Red. masses --      1.0482                 1.0498                 2.9373
 Frc consts  --      1.4117                 1.4399                 4.0958
 IR Inten    --      5.3197                 8.1858                28.7491

                     49                     50                     51
                      A                      A                      A
 Frequencies --   1558.6809              1662.1981              1672.4617
 Red. masses --      1.8020                 5.1968                 5.3775
 Frc consts  --      2.5794                 8.4596                 8.8623
 IR Inten    --     24.8134               251.1803                 9.6385

                     52                     53                     54
                      A                      A                      A
 Frequencies --   1717.8738              1801.6426              3072.7233
 Red. masses --      1.1528                11.7163                 1.0296
 Frc consts  --      2.0044                22.4068                 5.7273
 IR Inten    --     38.4896               206.8728                40.9881

                     55                     56                     57
                      A                      A                      A
 Frequencies --   3145.4210              3150.1323              3178.4767
 Red. masses --      1.1072                 1.0895                 1.1069
 Frc consts  --      6.4542                 6.3697                 6.5888
 IR Inten    --     23.2192                22.6006                18.7125

                     58                     59                     60
                      A                      A                      A
 Frequencies --   3249.4154              3278.6440              3430.3205
 Red. masses --      1.0912                 1.0900                 1.0532
 Frc consts  --      6.7885                 6.9035                 7.3016
 IR Inten    --      2.2684                 1.6861                14.9596

                     61                     62                     63
                      A                      A                      A
 Frequencies --   3484.7677              3563.2790              3753.4783
 Red. masses --      1.0752                 1.0905                 1.0659
 Frc consts  --      7.6932                 8.1577                 8.8477
 IR Inten    --      6.1528                 1.7335                36.2925

 - Thermochemistry -
 -------------------
 Temperature   298.150 Kelvin.  Pressure   1.00000 Atm.
 Atom     1 has atomic number  6 and mass  12.00000

 Molecular mass:   182.06914 amu.
 Principal axes and moments of inertia in atomic units:
                           1         2         3
     Eigenvalues --  1851.591843123.527614944.75605
           X            0.99999   0.00449   0.00221
           Y           -0.00448   0.99998  -0.00400
           Z           -0.00223   0.00399   0.99999
 This molecule is an asymmetric top.
 Rotational symmetry number  1.
 Warning -- assumption of classical behavior for rotation
           may cause significant error
 Rotational temperatures (Kelvin)      0.04678     0.02773     0.01752
 Rotational constants (GHZ):           0.97470     0.57779     0.36498
 Zero-point vibrational energy     477823.7 (Joules/Mol)
                                  114.20259 (Kcal/Mol)
 Warning -- explicit consideration of  19 degrees of freedom as
           vibrations may cause significant error
 Vibrational temperatures:     63.81   137.18   143.80   170.08   203.96
          (Kelvin)            262.70   301.49   342.13   346.72   413.73
                              425.48   496.27   502.05   566.96   647.75
                              724.55   759.26   805.48   847.68   903.18
                              977.46  1006.95  1112.84  1127.75  1173.06
                             1271.57  1293.85  1305.94  1369.30  1449.42
                             1461.33  1513.53  1620.84  1664.56  1707.49
                             1744.34  1760.55  1781.86  1840.65  1889.01
                             1917.71  1982.23  2023.34  2120.84  2148.34
                             2175.24  2195.23  2213.41  2242.59  2391.53
                             2406.30  2471.64  2592.16  4420.96  4525.56
                             4532.34  4573.12  4675.18  4717.24  4935.47
                             5013.80  5126.76  5400.42

 Zero-point correction=                           0.181993 (Hartree/Particle)
 Thermal correction to Energy=                    0.194713
 Thermal correction to Enthalpy=                  0.195657
 Thermal correction to Gibbs Free Energy=         0.142724
 Sum of electronic and zero-point Energies=           -645.867250
 Sum of electronic and thermal Energies=              -645.854530
 Sum of electronic and thermal Enthalpies=            -645.853586
 Sum of electronic and thermal Free Energies=         -645.906520

                     E (Thermal)             CV                S
                      KCal/Mol        Cal/Mol-Kelvin    Cal/Mol-Kelvin
 Total                  122.184             47.092            111.408
 Electronic               0.000              0.000              0.000
 Translational            0.889              2.981             41.504
 Rotational               0.889              2.981             31.725
 Vibrational            120.407             41.130             38.179
 Vibration     1          0.595              1.980              5.055
 Vibration     2          0.603              1.953              3.547
 Vibration     3          0.604              1.949              3.455
 Vibration     4          0.608              1.934              3.129
 Vibration     5          0.615              1.911              2.780
 Vibration     6          0.630              1.863              2.302
 Vibration     7          0.642              1.826              2.048
 Vibration     8          0.656              1.783              1.819
 Vibration     9          0.658              1.778              1.796
 Vibration    10          0.685              1.697              1.488
 Vibration    11          0.690              1.682              1.441
 Vibration    12          0.723              1.586              1.189
 Vibration    13          0.726              1.577              1.171
 Vibration    14          0.761              1.483              0.985
 Vibration    15          0.809              1.360              0.795
 Vibration    16          0.859              1.242              0.649
 Vibration    17          0.883              1.189              0.592
 Vibration    18          0.915              1.118              0.524
 Vibration    19          0.946              1.055              0.469

                           ! Non-Optimized Parameters !
 Normal termination of Gaussian 16 at Mon Dec 14 18:53:27 2020.

 ----------------------------------------------------------------------
 # B3LYP/6-311++G(d,p) empiricaldispersion=gd3bj scf=xqc pop=npa geom=c
 heck
 ----------------------------------------------------------------------

 ---------------------------------------
 CID_131095387_JID_3765_Energie_neutraal
 ---------------------------------------
 Structure from the checkpoint file:  "JID_3765.chk"
 Charge =  0 Multiplicity = 1

 SCF Done:  E(RB3LYP) =  -646.252334539     A.U. after   15 cycles
 Normal termination of Gaussian 16 at Mon Dec 14 18:55:32 2020.

 ----------------------------------------------------------------------
 # B3LYP/6-311++G(d,p) empiricaldispersion=gd3bj scf=xqc pop=npa geom=c
 heck
 ----------------------------------------------------------------------

 -------------------------------------
 CID_131095387_JID_3765_Energie_kation
 -------------------------------------
 Structure from the checkpoint file:  "JID_3765.chk"
 Charge =  1 Multiplicity = 2

 SCF Done:  E(UB3LYP) =  -645.969182519     A.U. after   24 cycles
 Normal termination of Gaussian 16 at Mon Dec 14 19:00:04 2020.
 Gaussian 16:  ES64L-G16RevA.03 25-Dec-2016

 ----------------------------------------------------------------------
 # B3LYP/6-311++G(d,p) empiricaldispersion=gd3bj scf=xqc pop=npa geom=c
 heck
 ----------------------------------------------------------------------

 ------------------------------------
 CID_131095387_JID_3765_Energie_anion
 ------------------------------------
 Structure from the checkpoint file:  "JID_3765.chk"
 Charge = -1 Multiplicity = 2

                         Standard orientation:
 ---------------------------------------------------------------------
 Center     Atomic      Atomic             Coordinates (Angstroms)
 Number     Number       Type             X           Y           Z
 ---------------------------------------------------------------------
      1          6           0        3.941700    0.945689    0.017421
      2          8           0        2.511308    0.865926    0.032397
      3          6           0        2.009265   -0.390908   -0.007032
      4          8           0        2.715169   -1.379436   -0.054375
      5          6           0        0.519195   -0.411873    0.014313
      6          6           0       -0.224751    0.771699    0.067751
      7          6           0       -1.621500    0.697926    0.083693
      8          6           0       -2.250219   -0.556833    0.039511
      9          6           0       -1.489500   -1.725708   -0.008259
     10          6           0       -0.096279   -1.664613   -0.023651
     11          8           0       -2.065982   -2.965671   -0.049886
     12          7           0       -2.421462    1.844462    0.192451
     13          7           0       -1.822403    3.071982   -0.157914
     14          1           0        4.175710    2.010089    0.054077
     15          1           0        4.343020    0.493660   -0.893724
     16          1           0        4.365013    0.427931    0.882425
     17          1           0        0.259326    1.736569    0.095676
     18          1           0       -3.338221   -0.617576    0.051647
     19          1           0        0.497501   -2.568830   -0.066439
     20          1           0       -3.029618   -2.865592   -0.015924
     21          1           0       -3.364163    1.704534   -0.162677
     22          1           0       -1.989489    3.303870   -1.138351
     23          1           0       -2.223445    3.801422    0.423958
 ---------------------------------------------------------------------

 SCF Done:  E(UB3LYP) =  -646.249948843     A.U. after   33 cycles
 SCF Done:  E(UB3LYP) =  -646.249948843     a.u. after    1 cycles

 The electronic state is 2-A.
 Alpha  occ. eigenvalues --  -19.04794 -19.03913 -18.97722 -14.22503 -14.21708
 Alpha  occ. eigenvalues --  -10.16367 -10.12479 -10.11126 -10.08868 -10.05286
 Alpha  occ. eigenvalues --  -10.04389 -10.03482 -10.03166  -0.98624  -0.94845
 Alpha  occ. eigenvalues --   -0.89318  -0.86781  -0.73577  -0.68311  -0.64205
 Alpha  occ. eigenvalues --   -0.60580  -0.59596  -0.52357  -0.48186  -0.45844
 Alpha  occ. eigenvalues --   -0.43125  -0.42240  -0.39376  -0.37497  -0.37178
 Alpha  occ. eigenvalues --   -0.36475  -0.35328  -0.34672  -0.32444  -0.30584
 Alpha  occ. eigenvalues --   -0.29945  -0.28484  -0.27277  -0.25273  -0.24557
 Alpha  occ. eigenvalues --   -0.23909  -0.23075  -0.19447  -0.17454  -0.15985
 Alpha  occ. eigenvalues --   -0.15388  -0.11587  -0.08554   0.04392
 Alpha virt. eigenvalues --    0.06416   0.07275   0.07509   0.09576   0.10551
 Alpha virt. eigenvalues --    0.10932   0.11575   0.11883   0.12591   0.13302
 Alpha virt. eigenvalues --    0.14164   0.15130   0.16133   0.17082   0.17270

  Beta  occ. eigenvalues --  -19.04751 -19.03901 -18.97562 -14.22460 -14.21668
  Beta  occ. eigenvalues --  -10.16224 -10.12481 -10.11128 -10.08872 -10.05200
  Beta  occ. eigenvalues --  -10.04272 -10.03426 -10.03088  -0.98463  -0.94817
  Beta  occ. eigenvalues --   -0.89074  -0.86715  -0.73427  -0.68155  -0.64035
  Beta  occ. eigenvalues --   -0.60461  -0.59407  -0.52069  -0.48095  -0.45729
  Beta  occ. eigenvalues --   -0.43036  -0.42103  -0.39328  -0.37267  -0.37040
  Beta  occ. eigenvalues --   -0.36395  -0.35221  -0.34492  -0.32341  -0.30500
  Beta  occ. eigenvalues --   -0.29638  -0.28026  -0.27216  -0.25205  -0.24443
  Beta  occ. eigenvalues --   -0.23751  -0.22933  -0.18955  -0.17072  -0.15869
  Beta  occ. eigenvalues --   -0.15266  -0.11026  -0.08138
  Beta virt. eigenvalues --    0.07286   0.07636   0.08099   0.08180   0.10515
  Beta virt. eigenvalues --    0.10894   0.11113   0.11611   0.11951   0.12788
  Beta virt. eigenvalues --    0.13406   0.14551   0.15174   0.16397   0.17139

 Mulliken charges and spin densities:
               1          2
     1  C   -0.217989  -0.016539
     2  O   -0.105164   0.006702
     3  C    0.259781  -0.302229
     4  O   -0.335442   0.055025
     5  C    1.184278  -0.081183
     6  C   -0.754296   0.972317
     7  C   -1.191166  -0.258757
     8  C    0.928810  -0.374947
     9  C    0.809285  -1.176955
    10  C   -0.795407   0.116840
    11  O   -0.277681   0.025265
    12  N   -0.034171  -0.038204
    13  N   -0.299038  -0.074084
    14  H    0.120561   0.001710
    15  H    0.156276   0.008391
    16  H    0.161345   0.001860
    17  H    0.280150  -0.005136
    18  H   -0.747407   0.859604
    19  H    0.166833   0.004375
    20  H    0.125330   0.137327
    21  H   -0.327290   0.576421
    22  H   -0.092902   0.310334
    23  H   -0.014695   0.251863
 Sum of Mulliken charges =  -1.00000   1.00000

 Dipole moment (field-independent basis, Debye):
    X=              6.0611    Y=             -0.0632    Z=              1.0155  Tot=              6.1459
 Quadrupole moment (field-independent basis, Debye-Ang):
   XX=           -125.1592   YY=           -114.5025   ZZ=            -91.2270
   XY=             18.1825   XZ=             -4.5727   YZ=              0.9650

 Summary of Natural Population Analysis:

                                       Natural Population
                Natural  -----------------------------------------------
    Atom  No    Charge         Core      Valence    Rydberg      Total
 -----------------------------------------------------------------------
      C    1   -0.10449      0.99961     2.09656    0.00832     3.10449
      O    2   -0.27654      0.99986     3.26924    0.00744     4.27654
      C    3    0.41873      0.99963     1.55834    0.02329     2.58127
      O    4   -0.30637      0.99987     3.30088    0.00561     4.30637
      C    5   -0.05030      0.99947     2.04155    0.00928     3.05030
      C    6   -0.11088      0.99949     2.10182    0.00957     3.11088
      C    7    0.08977      0.99949     1.89792    0.01282     2.91023
      C    8   -0.13745      0.99948     2.12796    0.01001     3.13745
      C    9    0.15784      0.99939     1.82910    0.01367     2.84216
      C   10   -0.11827      0.99949     2.10952    0.00926     3.11827
      O   11   -0.34577      0.99988     3.33959    0.00631     4.34577
      N   12   -0.23130      0.99967     2.71566    0.01597     3.73130
      N   13   -0.32320      0.99976     2.80978    0.01366     3.82320
      H   14    0.08522      0.00000     0.41398    0.00079     0.41478
      H   15    0.08787      0.00000     0.41096    0.00117     0.41213
      H   16    0.08760      0.00000     0.41123    0.00117     0.41240
      H   17    0.11722      0.00000     0.38097    0.00181     0.38278
      H   18    0.09699      0.00000     0.40123    0.00178     0.40301
      H   19    0.11117      0.00000     0.38774    0.00109     0.38883
      H   20    0.23175      0.00000     0.26552    0.00273     0.26825
      H   21    0.17675      0.00000     0.30974    0.01351     0.32325
      H   22    0.16869      0.00000     0.32870    0.00261     0.33131
      H   23    0.17500      0.00000     0.32301    0.00199     0.32500
 =======================================================================
   * Total *   -0.00000     12.99510    34.83101    0.17389    48.00000

 Normal termination of Gaussian 16 at Mon Dec 14 19:06:11 2020.
