 Gaussian 16, Revision A.03,

 -----------------------------------------------------------
 # opt freq B3LYP/6-31G(d) empiricaldispersion=gd3bj scf=xqc
 -----------------------------------------------------------

 ------------------------------
 CID_71330701_JID_2884_neutraal
 ------------------------------
 Symbolic Z-matrix:
 Charge =  0 Multiplicity = 1

 SCF Done:  E(RB3LYP) =  -614.150942260     A.U. after   14 cycles
 SCF Done:  E(RB3LYP) =  -614.156511249     A.U. after   14 cycles
 SCF Done:  E(RB3LYP) =  -614.156175682     A.U. after   15 cycles
 SCF Done:  E(RB3LYP) =  -614.157257158     A.U. after   13 cycles
 SCF Done:  E(RB3LYP) =  -614.157707258     A.U. after   14 cycles
 SCF Done:  E(RB3LYP) =  -614.158228501     A.U. after   13 cycles
 SCF Done:  E(RB3LYP) =  -614.151040090     A.U. after   14 cycles
 SCF Done:  E(RB3LYP) =  -614.157951343     A.U. after   13 cycles
 SCF Done:  E(RB3LYP) =  -614.158395046     A.U. after   10 cycles
 SCF Done:  E(RB3LYP) =  -614.158815241     A.U. after   12 cycles
 SCF Done:  E(RB3LYP) =  -614.163498108     A.U. after   10 cycles
 SCF Done:  E(RB3LYP) =  -614.163499173     A.U. after    9 cycles
 SCF Done:  E(RB3LYP) =  -614.163499417     A.U. after    8 cycles
 SCF Done:  E(RB3LYP) =  -614.163499590     A.U. after    7 cycles
 SCF Done:  E(RB3LYP) =  -614.163499639     A.U. after    7 cycles
 Optimization completed.
    -- Stationary point found.

 1\1\GINC-NODE120\FOpt\RB3LYP\6-31G(d)\C8H14O4\VSC10255\09-Dec-2020\0\\
 # opt freq B3LYP/6-31G(d) empiricaldispersion=gd3bj scf=xqc\\CID_71330
 701_JID_2884_neutraal\\0,1\C,0.4359254011,1.6553936764,-0.0180635965\C
 ,1.2869936619,1.0111042768,1.041625802\O,0.9787484314,0.8196668165,2.1
 949115117\O,2.5170038348,0.659827948,0.5618457186\C,2.9610413192,-2.33
 54204907,-2.4569583379\O,2.6198831104,-1.8060806148,-3.7316077933\C,2.
 575400433,-0.4593399302,-3.8386965943\C,2.8172534816,0.4548285852,-2.8
 788066172\C,2.6980213668,1.8792701438,-3.1220645767\C,2.9002383706,2.8

 Normal termination of Gaussian 16 at Wed Dec  9 18:45:38 2020.

 --------------------------------------------------------------------
 #N Geom=AllCheck Guess=TCheck SCRF=Check GenChk RB3LYP/6-31G(d) Freq
 --------------------------------------------------------------------

 Structure from the checkpoint file:  "JID_2884.chk"
 ------------------------------
 CID_71330701_JID_2884_neutraal
 ------------------------------
 Charge =  0 Multiplicity = 1

 SCF Done:  E(RB3LYP) =  -614.163499639     A.U. after    1 cycles

  Exact polarizability: 143.752 -12.188 102.435  -9.277  -4.783  75.778
 Approx polarizability: 219.520  -6.646 136.028 -28.508  -6.163 114.006

                      1                      2                      3
                      A                      A                      A
 Frequencies --     17.3617                31.0758                44.1056
 Red. masses --      7.4975                 7.3722                 3.4699
 Frc consts  --      0.0013                 0.0042                 0.0040
 IR Inten    --      0.8302                 0.5118                 0.3942

                      4                      5                      6
                      A                      A                      A
 Frequencies --     54.5682                72.8914                76.4072
 Red. masses --      3.2275                 6.8990                 3.9885
 Frc consts  --      0.0057                 0.0216                 0.0137
 IR Inten    --      1.4803                 1.2656                 3.8617

                      7                      8                      9
                      A                      A                      A
 Frequencies --     90.3002               107.2871               134.3896
 Red. masses --      4.0731                 4.3565                 2.6362
 Frc consts  --      0.0196                 0.0295                 0.0281
 IR Inten    --      1.4570                 1.9380                 3.8763

                     10                     11                     12
                      A                      A                      A
 Frequencies --    171.0578               215.5182               238.6687
 Red. masses --      2.5685                 1.1086                 1.4537
 Frc consts  --      0.0443                 0.0303                 0.0488
 IR Inten    --      0.3566                 2.3188                 0.4994

                     13                     14                     15
                      A                      A                      A
 Frequencies --    265.4765               282.0500               370.1884
 Red. masses --      2.5907                 1.5133                 2.7993
 Frc consts  --      0.1076                 0.0709                 0.2260
 IR Inten    --      1.2868                 1.2870                 1.2289

                     16                     17                     18
                      A                      A                      A
 Frequencies --    393.2670               412.5125               429.1261
 Red. masses --      1.6738                 2.1526                 2.9024
 Frc consts  --      0.1525                 0.2158                 0.3149
 IR Inten    --     85.5354                76.7724                 4.9579

                     19                     20                     21
                      A                      A                      A
 Frequencies --    448.7912               529.3584               552.8188
 Red. masses --      2.5332                 3.8933                 1.6609
 Frc consts  --      0.3006                 0.6428                 0.2991
 IR Inten    --     24.6880                41.5440                25.8729

                     22                     23                     24
                      A                      A                      A
 Frequencies --    585.8519               655.7546               691.0127
 Red. masses --      3.9620                 3.3256                 1.5068
 Frc consts  --      0.8012                 0.8426                 0.4239
 IR Inten    --     29.1356                28.9040                82.0915

                     25                     26                     27
                      A                      A                      A
 Frequencies --    839.3912               863.4845               881.7541
 Red. masses --      1.6201                 3.9600                 2.0123
 Frc consts  --      0.6725                 1.7396                 0.9218
 IR Inten    --      8.5099                 8.0509                 4.5837

                     28                     29                     30
                      A                      A                      A
 Frequencies --    946.9826               964.8414               979.1101
 Red. masses --      1.6594                 1.1177                 4.1345
 Frc consts  --      0.8768                 0.6130                 2.3353
 IR Inten    --     34.8394                 3.2646                23.5449

                     31                     32                     33
                      A                      A                      A
 Frequencies --   1015.1674              1019.1551              1035.1659
 Red. masses --      3.8786                 1.8421                 1.1142
 Frc consts  --      2.3550                 1.1273                 0.7035
 IR Inten    --     53.8819                94.9175                85.2153

                     34                     35                     36
                      A                      A                      A
 Frequencies --   1093.1398              1110.2809              1180.4664
 Red. masses --      1.7029                 2.7368                 1.5229
 Frc consts  --      1.1989                 1.9878                 1.2504
 IR Inten    --      9.9549                19.0612                17.2480

                     37                     38                     39
                      A                      A                      A
 Frequencies --   1187.7223              1194.4588              1223.3446
 Red. masses --      1.2812                 1.6320                 1.9603
 Frc consts  --      1.0649                 1.3719                 1.7285
 IR Inten    --      2.1333                48.9758               198.1612

                     40                     41                     42
                      A                      A                      A
 Frequencies --   1235.2406              1258.7196              1302.0040
 Red. masses --      1.8012                 2.1664                 1.4789
 Frc consts  --      1.6192                 2.0223                 1.4771
 IR Inten    --     68.7611               164.0551                40.2485

                     43                     44                     45
                      A                      A                      A
 Frequencies --   1346.6070              1350.3234              1359.4719
 Red. masses --      1.4586                 1.6366                 1.5133
 Frc consts  --      1.5583                 1.7582                 1.6479
 IR Inten    --     18.3547                23.6550                37.7242

                     46                     47                     48
                      A                      A                      A
 Frequencies --   1373.9057              1403.0272              1429.5144
 Red. masses --      1.2411                 1.2616                 1.2539
 Frc consts  --      1.3803                 1.4632                 1.5097
 IR Inten    --     22.3827                 1.7470                76.0983

                     49                     50                     51
                      A                      A                      A
 Frequencies --   1446.8860              1498.2930              1504.2558
 Red. masses --      1.3839                 1.1777                 1.0498
 Frc consts  --      1.7070                 1.5576                 1.3996
 IR Inten    --     51.8367                 4.8747                33.7200

                     52                     53                     54
                      A                      A                      A
 Frequencies --   1510.7671              1517.1867              1531.2543
 Red. masses --      1.0478                 1.0467                 1.0985
 Frc consts  --      1.4091                 1.4195                 1.5175
 IR Inten    --     11.5104                 6.4350                 3.4396

                     55                     56                     57
                      A                      A                      A
 Frequencies --   1533.8501              1698.2494              1731.5755
 Red. masses --      1.0481                 5.2616                 5.0342
 Frc consts  --      1.4529                 8.9406                 8.8934
 IR Inten    --     23.8393                95.8647               179.0729

                     58                     59                     60
                      A                      A                      A
 Frequencies --   1861.3825              3010.1605              3032.6499
 Red. masses --      9.1424                 1.0696                 1.0339
 Frc consts  --     18.6630                 5.7101                 5.6026
 IR Inten    --    332.3488                74.0530                37.1343

                     61                     62                     63
                      A                      A                      A
 Frequencies --   3068.5864              3092.7978              3096.2717
 Red. masses --      1.0387                 1.1065                 1.0944
 Frc consts  --      5.7628                 6.2358                 6.1815
 IR Inten    --      4.0544                38.5993                39.8558

                     64                     65                     66
                      A                      A                      A
 Frequencies --   3127.0468              3137.6277              3167.7616
 Red. masses --      1.0883                 1.0974                 1.1010
 Frc consts  --      6.2700                 6.3655                 6.5097
 IR Inten    --     22.0185                 4.3822                25.0239

                     67                     68                     69
                      A                      A                      A
 Frequencies --   3178.9768              3183.2966              3201.1722
 Red. masses --      1.0890                 1.1044                 1.0925
 Frc consts  --      6.4839                 6.5936                 6.5959
 IR Inten    --     10.2110                 5.8684                15.0272

                     70                     71                     72
                      A                      A                      A
 Frequencies --   3219.7406              3682.3522              3732.1018
 Red. masses --      1.0878                 1.0640                 1.0662
 Frc consts  --      6.6444                 8.5004                 8.7494
 IR Inten    --     10.1905                44.5078                 5.7182

 - Thermochemistry -
 -------------------
 Temperature   298.150 Kelvin.  Pressure   1.00000 Atm.
 Atom     1 has atomic number  6 and mass  12.00000

 Molecular mass:   174.08921 amu.
 Principal axes and moments of inertia in atomic units:
                           1         2         3
     Eigenvalues --  2456.672913353.821675355.99033
           X            0.99723  -0.07398   0.00728
           Y            0.07399   0.99726  -0.00103
           Z           -0.00719   0.00157   0.99997
 This molecule is an asymmetric top.
 Rotational symmetry number  1.
 Warning -- assumption of classical behavior for rotation
           may cause significant error
 Rotational temperatures (Kelvin)      0.03526     0.02583     0.01617
 Rotational constants (GHZ):           0.73463     0.53811     0.33696
 Zero-point vibrational energy     569586.1 (Joules/Mol)
                                  136.13435 (Kcal/Mol)
 Warning -- explicit consideration of  22 degrees of freedom as
           vibrations may cause significant error
 Vibrational temperatures:     24.98    44.71    63.46    78.51   104.87
          (Kelvin)            109.93   129.92   154.36   193.36   246.11
                              310.08   343.39   381.96   405.81   532.62
                              565.82   593.51   617.42   645.71   761.63
                              795.38   842.91   943.48   994.21  1207.70
                             1242.36  1268.65  1362.50  1388.19  1408.72
                             1460.60  1466.34  1489.37  1572.78  1597.45
                             1698.43  1708.87  1718.56  1760.12  1777.24
                             1811.02  1873.29  1937.47  1942.81  1955.98
                             1976.74  2018.64  2056.75  2081.75  2155.71
                             2164.29  2173.66  2182.89  2203.13  2206.87
                             2443.40  2491.35  2678.11  4330.95  4363.31
                             4415.01  4449.85  4454.84  4499.12  4514.35
                             4557.70  4573.84  4580.05  4605.77  4632.49
                             5298.08  5369.66

 Zero-point correction=                           0.216944 (Hartree/Particle)
 Thermal correction to Energy=                    0.232466
 Thermal correction to Enthalpy=                  0.233410
 Thermal correction to Gibbs Free Energy=         0.170789
 Sum of electronic and zero-point Energies=           -613.946556
 Sum of electronic and thermal Energies=              -613.931034
 Sum of electronic and thermal Enthalpies=            -613.930090
 Sum of electronic and thermal Free Energies=         -613.992710

                     E (Thermal)             CV                S
                      KCal/Mol        Cal/Mol-Kelvin    Cal/Mol-Kelvin
 Total                  145.874             52.094            131.796
 Electronic               0.000              0.000              0.000
 Translational            0.889              2.981             41.371
 Rotational               0.889              2.981             32.156
 Vibrational            144.097             46.132             58.269
 Vibration     1          0.593              1.986              6.915
 Vibration     2          0.594              1.983              5.760
 Vibration     3          0.595              1.980              5.066
 Vibration     4          0.596              1.976              4.645
 Vibration     5          0.599              1.967              4.074
 Vibration     6          0.599              1.965              3.981
 Vibration     7          0.602              1.956              3.654
 Vibration     8          0.606              1.943              3.317
 Vibration     9          0.613              1.919              2.882
 Vibration    10          0.626              1.878              2.424
 Vibration    11          0.645              1.817              1.996
 Vibration    12          0.657              1.781              1.813
 Vibration    13          0.671              1.736              1.625
 Vibration    14          0.681              1.707              1.521
 Vibration    15          0.742              1.533              1.079
 Vibration    16          0.760              1.485              0.988
 Vibration    17          0.776              1.443              0.918
 Vibration    18          0.790              1.407              0.862
 Vibration    19          0.808              1.364              0.799
 Vibration    20          0.884              1.185              0.589
 Vibration    21          0.908              1.134              0.538
 Vibration    22          0.943              1.062              0.475

                           ! Non-Optimized Parameters !

 1\1\GINC-NODE120\Freq\RB3LYP\6-31G(d)\C8H14O4\VSC10255\09-Dec-2020\0\\
 #N Geom=AllCheck Guess=TCheck SCRF=Check GenChk RB3LYP/6-31G(d) Freq\\
 CID_71330701_JID_2884_neutraal\\0,1\C,0.4359254011,1.6553936764,-0.018
 0635965\C,1.2869936619,1.0111042768,1.041625802\O,0.9787484314,0.81966
 68165,2.1949115117\O,2.5170038348,0.659827948,0.5618457186\C,2.9610413
 192,-2.3354204907,-2.4569583379\O,2.6198831104,-1.8060806148,-3.731607
 7933\C,2.575400433,-0.4593399302,-3.8386965943\C,2.8172534816,0.454828
 5852,-2.8788066172\C,2.6980213668,1.8792701438,-3.1220645767\C,2.90023

 Normal termination of Gaussian 16 at Wed Dec  9 18:50:47 2020.

 ----------------------------------------------------------------------
 # B3LYP/6-311++G(d,p) empiricaldispersion=gd3bj scf=xqc pop=npa geom=c
 heck
 ----------------------------------------------------------------------

 --------------------------------------
 CID_71330701_JID_2884_Energie_neutraal
 --------------------------------------
 Structure from the checkpoint file:  "JID_2884.chk"
 Charge =  0 Multiplicity = 1

 SCF Done:  E(RB3LYP) =  -614.368803798     A.U. after   15 cycles
 Normal termination of Gaussian 16 at Wed Dec  9 18:53:13 2020.

 ----------------------------------------------------------------------
 # B3LYP/6-311++G(d,p) empiricaldispersion=gd3bj scf=xqc pop=npa geom=c
 heck
 ----------------------------------------------------------------------

 ------------------------------------
 CID_71330701_JID_2884_Energie_kation
 ------------------------------------
 Structure from the checkpoint file:  "JID_2884.chk"
 Charge =  1 Multiplicity = 2

 SCF Done:  E(UB3LYP) =  -614.077177584     A.U. after   20 cycles
 Normal termination of Gaussian 16 at Wed Dec  9 18:57:48 2020.
 Gaussian 16:  ES64L-G16RevA.03 25-Dec-2016

 -----------------------------------
 CID_71330701_JID_2884_Energie_anion
 -----------------------------------
 Structure from the checkpoint file:  "JID_2884.chk"
 Charge = -1 Multiplicity = 2

                         Standard orientation:
 ---------------------------------------------------------------------
 Center     Atomic      Atomic             Coordinates (Angstroms)
 Number     Number       Type             X           Y           Z
 ---------------------------------------------------------------------
      1          6           0       -1.568149   -1.284754   -1.130973
      2          6           0       -1.369171   -2.318329   -0.056497
      3          8           0       -1.861369   -3.421988   -0.018944
      4          8           0       -0.551873   -1.864955    0.939989
      5          6           0        3.564593   -0.966512    0.212416
      6          8           0        3.686975    0.284825   -0.451283
      7          6           0        2.609128    1.099790   -0.416135
      8          6           0        1.420248    0.873213    0.176159
      9          6           0        0.329041    1.825436    0.105720
     10          6           0       -0.882669    1.627989    0.655438
     11          6           0       -2.049934    2.543987    0.467002
     12          8           0       -3.042750    1.958062   -0.394722
     13          1           0       -2.009768   -1.761397   -2.006750
     14          1           0       -0.619228   -0.804417   -1.384623
     15          1           0       -2.240392   -0.501659   -0.761202
     16          1           0       -0.520060   -2.583226    1.599786
     17          1           0        4.509881   -1.487753    0.056077
     18          1           0        2.738685   -1.555304   -0.206780
     19          1           0        3.390923   -0.824361    1.286698
     20          1           0        2.817627    2.019476   -0.956923
     21          1           0        1.225710   -0.053611    0.705732
     22          1           0        0.513598    2.749184   -0.447404
     23          1           0       -1.076704    0.703901    1.197089
     24          1           0       -2.576670    2.726489    1.409400
     25          1           0       -1.718784    3.517964    0.074711
     26          1           0       -2.601206    1.802231   -1.244912
 ---------------------------------------------------------------------

 SCF Done:  E(UB3LYP) =  -614.359209272     A.U. after   33 cycles
 SCF Done:  E(UB3LYP) =  -614.359209272     a.u. after    1 cycles

 The electronic state is 2-A.
 Alpha  occ. eigenvalues --  -19.06706 -19.06159 -19.02376 -19.01656 -10.20925
 Alpha  occ. eigenvalues --  -10.12823 -10.12036 -10.12000 -10.07675 -10.07617
 Alpha  occ. eigenvalues --  -10.06367 -10.06062  -1.00797  -0.97586  -0.92115
 Alpha  occ. eigenvalues --   -0.92024  -0.71028  -0.65836  -0.65624  -0.61815
 Alpha  occ. eigenvalues --   -0.56525  -0.50757  -0.48009  -0.46275  -0.41759
 Alpha  occ. eigenvalues --   -0.41383  -0.39505  -0.38252  -0.37856  -0.37060
 Alpha  occ. eigenvalues --   -0.36820  -0.34292  -0.33509  -0.31757  -0.31002
 Alpha  occ. eigenvalues --   -0.30226  -0.29430  -0.28975  -0.26154  -0.25693
 Alpha  occ. eigenvalues --   -0.24634  -0.23791  -0.22744  -0.20601  -0.18552
 Alpha  occ. eigenvalues --   -0.18318  -0.11212   0.04331
 Alpha virt. eigenvalues --    0.06208   0.07263   0.07535   0.08150   0.09015
 Alpha virt. eigenvalues --    0.09610   0.09822   0.10486   0.10865   0.11442
 Alpha virt. eigenvalues --    0.12294   0.12698   0.13027   0.14099   0.14483

  Beta  occ. eigenvalues --  -19.06654 -19.06129 -19.02331 -19.01646 -10.20922
  Beta  occ. eigenvalues --  -10.12751 -10.12024 -10.11953 -10.07619 -10.07578
  Beta  occ. eigenvalues --  -10.06372 -10.06042  -1.00729  -0.97515  -0.92008
  Beta  occ. eigenvalues --   -0.91967  -0.70934  -0.65747  -0.65555  -0.61739
  Beta  occ. eigenvalues --   -0.56446  -0.50652  -0.47903  -0.46198  -0.41696
  Beta  occ. eigenvalues --   -0.41330  -0.39470  -0.38208  -0.37807  -0.36964
  Beta  occ. eigenvalues --   -0.36768  -0.34236  -0.33438  -0.31711  -0.30961
  Beta  occ. eigenvalues --   -0.30177  -0.29384  -0.28936  -0.26100  -0.25506
  Beta  occ. eigenvalues --   -0.24582  -0.23744  -0.22705  -0.20403  -0.18511
  Beta  occ. eigenvalues --   -0.18261  -0.11000
  Beta virt. eigenvalues --    0.06690   0.07323   0.07626   0.08173   0.08601
  Beta virt. eigenvalues --    0.09514   0.09762   0.10052   0.10850   0.11255
  Beta virt. eigenvalues --    0.11819   0.12433   0.12969   0.13162   0.14240

 Mulliken charges and spin densities:
               1          2
     1  C    0.494689  -0.949757
     2  C   -0.068820   0.136712
     3  O   -0.316930   0.025286
     4  O   -0.214890   0.014684
     5  C    0.841882  -1.158938
     6  O   -0.164567   0.052595
     7  C   -1.505446   1.012138
     8  C    0.503328   0.100316
     9  C    0.519808  -1.410110
    10  C   -0.433668   0.869494
    11  C    0.490064  -1.154141
    12  O   -0.201344  -0.008277
    13  H   -0.216024   0.404941
    14  H   -0.017891   0.194593
    15  H    0.143445   0.035119
    16  H   -0.332444   0.644408
    17  H   -0.564133   0.748741
    18  H   -0.261314   0.428670
    19  H   -0.359996   0.508721
    20  H   -0.057016   0.221507
    21  H    0.786177  -0.593088
    22  H    0.049130   0.062769
    23  H   -0.063307   0.243603
    24  H    0.067968   0.079552
    25  H   -0.063674   0.206217
    26  H   -0.055028   0.284246
 Sum of Mulliken charges =  -1.00000   1.00000

 Dipole moment (field-independent basis, Debye):
    X=             -0.4340    Y=              4.7202    Z=             -0.4953  Tot=              4.7659
 Quadrupole moment (field-independent basis, Debye-Ang):
   XX=           -139.4006   YY=           -124.0717   ZZ=           -101.0402
   XY=              8.6386   XZ=             -5.5146   YZ=              5.6020

 Summary of Natural Population Analysis:

                                       Natural Population
                Natural  -----------------------------------------------
    Atom  No    Charge         Core      Valence    Rydberg      Total
 -----------------------------------------------------------------------
      C    1   -0.34293      0.99961     2.33771    0.00561     3.34293
      C    2    0.40578      0.99975     1.56994    0.02453     2.59422
      O    3   -0.30714      0.99987     3.30093    0.00634     4.30714
      O    4   -0.35123      0.99988     3.34318    0.00816     4.35123
      C    5   -0.10358      0.99961     2.09435    0.00963     3.10358
      O    6   -0.26725      0.99987     3.25705    0.01033     4.26725
      C    7    0.11426      0.99945     1.87295    0.01334     2.88574
      C    8   -0.18275      0.99953     2.17298    0.01024     3.18275
      C    9   -0.08554      0.99951     2.07612    0.00991     3.08554
      C   10   -0.12034      0.99953     2.11167    0.00914     3.12034
      C   11   -0.02732      0.99958     2.01360    0.01414     3.02732
      O   12   -0.36859      0.99990     3.36166    0.00702     4.36859
      H   13    0.10953      0.00000     0.38952    0.00095     0.39047
      H   14    0.11679      0.00000     0.38163    0.00159     0.38321
      H   15    0.12379      0.00000     0.37460    0.00161     0.37621
      H   16    0.24497      0.00000     0.24445    0.01059     0.25503
      H   17    0.09326      0.00000     0.40521    0.00153     0.40674
      H   18    0.09069      0.00000     0.40698    0.00233     0.40931
      H   19    0.08626      0.00000     0.41216    0.00158     0.41374
      H   20    0.08319      0.00000     0.41550    0.00131     0.41681
      H   21    0.11115      0.00000     0.38603    0.00283     0.38885
      H   22    0.08820      0.00000     0.40986    0.00194     0.41180
      H   23    0.09903      0.00000     0.39890    0.00207     0.40097
      H   24    0.08639      0.00000     0.41231    0.00130     0.41361
      H   25    0.07567      0.00000     0.42297    0.00136     0.42433
      H   26    0.22770      0.00000     0.26729    0.00501     0.27230
 =======================================================================
   * Total *   -0.00000     11.99608    34.83955    0.16437    47.00000

 Normal termination of Gaussian 16 at Wed Dec  9 19:05:26 2020.
