 Gaussian 16, Revision A.03,

 -----------------------------------------------------------
 # opt freq B3LYP/6-31G(d) empiricaldispersion=gd3bj scf=xqc
 -----------------------------------------------------------

 ------------------------------
 CID_99839367_JID_9396_neutraal
 ------------------------------
 Symbolic Z-matrix:
 Charge =  0 Multiplicity = 1

 SCF Done:  E(RB3LYP) =  -1146.74069218     A.U. after   14 cycles
 SCF Done:  E(RB3LYP) =  -1146.71488428     A.U. after   13 cycles
 SCF Done:  E(RB3LYP) =  -1146.74468643     A.U. after   12 cycles
 SCF Done:  E(RB3LYP) =  -1146.74439988     A.U. after   12 cycles
 SCF Done:  E(RB3LYP) =  -1146.74609700     A.U. after   12 cycles
 SCF Done:  E(RB3LYP) =  -1146.74676094     A.U. after   12 cycles
 SCF Done:  E(RB3LYP) =  -1146.74729089     A.U. after   12 cycles
 SCF Done:  E(RB3LYP) =  -1146.74775882     A.U. after   12 cycles
 SCF Done:  E(RB3LYP) =  -1146.74807604     A.U. after   12 cycles
 SCF Done:  E(RB3LYP) =  -1146.74856956     A.U. after   11 cycles
 SCF Done:  E(RB3LYP) =  -1146.74904793     A.U. after   10 cycles
 SCF Done:  E(RB3LYP) =  -1146.74905093     A.U. after    9 cycles
 SCF Done:  E(RB3LYP) =  -1146.74905252     A.U. after    9 cycles
 SCF Done:  E(RB3LYP) =  -1146.74905279     A.U. after    7 cycles
 SCF Done:  E(RB3LYP) =  -1146.74905282     A.U. after    6 cycles
 Optimization completed.
    -- Stationary point found.
 Normal termination of Gaussian 16 at Sun Dec 13 12:46:12 2020.

 --------------------------------------------------------------------
 #N Geom=AllCheck Guess=TCheck SCRF=Check GenChk RB3LYP/6-31G(d) Freq
 --------------------------------------------------------------------

 Structure from the checkpoint file:  "JID_9396.chk"
 ------------------------------
 CID_99839367_JID_9396_neutraal
 ------------------------------
 Charge =  0 Multiplicity = 1

 SCF Done:  E(RB3LYP) =  -1146.74905282     A.U. after    1 cycles

  Exact polarizability: 252.689  -5.754 188.477   0.151  -4.521 122.651
 Approx polarizability: 330.346  -5.672 320.961   2.111  -8.652 199.076

                      1                      2                      3
                      A                      A                      A
 Frequencies --     22.1427                25.7529                33.1621
 Red. masses --      4.4260                 4.3555                 5.3290
 Frc consts  --      0.0013                 0.0017                 0.0035
 IR Inten    --      1.1743                 0.9474                 0.1740

                      4                      5                      6
                      A                      A                      A
 Frequencies --     55.7292                78.2957                93.0512
 Red. masses --      3.9508                 5.1433                 3.9240
 Frc consts  --      0.0072                 0.0186                 0.0200
 IR Inten    --      0.6624                 1.0303                 1.3244

                      7                      8                      9
                      A                      A                      A
 Frequencies --    103.5407               122.1348               144.9800
 Red. masses --      3.9006                 4.0917                 3.8870
 Frc consts  --      0.0246                 0.0360                 0.0481
 IR Inten    --      0.3085                 0.1447                 1.2106

                     10                     11                     12
                      A                      A                      A
 Frequencies --    180.2181               198.1091               220.2014
 Red. masses --      2.4427                 2.6404                 1.6252
 Frc consts  --      0.0467                 0.0611                 0.0464
 IR Inten    --      0.3221                 1.1433                 2.8664

                     13                     14                     15
                      A                      A                      A
 Frequencies --    240.8423               269.7915               275.3770
 Red. masses --      3.3909                 1.7776                 2.1149
 Frc consts  --      0.1159                 0.0762                 0.0945
 IR Inten    --      4.3505                 4.7580                 1.6639

                     16                     17                     18
                      A                      A                      A
 Frequencies --    288.0191               305.6991               332.7001
 Red. masses --      2.6313                 2.5121                 2.3085
 Frc consts  --      0.1286                 0.1383                 0.1505
 IR Inten    --      1.2057                 2.8329                11.6317

                     19                     20                     21
                      A                      A                      A
 Frequencies --    360.4650               421.2229               426.2868
 Red. masses --      2.6959                 2.5617                 2.6159
 Frc consts  --      0.2064                 0.2678                 0.2801
 IR Inten    --      2.2913                 3.6895                 4.1007

                     22                     23                     24
                      A                      A                      A
 Frequencies --    432.0680               448.2504               491.0868
 Red. masses --      2.6126                 2.1917                 2.6364
 Frc consts  --      0.2874                 0.2595                 0.3746
 IR Inten    --      2.0124                 2.0257                 7.9240

                     25                     26                     27
                      A                      A                      A
 Frequencies --    508.6343               614.6086               628.2486
 Red. masses --      3.2895                 5.1236                 3.9875
 Frc consts  --      0.5014                 1.1403                 0.9273
 IR Inten    --      2.0718                 0.3825                27.4252

                     28                     29                     30
                      A                      A                      A
 Frequencies --    638.2695               644.0847               655.3845
 Red. masses --      6.1670                 4.2880                 4.5831
 Frc consts  --      1.4803                 1.0481                 1.1599
 IR Inten    --      0.6967                 3.6877                 3.4425

                     31                     32                     33
                      A                      A                      A
 Frequencies --    683.3650               717.2037               722.3627
 Red. masses --      5.2140                 1.3015                 1.8581
 Frc consts  --      1.4346                 0.3945                 0.5712
 IR Inten    --     14.4402                24.0004                25.8157

                     34                     35                     36
                      A                      A                      A
 Frequencies --    744.7876               750.6580               774.3897
 Red. masses --      4.4239                 2.2518                 2.9989
 Frc consts  --      1.4458                 0.7476                 1.0596
 IR Inten    --     10.9152                11.0380                22.8163

                     37                     38                     39
                      A                      A                      A
 Frequencies --    789.6245               839.9331               846.1183
 Red. masses --      3.2118                 3.6191                 1.2933
 Frc consts  --      1.1799                 1.5043                 0.5455
 IR Inten    --      7.5501                 9.3767                 6.0363

                     40                     41                     42
                      A                      A                      A
 Frequencies --    869.8245               877.1876               909.1675
 Red. masses --      1.2433                 2.0973                 1.9858
 Frc consts  --      0.5542                 0.9508                 0.9671
 IR Inten    --      0.0148                 9.3607                13.4996

                     43                     44                     45
                      A                      A                      A
 Frequencies --    939.8626               940.5655               966.9743
 Red. masses --      2.3617                 2.2952                 2.1884
 Frc consts  --      1.2291                 1.1963                 1.2056
 IR Inten    --      2.1995                 3.5834                12.8597

                     46                     47                     48
                      A                      A                      A
 Frequencies --    975.9968               981.9379               999.8561
 Red. masses --      1.3459                 1.8259                 1.2552
 Frc consts  --      0.7554                 1.0372                 0.7393
 IR Inten    --      0.4048                 9.6190                 0.8405

                     49                     50                     51
                      A                      A                      A
 Frequencies --   1022.2679              1032.3027              1061.5725
 Red. masses --      5.9184                 2.2223                 2.2476
 Frc consts  --      3.6440                 1.3953                 1.4924
 IR Inten    --      0.5411                10.2836                 2.4297

                     52                     53                     54
                      A                      A                      A
 Frequencies --   1079.7683              1084.3533              1110.4361
 Red. masses --      1.9075                 2.4284                 1.7661
 Frc consts  --      1.3103                 1.6823                 1.2831
 IR Inten    --      5.6083                16.6406                21.4175

                     55                     56                     57
                      A                      A                      A
 Frequencies --   1112.6837              1146.7592              1150.4313
 Red. masses --      1.2238                 1.6633                 1.6444
 Frc consts  --      0.8927                 1.2888                 1.2823
 IR Inten    --      5.4527                 3.1541                33.8574

                     58                     59                     60
                      A                      A                      A
 Frequencies --   1170.7563              1172.4831              1194.2719
 Red. masses --      1.4099                 1.3128                 1.0982
 Frc consts  --      1.1386                 1.0633                 0.9229
 IR Inten    --      5.0104                 9.1836                 0.0136

                     61                     62                     63
                      A                      A                      A
 Frequencies --   1213.8307              1217.6929              1220.3443
 Red. masses --      1.4210                 1.1888                 2.2737
 Frc consts  --      1.2335                 1.0385                 1.9951
 IR Inten    --      7.8881                 0.7800                 4.0307

                     64                     65                     66
                      A                      A                      A
 Frequencies --   1232.8106              1238.1701              1253.7636
 Red. masses --      2.8122                 1.4488                 1.3071
 Frc consts  --      2.5182                 1.3087                 1.2106
 IR Inten    --     11.1847                 1.5236                 5.2297

                     67                     68                     69
                      A                      A                      A
 Frequencies --   1300.5282              1321.2804              1323.9573
 Red. masses --      1.4296                 2.1123                 1.8111
 Frc consts  --      1.4247                 2.1727                 1.8705
 IR Inten    --     11.9193                34.3698                 5.3929

                     70                     71                     72
                      A                      A                      A
 Frequencies --   1337.5268              1366.4429              1371.9283
 Red. masses --      1.9737                 2.1766                 1.3052
 Frc consts  --      2.0804                 2.3945                 1.4475
 IR Inten    --      3.1475                 7.3360                 4.1044

                     73                     74                     75
                      A                      A                      A
 Frequencies --   1388.8603              1400.3117              1408.0851
 Red. masses --      1.2835                 3.5695                 1.3322
 Frc consts  --      1.4587                 4.1239                 1.5563
 IR Inten    --     10.8572                 4.8034                 1.8781

                     76                     77                     78
                      A                      A                      A
 Frequencies --   1427.7458              1455.4320              1481.7171
 Red. masses --      1.3511                 2.2748                 1.1671
 Frc consts  --      1.6227                 2.8391                 1.5097
 IR Inten    --     20.4224                17.2303                 1.9069

                     79                     80                     81
                      A                      A                      A
 Frequencies --   1483.1890              1493.0990              1496.9849
 Red. masses --      1.1332                 1.3482                 1.6718
 Frc consts  --      1.4687                 1.7708                 2.2074
 IR Inten    --      3.8828                11.1064                 4.1852

                     82                     83                     84
                      A                      A                      A
 Frequencies --   1503.4887              1510.1567              1518.4281
 Red. masses --      1.7086                 1.2629                 1.0639
 Frc consts  --      2.2756                 1.6969                 1.4452
 IR Inten    --     10.1191                 4.1686                 5.1322

                     85                     86                     87
                      A                      A                      A
 Frequencies --   1526.6329              1530.5425              1545.2937
 Red. masses --      1.1000                 1.9351                 1.1741
 Frc consts  --      1.5104                 2.6709                 1.6519
 IR Inten    --      0.8952                26.2833                 7.9769

                     88                     89                     90
                      A                      A                      A
 Frequencies --   1546.9684              1548.1040              1557.6449
 Red. masses --      1.2842                 1.6878                 1.3202
 Frc consts  --      1.8107                 2.3833                 1.8872
 IR Inten    --      1.7551                14.0942                 6.8266

                     91                     92                     93
                      A                      A                      A
 Frequencies --   1573.6314              1646.0486              1666.4785
 Red. masses --      2.2344                 5.4274                 5.5340
 Frc consts  --      3.2600                 8.6642                 9.0550
 IR Inten    --      5.9246                 1.1913                 1.6199

                     94                     95                     96
                      A                      A                      A
 Frequencies --   2991.4230              3027.9929              3035.4265
 Red. masses --      1.0504                 1.0598                 1.0375
 Frc consts  --      5.5383                 5.7251                 5.6323
 IR Inten    --     60.4154                61.4048                40.4380

                     97                     98                     99
                      A                      A                      A
 Frequencies --   3055.2626              3064.7976              3075.1764
 Red. masses --      1.0694                 1.0810                 1.0810
 Frc consts  --      5.8816                 5.9826                 6.0233
 IR Inten    --     26.3046                 4.9733                23.7150

                    100                    101                    102
                      A                      A                      A
 Frequencies --   3077.1571              3097.3435              3106.3096
 Red. masses --      1.0816                 1.0600                 1.1060
 Frc consts  --      6.0340                 5.9914                 6.2880
 IR Inten    --     39.8048                15.4238                33.1700

                    103                    104                    105
                      A                      A                      A
 Frequencies --   3114.9940              3122.4119              3140.2989
 Red. masses --      1.1033                 1.1041                 1.1015
 Frc consts  --      6.3073                 6.3424                 6.4000
 IR Inten    --     37.8513                 5.3685                16.8794

                    106                    107                    108
                      A                      A                      A
 Frequencies --   3141.8198              3150.4588              3176.8933
 Red. masses --      1.0956                 1.1069                 1.0855
 Frc consts  --      6.3718                 6.4732                 6.4549
 IR Inten    --      9.1519                 3.4705                 6.2025

                    109                    110                    111
                      A                      A                      A
 Frequencies --   3181.7882              3190.7870              3198.8113
 Red. masses --      1.0872                 1.0906                 1.0941
 Frc consts  --      6.4848                 6.5419                 6.5961
 IR Inten    --      0.4574                 9.8218                35.3282

                    112                    113                    114
                      A                      A                      A
 Frequencies --   3210.0560              3256.2750              3285.0185
 Red. masses --      1.0980                 1.0915                 1.1035
 Frc consts  --      6.6661                 6.8192                 7.0163
 IR Inten    --     26.3917                10.8645                 6.4034

 - Thermochemistry -
 -------------------
 Temperature   298.150 Kelvin.  Pressure   1.00000 Atm.
 Atom     1 has atomic number  6 and mass  12.00000

 Molecular mass:   275.14562 amu.
 Principal axes and moments of inertia in atomic units:
                           1         2         3
     Eigenvalues --  2143.92138********************
           X            0.99999  -0.00478   0.00037
           Y            0.00478   0.99999   0.00136
           Z           -0.00038  -0.00136   1.00000
 This molecule is an asymmetric top.
 Rotational symmetry number  1.
 Warning -- assumption of classical behavior for rotation
           may cause significant error
 Rotational temperatures (Kelvin)      0.04040     0.00803     0.00728
 Rotational constants (GHZ):           0.84179     0.16740     0.15171
 Zero-point vibrational energy     901588.8 (Joules/Mol)
                                  215.48490 (Kcal/Mol)
 Warning -- explicit consideration of  26 degrees of freedom as
           vibrations may cause significant error
 Vibrational temperatures:     31.86    37.05    47.71    80.18   112.65
          (Kelvin)            133.88   148.97   175.72   208.59   259.29
                              285.03   316.82   346.52   388.17   396.21
                              414.40   439.83   478.68   518.63   606.05
                              613.33   621.65   644.93   706.56   731.81
                              884.28   903.91   918.33   926.69   942.95
                              983.21  1031.90  1039.32  1071.58  1080.03
                             1114.17  1136.09  1208.48  1217.38  1251.48
                             1262.08  1308.09  1352.25  1353.26  1391.26
                             1404.24  1412.79  1438.57  1470.82  1485.25
                             1527.37  1553.55  1560.14  1597.67  1600.90
                             1649.93  1655.21  1684.46  1686.94  1718.29
                             1746.43  1751.99  1755.80  1773.74  1781.45
                             1803.89  1871.17  1901.03  1904.88  1924.40
                             1966.01  1973.90  1998.26  2014.74  2025.92
                             2054.21  2094.04  2131.86  2133.98  2148.24
                             2153.83  2163.18  2172.78  2184.68  2196.48
                             2202.11  2223.33  2225.74  2227.38  2241.10
                             2264.10  2368.30  2397.69  4303.99  4356.61
                             4367.30  4395.84  4409.56  4424.49  4427.34
                             4456.39  4469.29  4481.78  4492.45  4518.19
                             4520.38  4532.81  4570.84  4577.88  4590.83
                             4602.38  4618.55  4685.05  4726.41

 Zero-point correction=                           0.343397 (Hartree/Particle)
 Thermal correction to Energy=                    0.362038
 Thermal correction to Enthalpy=                  0.362982
 Thermal correction to Gibbs Free Energy=         0.294484
 Sum of electronic and zero-point Energies=          -1146.405656
 Sum of electronic and thermal Energies=             -1146.387015
 Sum of electronic and thermal Enthalpies=           -1146.386070
 Sum of electronic and thermal Free Energies=        -1146.454569

                     E (Thermal)             CV                S
                      KCal/Mol        Cal/Mol-Kelvin    Cal/Mol-Kelvin
 Total                  227.182             71.003            144.167
 Electronic               0.000              0.000              0.000
 Translational            0.889              2.981             42.735
 Rotational               0.889              2.981             33.974
 Vibrational            225.405             65.042             67.458
 Vibration     1          0.593              1.985              6.432
 Vibration     2          0.593              1.985              6.132
 Vibration     3          0.594              1.983              5.631
 Vibration     4          0.596              1.975              4.603
 Vibration     5          0.600              1.964              3.933
 Vibration     6          0.602              1.954              3.595
 Vibration     7          0.605              1.946              3.387
 Vibration     8          0.610              1.931              3.066
 Vibration     9          0.616              1.908              2.737
 Vibration    10          0.629              1.867              2.326
 Vibration    11          0.637              1.843              2.151
 Vibration    12          0.647              1.810              1.957
 Vibration    13          0.658              1.778              1.797
 Vibration    14          0.674              1.729              1.598
 Vibration    15          0.677              1.719              1.562
 Vibration    16          0.685              1.696              1.486
 Vibration    17          0.696              1.663              1.386
 Vibration    18          0.715              1.610              1.247
 Vibration    19          0.735              1.554              1.120
 Vibration    20          0.784              1.424              0.888
 Vibration    21          0.788              1.413              0.871
 Vibration    22          0.793              1.400              0.852
 Vibration    23          0.807              1.365              0.801
 Vibration    24          0.847              1.270              0.681
 Vibration    25          0.864              1.231              0.637
 Vibration    26          0.974              1.001              0.425

 Optimization completed.
    -- Stationary point found.
 Normal termination of Gaussian 16 at Sun Dec 13 13:05:52 2020.

 ----------------------------------------------------------------------
 # B3LYP/6-311++G(d,p) empiricaldispersion=gd3bj scf=xqc pop=npa geom=c
 heck
 ----------------------------------------------------------------------

 --------------------------------------
 CID_99839367_JID_9396_Energie_neutraal
 --------------------------------------
 Structure from the checkpoint file:  "JID_9396.chk"
 Charge =  0 Multiplicity = 1

 SCF Done:  E(RB3LYP) =  -1146.97385965     A.U. after   16 cycles
 Normal termination of Gaussian 16 at Sun Dec 13 13:14:55 2020.

 ----------------------------------------------------------------------
 # B3LYP/6-311++G(d,p) empiricaldispersion=gd3bj scf=xqc pop=npa geom=c
 heck
 ----------------------------------------------------------------------

 ------------------------------------
 CID_99839367_JID_9396_Energie_kation
 ------------------------------------
 Structure from the checkpoint file:  "JID_9396.chk"
 Charge =  1 Multiplicity = 2

 SCF Done:  E(UB3LYP) =  -1146.69925021     A.U. after   25 cycles
 Normal termination of Gaussian 16 at Sun Dec 13 13:34:26 2020.
 Gaussian 16:  ES64L-G16RevA.03 25-Dec-2016

 ----------------------------------------------------------------------
 # B3LYP/6-311++G(d,p) empiricaldispersion=gd3bj scf=xqc pop=npa geom=c
 heck
 ----------------------------------------------------------------------

 -----------------------------------
 CID_99839367_JID_9396_Energie_anion
 -----------------------------------
 Structure from the checkpoint file:  "JID_9396.chk"
 Charge = -1 Multiplicity = 2

                         Standard orientation:
 ---------------------------------------------------------------------
 Center     Atomic      Atomic             Coordinates (Angstroms)
 Number     Number       Type             X           Y           Z
 ---------------------------------------------------------------------
      1          6           0       -2.465547    1.987678   -0.512711
      2          7           0       -3.393258    0.887833   -0.286146
      3          6           0       -4.697937    1.021873    0.146762
      4          6           0       -5.238852   -0.239687    0.100554
      5          7           0       -4.311958   -1.143260   -0.356141
      6          6           0       -3.213173   -0.444497   -0.589586
      7          6           0       -1.931653   -1.011999   -1.092447
      8         16           0       -0.959746   -1.968695    0.165188
      9          6           0       -0.763908   -0.742017    1.516985
     10          6           0        0.511331    0.103662    1.522654
     11          7           0        0.633146    1.041511    0.397131
     12          6           0        1.150208    2.340393    0.818234
     13          6           0        1.356939    0.501616   -0.775564
     14          6           0        2.810968    0.138802   -0.547030
     15          6           0        3.825618    1.100481   -0.636881
     16          6           0        5.154305    0.764519   -0.378367
     17          6           0        5.489073   -0.544871   -0.028914
     18          6           0        4.489972   -1.515788    0.050353
     19          6           0        3.162175   -1.175491   -0.209766
     20          1           0       -2.736649    2.814134    0.148799
     21          1           0       -1.441744    1.675573   -0.280462
     22          1           0       -2.520412    2.338306   -1.550096
     23          1           0       -5.097794    1.982320    0.436175
     24          1           0       -6.239542   -0.547348    0.372539
     25          1           0       -2.151326   -1.759574   -1.858380
     26          1           0       -1.300246   -0.240855   -1.538307
     27          1           0       -1.654514   -0.106244    1.521810
     28          1           0       -0.787886   -1.333344    2.438892
     29          1           0        0.485153    0.695529    2.445863
     30          1           0        1.393825   -0.546390    1.605239
     31          1           0        2.161037    2.300207    1.256700
     32          1           0        1.183812    3.013031   -0.046434
     33          1           0        0.471853    2.776522    1.559155
     34          1           0        0.821169   -0.388242   -1.109411
     35          1           0        1.279786    1.257610   -1.566386
     36          1           0        3.573713    2.118154   -0.924900
     37          1           0        5.929179    1.522268   -0.456807
     38          1           0        6.523978   -0.808422    0.170539
     39          1           0        4.744788   -2.540153    0.307930
     40          1           0        2.385131   -1.934595   -0.165012
 ---------------------------------------------------------------------

 SCF Done:  E(UB3LYP) =  -1146.96564180     A.U. after   33 cycles
 SCF Done:  E(UB3LYP) =  -1146.96564180     a.u. after    1 cycles

 The electronic state is 2-A.
 Alpha  occ. eigenvalues --  -88.75480 -14.28535 -14.22402 -14.20489 -10.14216
 Alpha  occ. eigenvalues --  -10.12533 -10.11359 -10.11286 -10.11190 -10.10961
 Alpha  occ. eigenvalues --  -10.10773 -10.09764 -10.09500 -10.09375 -10.09310
 Alpha  occ. eigenvalues --  -10.09172 -10.09105 -10.08956 -10.08803  -7.84087
 Alpha  occ. eigenvalues --   -5.80493  -5.80125  -5.79431  -0.93199  -0.83938
 Alpha  occ. eigenvalues --   -0.79861  -0.77265  -0.72910  -0.69029  -0.67763
 Alpha  occ. eigenvalues --   -0.66368  -0.64283  -0.62171  -0.61149  -0.58585
 Alpha  occ. eigenvalues --   -0.53834  -0.52406  -0.51717  -0.50779  -0.48387
 Alpha  occ. eigenvalues --   -0.46060  -0.43531  -0.42765  -0.40821  -0.39751
 Alpha  occ. eigenvalues --   -0.38516  -0.38129  -0.37269  -0.36806  -0.35723
 Alpha  occ. eigenvalues --   -0.35181  -0.34695  -0.33844  -0.33578  -0.32720
 Alpha  occ. eigenvalues --   -0.31807  -0.31126  -0.30683  -0.30181  -0.29499
 Alpha  occ. eigenvalues --   -0.28740  -0.27740  -0.27702  -0.26618  -0.26512
 Alpha  occ. eigenvalues --   -0.25674  -0.22689  -0.18885  -0.18580  -0.17261
 Alpha  occ. eigenvalues --   -0.16883  -0.15020  -0.13996  -0.12939   0.03690
 Alpha virt. eigenvalues --    0.05362   0.06098   0.06598   0.06640   0.06882
 Alpha virt. eigenvalues --    0.07143   0.07686   0.07806   0.08470   0.08763
 Alpha virt. eigenvalues --    0.09103   0.09826   0.10134   0.10500   0.10959

  Beta  occ. eigenvalues --  -88.75479 -14.28534 -14.22401 -14.20488 -10.14214
  Beta  occ. eigenvalues --  -10.12528 -10.11353 -10.11238 -10.11178 -10.10947
  Beta  occ. eigenvalues --  -10.10761 -10.09763 -10.09463 -10.09365 -10.09302
  Beta  occ. eigenvalues --  -10.09155 -10.09093 -10.08952 -10.08783  -7.84086
  Beta  occ. eigenvalues --   -5.80493  -5.80123  -5.79429  -0.93192  -0.83926
  Beta  occ. eigenvalues --   -0.79852  -0.77238  -0.72900  -0.69008  -0.67737
  Beta  occ. eigenvalues --   -0.66338  -0.64253  -0.62127  -0.61102  -0.58556
  Beta  occ. eigenvalues --   -0.53803  -0.52372  -0.51702  -0.50750  -0.48350
  Beta  occ. eigenvalues --   -0.46028  -0.43496  -0.42724  -0.40803  -0.39717
  Beta  occ. eigenvalues --   -0.38491  -0.38095  -0.37243  -0.36780  -0.35692
  Beta  occ. eigenvalues --   -0.35153  -0.34673  -0.33819  -0.33554  -0.32694
  Beta  occ. eigenvalues --   -0.31788  -0.31097  -0.30653  -0.30148  -0.29479
  Beta  occ. eigenvalues --   -0.28701  -0.27711  -0.27672  -0.26585  -0.26495
  Beta  occ. eigenvalues --   -0.25648  -0.22677  -0.18877  -0.18573  -0.17227
  Beta  occ. eigenvalues --   -0.16822  -0.15012  -0.13987  -0.12930
  Beta virt. eigenvalues --    0.05669   0.06305   0.06426   0.06689   0.06823
  Beta virt. eigenvalues --    0.07258   0.07456   0.07853   0.08201   0.08763
  Beta virt. eigenvalues --    0.09110   0.09559   0.10103   0.10376   0.10813

 Mulliken charges and spin densities:
               1          2
     1  C   -0.493132   0.086994
     2  N    0.043625   0.127200
     3  C   -0.143557   0.096185
     4  C    0.246746  -0.240619
     5  N   -0.026784   0.029037
     6  C   -1.394484   0.464882
     7  C    0.583279  -0.901777
     8  S    0.457178  -0.076665
     9  C   -0.663140   0.063837
    10  C   -0.108249  -0.370555
    11  N    0.247050   0.039983
    12  C    0.312288  -0.712043
    13  C    2.118642  -2.932259
    14  C   -1.700418   2.291363
    15  C   -0.714696   0.523753
    16  C    0.972105  -1.322371
    17  C    0.333095  -0.658664
    18  C    0.357149  -0.552688
    19  C   -1.190262   1.183154
    20  H   -0.524877   0.681595
    21  H    2.429601  -2.211393
    22  H   -0.559561   0.772857
    23  H   -0.464818   0.631630
    24  H    0.110624   0.041762
    25  H    0.230983   0.045791
    26  H    0.111552   0.065130
    27  H    0.091777   0.105540
    28  H    0.103338   0.146580
    29  H   -0.020194   0.175884
    30  H    0.181492  -0.046791
    31  H    0.030135   0.122943
    32  H   -0.369678   0.537446
    33  H   -0.427012   0.572130
    34  H    0.047551  -0.024870
    35  H   -0.446813   0.646102
    36  H   -0.213157   0.384808
    37  H   -0.437494   0.621479
    38  H   -0.212677   0.363218
    39  H   -0.020227   0.188277
    40  H    0.123019   0.041135
 Sum of Mulliken charges =  -1.00000   1.00000

 Dipole moment (field-independent basis, Debye):
    X=             -0.5159    Y=             -5.8820    Z=              0.9842  Tot=              5.9861
 Quadrupole moment (field-independent basis, Debye-Ang):
   XX=           -226.3763   YY=           -185.3992   ZZ=           -155.7706
   XY=             -3.7702   XZ=              2.4729   YZ=              1.5265

 Summary of Natural Population Analysis:

                                       Natural Population
                Natural  -----------------------------------------------
    Atom  No    Charge         Core      Valence    Rydberg      Total
 -----------------------------------------------------------------------
      C    1   -0.18613      0.99962     2.17704    0.00948     3.18613
      N    2   -0.20322      0.99962     2.69309    0.01051     3.70322
      C    3   -0.03338      0.99955     2.02204    0.01179     3.03338
      C    4   -0.03637      0.99959     2.02295    0.01383     3.03637
      N    5   -0.25432      0.99969     2.74581    0.00881     3.75432
      C    6    0.17775      0.99958     1.80454    0.01813     2.82225
      C    7   -0.26534      0.99952     2.25582    0.01000     3.26534
      S    8    0.08776      4.99964     2.89698    0.01562     7.91224
      C    9   -0.25481      0.99957     2.24512    0.01012     3.25481
      C   10   -0.08881      0.99957     2.07745    0.01179     3.08881
      N   11   -0.29291      0.99974     2.77720    0.01598     3.79291
      C   12   -0.17720      0.99963     2.16867    0.00890     3.17720
      C   13   -0.09577      0.99956     2.08310    0.01310     3.09577
      C   14   -0.02556      0.99950     2.01594    0.01012     3.02556
      C   15   -0.09595      0.99951     2.08645    0.00999     3.09595
      C   16   -0.09924      0.99956     2.08970    0.00998     3.09924
      C   17   -0.10346      0.99956     2.09365    0.01025     3.10346
      C   18   -0.10171      0.99956     2.09285    0.00930     3.10171
      C   19   -0.10325      0.99951     2.09533    0.00841     3.10325
      H   20    0.10490      0.00000     0.39267    0.00244     0.39510
      H   21    0.11741      0.00000     0.37963    0.00296     0.38259
      H   22    0.09856      0.00000     0.39971    0.00173     0.40144
      H   23    0.10517      0.00000     0.39375    0.00107     0.39483
      H   24    0.09489      0.00000     0.40423    0.00088     0.40511
      H   25    0.11772      0.00000     0.38121    0.00107     0.38228
      H   26    0.11042      0.00000     0.38788    0.00170     0.38958
      H   27    0.10806      0.00000     0.39015    0.00180     0.39194
      H   28    0.10483      0.00000     0.39427    0.00090     0.39517
      H   29    0.09913      0.00000     0.39944    0.00143     0.40087
      H   30    0.09313      0.00000     0.40524    0.00162     0.40687
      H   31    0.08689      0.00000     0.41166    0.00145     0.41311
      H   32    0.09885      0.00000     0.39925    0.00190     0.40115
      H   33    0.09743      0.00000     0.40105    0.00151     0.40257
      H   34    0.10244      0.00000     0.39525    0.00231     0.39756
      H   35    0.10117      0.00000     0.39731    0.00152     0.39883
      H   36    0.10414      0.00000     0.39399    0.00187     0.39586
      H   37    0.10229      0.00000     0.39657    0.00114     0.39771
      H   38    0.10046      0.00000     0.39864    0.00090     0.39954
      H   39    0.09921      0.00000     0.39998    0.00081     0.40079
      H   40    0.10481      0.00000     0.39386    0.00134     0.39519
 =======================================================================
   * Total *   -0.00000     22.99206    50.75948    0.24846    74.00000

 Normal termination of Gaussian 16 at Sun Dec 13 13:59:37 2020.
