 Gaussian 16, Revision A.03,

 -----------------------------------------------------------
 # opt freq B3LYP/6-31G(d) empiricaldispersion=gd3bj scf=xqc
 -----------------------------------------------------------

 ------------------------------
 CID_65964440_JID_4760_neutraal
 ------------------------------
 Symbolic Z-matrix:
 Charge =  0 Multiplicity = 1

 SCF Done:  E(RB3LYP) =  -614.761276662     A.U. after   14 cycles
 SCF Done:  E(RB3LYP) =  -614.765671460     A.U. after   11 cycles
 SCF Done:  E(RB3LYP) =  -614.766381661     A.U. after   11 cycles
 SCF Done:  E(RB3LYP) =  -614.766619234     A.U. after   11 cycles
 SCF Done:  E(RB3LYP) =  -614.766719581     A.U. after   12 cycles
 SCF Done:  E(RB3LYP) =  -614.766779516     A.U. after   10 cycles
 SCF Done:  E(RB3LYP) =  -614.766845432     A.U. after   11 cycles
 SCF Done:  E(RB3LYP) =  -614.766882297     A.U. after   11 cycles
 SCF Done:  E(RB3LYP) =  -614.766890755     A.U. after   10 cycles
 SCF Done:  E(RB3LYP) =  -614.766894655     A.U. after   10 cycles
 SCF Done:  E(RB3LYP) =  -614.766897565     A.U. after    8 cycles
 SCF Done:  E(RB3LYP) =  -614.766898088     A.U. after    7 cycles
 SCF Done:  E(RB3LYP) =  -614.766898378     A.U. after    7 cycles
 SCF Done:  E(RB3LYP) =  -614.766898663     A.U. after    8 cycles
 SCF Done:  E(RB3LYP) =  -614.766898770     A.U. after    7 cycles
 Optimization completed.
    -- Stationary point found.
 Normal termination of Gaussian 16 at Thu Dec 10 10:25:19 2020.

 --------------------------------------------------------------------
 #N Geom=AllCheck Guess=TCheck SCRF=Check GenChk RB3LYP/6-31G(d) Freq
 --------------------------------------------------------------------

 Structure from the checkpoint file:  "JID_4760.chk"
 ------------------------------
 CID_65964440_JID_4760_neutraal
 ------------------------------
 Charge =  0 Multiplicity = 1

 SCF Done:  E(RB3LYP) =  -614.766898770     A.U. after    1 cycles

  Exact polarizability: 148.096   5.472 119.859   8.828  -3.675 104.152
 Approx polarizability: 183.482   6.311 183.861  20.760 -10.035 163.760

                      1                      2                      3
                      A                      A                      A
 Frequencies --     22.5105                31.1571                62.3038
 Red. masses --      4.0188                 4.8744                 3.3666
 Frc consts  --      0.0012                 0.0028                 0.0077
 IR Inten    --      0.1528                 0.2508                 0.1351

                      4                      5                      6
                      A                      A                      A
 Frequencies --     74.4664               103.3200               122.4048
 Red. masses --      2.0417                 3.0137                 3.0862
 Frc consts  --      0.0067                 0.0190                 0.0272
 IR Inten    --      0.0944                 0.5194                 0.1437

                      7                      8                      9
                      A                      A                      A
 Frequencies --    172.1654               226.0108               236.0429
 Red. masses --      2.9288                 2.3178                 1.3981
 Frc consts  --      0.0511                 0.0698                 0.0459
 IR Inten    --      1.4964                 0.8419                 0.5851

                     10                     11                     12
                      A                      A                      A
 Frequencies --    249.2287               277.4300               334.7591
 Red. masses --      2.7944                 2.0816                 2.4221
 Frc consts  --      0.1023                 0.0944                 0.1599
 IR Inten    --      1.2425                 0.1456                 0.9293

                     13                     14                     15
                      A                      A                      A
 Frequencies --    366.6912               390.3403               440.5338
 Red. masses --      1.9855                 2.1482                 3.0406
 Frc consts  --      0.1573                 0.1928                 0.3477
 IR Inten    --      2.6668                 0.1029                 2.0181

                     16                     17                     18
                      A                      A                      A
 Frequencies --    475.8709               628.9933               641.9118
 Red. masses --      3.2878                 2.8141                 3.6234
 Frc consts  --      0.4387                 0.6560                 0.8797
 IR Inten    --      7.3313                 2.3254                 2.3195

                     19                     20                     21
                      A                      A                      A
 Frequencies --    651.0040               665.7219               729.5186
 Red. masses --      3.5539                 3.0843                 1.9998
 Frc consts  --      0.8874                 0.8054                 0.6271
 IR Inten    --      0.6586                19.7535                 6.5527

                     22                     23                     24
                      A                      A                      A
 Frequencies --    742.3774               803.2885               813.6067
 Red. masses --      1.9530                 1.6916                 1.5473
 Frc consts  --      0.6342                 0.6431                 0.6035
 IR Inten    --     17.2643                28.5314                38.8362

                     25                     26                     27
                      A                      A                      A
 Frequencies --    819.1167               831.8212               852.5893
 Red. masses --      1.6790                 1.8266                 1.4561
 Frc consts  --      0.6637                 0.7447                 0.6236
 IR Inten    --     28.2869                10.8526                13.2087

                     28                     29                     30
                      A                      A                      A
 Frequencies --    896.8658               903.5053               910.0067
 Red. masses --      2.6520                 1.9108                 2.2886
 Frc consts  --      1.2568                 0.9190                 1.1166
 IR Inten    --      0.7540                 2.3285                13.5292

                     31                     32                     33
                      A                      A                      A
 Frequencies --    940.8205               942.7703               964.5471
 Red. masses --      1.8877                 6.3116                 2.2029
 Frc consts  --      0.9844                 3.3052                 1.2075
 IR Inten    --      1.0612                 3.8351                10.2705

                     34                     35                     36
                      A                      A                      A
 Frequencies --    985.6533               992.1504               997.7531
 Red. masses --      1.7510                 1.8070                 2.4688
 Frc consts  --      1.0023                 1.0480                 1.4480
 IR Inten    --     14.7655                 4.9923                16.7686

                     37                     38                     39
                      A                      A                      A
 Frequencies --   1042.9911              1057.3417              1067.7117
 Red. masses --      1.9055                 2.2013                 1.6290
 Frc consts  --      1.2213                 1.4500                 1.0941
 IR Inten    --      0.8627                 2.1909                 0.9003

                     40                     41                     42
                      A                      A                      A
 Frequencies --   1102.6209              1130.6348              1134.9843
 Red. masses --      1.6938                 5.0023                 2.9035
 Frc consts  --      1.2133                 3.7676                 2.2037
 IR Inten    --      5.4698                11.0439                45.9432

                     43                     44                     45
                      A                      A                      A
 Frequencies --   1147.7420              1189.5928              1197.1391
 Red. masses --      4.0152                 1.5359                 1.9041
 Frc consts  --      3.1164                 1.2806                 1.6078
 IR Inten    --     63.5467                 0.3246                 2.0650

                     46                     47                     48
                      A                      A                      A
 Frequencies --   1221.7559              1247.4103              1262.1232
 Red. masses --      1.5302                 2.1703                 1.5636
 Frc consts  --      1.3458                 1.9897                 1.4675
 IR Inten    --      2.8820                 3.7447                 3.1239

                     49                     50                     51
                      A                      A                      A
 Frequencies --   1265.4455              1269.5553              1287.8395
 Red. masses --      1.5277                 1.3440                 1.5336
 Frc consts  --      1.4414                 1.2763                 1.4986
 IR Inten    --      0.9748                 3.9088                 1.1099

                     52                     53                     54
                      A                      A                      A
 Frequencies --   1303.9442              1329.7043              1339.3946
 Red. masses --      1.4745                 1.3411                 1.3202
 Frc consts  --      1.4771                 1.3971                 1.3954
 IR Inten    --      0.8857                 1.8335                10.9875

                     55                     56                     57
                      A                      A                      A
 Frequencies --   1358.1555              1360.3077              1379.9748
 Red. masses --      1.6194                 1.3875                 1.6403
 Frc consts  --      1.7600                 1.5127                 1.8404
 IR Inten    --      1.1919                 1.7875                 1.7795

                     58                     59                     60
                      A                      A                      A
 Frequencies --   1383.1854              1386.1828              1425.9013
 Red. masses --      1.5521                 1.3104                 1.4152
 Frc consts  --      1.7496                 1.4836                 1.6953
 IR Inten    --     15.1449                14.7092                 1.4311

                     61                     62                     63
                      A                      A                      A
 Frequencies --   1442.3503              1489.0534              1513.1698
 Red. masses --      1.2346                 1.0763                 1.0877
 Frc consts  --      1.5132                 1.4061                 1.4673
 IR Inten    --      7.1658                 3.9035                 1.7609

                     64                     65                     66
                      A                      A                      A
 Frequencies --   1515.0113              1519.7097              1522.3387
 Red. masses --      1.1635                 1.0900                 1.0722
 Frc consts  --      1.5735                 1.4832                 1.4640
 IR Inten    --     13.8256                 2.8235                 5.3030

                     67                     68                     69
                      A                      A                      A
 Frequencies --   1532.1716              1534.5421              1540.3121
 Red. masses --      1.0950                 1.0648                 1.0738
 Frc consts  --      1.5146                 1.4773                 1.5010
 IR Inten    --     16.5511                 1.7031                 8.8528

                     70                     71                     72
                      A                      A                      A
 Frequencies --   1553.5878              1555.1779              1638.4597
 Red. masses --      1.1060                 5.2383                 6.6201
 Frc consts  --      1.5729                 7.4644                10.4710
 IR Inten    --      2.2335                35.3797                 1.6416

                     73                     74                     75
                      A                      A                      A
 Frequencies --   2976.9558              3041.4572              3047.5799
 Red. masses --      1.0701                 1.0386                 1.0581
 Frc consts  --      5.5873                 5.6607                 5.7900
 IR Inten    --     47.0762                30.3503                33.6753

                     76                     77                     78
                      A                      A                      A
 Frequencies --   3055.5831              3057.1175              3059.5986
 Red. masses --      1.0709                 1.0621                 1.0746
 Frc consts  --      5.8909                 5.8487                 5.9269
 IR Inten    --      7.6066                18.8143                 7.1679

                     79                     80                     81
                      A                      A                      A
 Frequencies --   3061.3571              3072.1444              3084.3193
 Red. masses --      1.0669                 1.0670                 1.0979
 Frc consts  --      5.8909                 5.9334                 6.1536
 IR Inten    --     79.0895                41.1753                22.7844

                     82                     83                     84
                      A                      A                      A
 Frequencies --   3091.4381              3102.1048              3102.7922
 Red. masses --      1.1041                 1.1024                 1.1048
 Frc consts  --      6.2171                 6.2506                 6.2665
 IR Inten    --      9.5829                24.3446                23.8783

                     85                     86                     87
                      A                      A                      A
 Frequencies --   3105.5666              3116.9471              3122.2718
 Red. masses --      1.1042                 1.1035                 1.1010
 Frc consts  --      6.2747                 6.3166                 6.3236
 IR Inten    --     22.4692                71.7092                46.0784

                     88                     89                     90
                      A                      A                      A
 Frequencies --   3274.8831              3296.3622              3503.0611
 Red. masses --      1.0975                 1.0991                 1.0736
 Frc consts  --      6.9350                 7.0363                 7.7623
 IR Inten    --      4.4798                 0.3378                 0.1431

 - Thermochemistry -
 -------------------
 Temperature   298.150 Kelvin.  Pressure   1.00000 Atm.
 Atom     1 has atomic number  6 and mass  12.00000

 Molecular mass:   194.14191 amu.
 Principal axes and moments of inertia in atomic units:
                           1         2         3
     Eigenvalues --  1028.143906153.522386373.43541
           X            0.99998  -0.00523  -0.00263
           Y            0.00518   0.99981  -0.01873
           Z            0.00272   0.01872   0.99982
 This molecule is an asymmetric top.
 Rotational symmetry number  1.
 Warning -- assumption of classical behavior for rotation
           may cause significant error
 Rotational temperatures (Kelvin)      0.08424     0.01408     0.01359
 Rotational constants (GHZ):           1.75534     0.29329     0.28317
 Zero-point vibrational energy     745981.2 (Joules/Mol)
                                  178.29379 (Kcal/Mol)
 Warning -- explicit consideration of  16 degrees of freedom as
           vibrations may cause significant error
 Vibrational temperatures:     32.39    44.83    89.64   107.14   148.65
          (Kelvin)            176.11   247.71   325.18   339.61   358.58
                              399.16   481.64   527.59   561.61   633.83
                              684.67   904.98   923.57   936.65   957.83
                             1049.61  1068.12  1155.75  1170.60  1178.53
                             1196.81  1226.69  1290.39  1299.94  1309.30
                             1353.63  1356.44  1387.77  1418.14  1427.48
                             1435.54  1500.63  1521.28  1536.20  1586.43
                             1626.73  1632.99  1651.34  1711.56  1722.42
                             1757.83  1794.75  1815.91  1820.69  1826.61
                             1852.91  1876.08  1913.15  1927.09  1954.08
                             1957.18  1985.48  1990.10  1994.41  2051.55
                             2075.22  2142.42  2177.11  2179.76  2186.52
                             2190.31  2204.45  2207.86  2216.17  2235.27
                             2237.55  2357.38  4283.18  4375.98  4384.79
                             4396.30  4398.51  4402.08  4404.61  4420.13
                             4437.65  4447.89  4463.24  4464.23  4468.22
                             4484.59  4492.25  4711.83  4742.73  5040.12

 Zero-point correction=                           0.284129 (Hartree/Particle)
 Thermal correction to Energy=                    0.297804
 Thermal correction to Enthalpy=                  0.298748
 Thermal correction to Gibbs Free Energy=         0.241651
 Sum of electronic and zero-point Energies=           -614.482770
 Sum of electronic and thermal Energies=              -614.469095
 Sum of electronic and thermal Enthalpies=            -614.468150
 Sum of electronic and thermal Free Energies=         -614.525248

                     E (Thermal)             CV                S
                      KCal/Mol        Cal/Mol-Kelvin    Cal/Mol-Kelvin
 Total                  186.875             51.617            120.172
 Electronic               0.000              0.000              0.000
 Translational            0.889              2.981             41.696
 Rotational               0.889              2.981             32.067
 Vibrational            185.097             45.656             46.410
 Vibration     1          0.593              1.985              6.399
 Vibration     2          0.594              1.983              5.754
 Vibration     3          0.597              1.972              4.383
 Vibration     4          0.599              1.966              4.032
 Vibration     5          0.605              1.947              3.391
 Vibration     6          0.610              1.930              3.062
 Vibration     7          0.626              1.877              2.412
 Vibration     8          0.650              1.801              1.910
 Vibration     9          0.655              1.786              1.833
 Vibration    10          0.662              1.764              1.736
 Vibration    11          0.678              1.715              1.549
 Vibration    12          0.716              1.606              1.237
 Vibration    13          0.740              1.541              1.094
 Vibration    14          0.758              1.491              0.999
 Vibration    15          0.800              1.382              0.825
 Vibration    16          0.833              1.304              0.721

 Optimization completed.
    -- Stationary point found.
 Normal termination of Gaussian 16 at Thu Dec 10 10:34:47 2020.

 ----------------------------------------------------------------------
 # B3LYP/6-311++G(d,p) empiricaldispersion=gd3bj scf=xqc pop=npa geom=c
 heck
 ----------------------------------------------------------------------

 --------------------------------------
 CID_65964440_JID_4760_Energie_neutraal
 --------------------------------------
 Structure from the checkpoint file:  "JID_4760.chk"
 Charge =  0 Multiplicity = 1

 SCF Done:  E(RB3LYP) =  -614.937382092     A.U. after   14 cycles
 Normal termination of Gaussian 16 at Thu Dec 10 10:39:16 2020.

 ----------------------------------------------------------------------
 # B3LYP/6-311++G(d,p) empiricaldispersion=gd3bj scf=xqc pop=npa geom=c
 heck
 ----------------------------------------------------------------------

 ------------------------------------
 CID_65964440_JID_4760_Energie_kation
 ------------------------------------
 Structure from the checkpoint file:  "JID_4760.chk"
 Charge =  1 Multiplicity = 2

 SCF Done:  E(UB3LYP) =  -614.632311573     A.U. after   22 cycles
 Normal termination of Gaussian 16 at Thu Dec 10 10:49:10 2020.
 Gaussian 16:  ES64L-G16RevA.03 25-Dec-2016

 ----------------------------------------------------------------------
 # B3LYP/6-311++G(d,p) empiricaldispersion=gd3bj scf=xqc pop=npa geom=c
 heck
 ----------------------------------------------------------------------

 -----------------------------------
 CID_65964440_JID_4760_Energie_anion
 -----------------------------------
 Structure from the checkpoint file:  "JID_4760.chk"
 Charge = -1 Multiplicity = 2

                         Standard orientation:
 ---------------------------------------------------------------------
 Center     Atomic      Atomic             Coordinates (Angstroms)
 Number     Number       Type             X           Y           Z
 ---------------------------------------------------------------------
      1          6           0       -2.199088    1.937761   -0.334529
      2          6           0       -1.824523    0.461265   -0.124436
      3          6           0       -2.690822   -0.454735   -1.016655
      4          6           0       -4.041103   -0.610516   -0.275552
      5          6           0       -3.762747   -0.220527    1.206156
      6          6           0       -2.238531   -0.003451    1.290644
      7          6           0       -0.319933    0.310320   -0.408786
      8          7           0        0.169657   -1.053314   -0.195759
      9          6           0        1.477193   -1.336964   -0.792054
     10          6           0        2.638732   -0.577024   -0.233705
     11          6           0        3.627944   -0.856806    0.657531
     12          7           0        4.417589    0.271855    0.863166
     13          6           0        3.880616    1.171045    0.102591
     14          8           0        2.797349    0.745849   -0.599439
     15          1           0       -1.954843    2.259417   -1.354311
     16          1           0       -3.269671    2.109451   -0.183261
     17          1           0       -1.655389    2.587065    0.362533
     18          1           0       -2.807682   -0.050029   -2.028959
     19          1           0       -2.184924   -1.421544   -1.104212
     20          1           0       -4.421768   -1.633460   -0.360108
     21          1           0       -4.807357    0.042407   -0.706722
     22          1           0       -4.104124   -0.985623    1.910626
     23          1           0       -4.293938    0.701525    1.465795
     24          1           0       -1.754340   -0.961678    1.515070
     25          1           0       -1.946586    0.706657    2.073554
     26          1           0       -0.139968    0.557508   -1.463196
     27          1           0        0.236934    1.060274    0.178594
     28          1           0        0.224069   -1.240847    0.802941
     29          1           0        1.686298   -2.404566   -0.660812
     30          1           0        1.401343   -1.153316   -1.870360
     31          1           0        3.834007   -1.790048    1.162466
     32          1           0        4.181994    2.198021   -0.043210
 ---------------------------------------------------------------------

 SCF Done:  E(UB3LYP) =  -614.923297729     A.U. after   33 cycles
 SCF Done:  E(UB3LYP) =  -614.923297729     a.u. after    1 cycles

 The electronic state is 2-A.
 Alpha  occ. eigenvalues --  -19.10319 -14.21958 -14.20045 -10.16057 -10.13349
 Alpha  occ. eigenvalues --  -10.11122 -10.10038 -10.08553 -10.07458 -10.06317
 Alpha  occ. eigenvalues --  -10.06245 -10.05850 -10.05542 -10.05263  -1.03721
 Alpha  occ. eigenvalues --   -0.82841  -0.81177  -0.74097  -0.68617  -0.65048
 Alpha  occ. eigenvalues --   -0.60579  -0.59963  -0.55996  -0.54209  -0.52793
 Alpha  occ. eigenvalues --   -0.48780  -0.46636  -0.43992  -0.43031  -0.39840
 Alpha  occ. eigenvalues --   -0.38827  -0.37358  -0.36473  -0.34931  -0.33951
 Alpha  occ. eigenvalues --   -0.33682  -0.32946  -0.31574  -0.29875  -0.29269
 Alpha  occ. eigenvalues --   -0.28850  -0.27645  -0.27135  -0.23739  -0.23585
 Alpha  occ. eigenvalues --   -0.23102  -0.22070  -0.21726  -0.21460  -0.20614
 Alpha  occ. eigenvalues --   -0.20206  -0.15887  -0.12921   0.04465
 Alpha virt. eigenvalues --    0.06545   0.07010   0.07701   0.07733   0.08217
 Alpha virt. eigenvalues --    0.08923   0.09310   0.09986   0.10217   0.10668
 Alpha virt. eigenvalues --    0.11469   0.12035   0.12305   0.12721   0.13460

  Beta  occ. eigenvalues --  -19.10276 -14.21959 -14.20024 -10.16005 -10.13325
  Beta  occ. eigenvalues --  -10.11100 -10.10011 -10.08537 -10.07458 -10.06302
  Beta  occ. eigenvalues --  -10.06233 -10.05827 -10.05515 -10.05247  -1.03652
  Beta  occ. eigenvalues --   -0.82803  -0.81139  -0.74075  -0.68548  -0.65012
  Beta  occ. eigenvalues --   -0.60543  -0.59901  -0.55936  -0.54156  -0.52732
  Beta  occ. eigenvalues --   -0.48704  -0.46588  -0.43928  -0.42980  -0.39796
  Beta  occ. eigenvalues --   -0.38696  -0.37302  -0.36426  -0.34859  -0.33921
  Beta  occ. eigenvalues --   -0.33633  -0.32886  -0.31537  -0.29838  -0.29237
  Beta  occ. eigenvalues --   -0.28810  -0.27615  -0.27095  -0.23707  -0.23556
  Beta  occ. eigenvalues --   -0.22975  -0.22034  -0.21696  -0.21434  -0.20588
  Beta  occ. eigenvalues --   -0.20189  -0.15728  -0.12872
  Beta virt. eigenvalues --    0.06571   0.07374   0.07622   0.08047   0.08287
  Beta virt. eigenvalues --    0.08618   0.09321   0.09646   0.10431   0.10608
  Beta virt. eigenvalues --    0.11061   0.11644   0.12349   0.12523   0.12863

 Mulliken charges and spin densities:
               1          2
     1  C    0.759747  -1.438200
     2  C   -0.138876   1.133640
     3  C    0.248096  -0.756252
     4  C    0.168544  -0.546610
     5  C    0.101218  -0.572015
     6  C    0.398338  -0.788117
     7  C   -1.506798   0.619255
     8  N   -0.002934   0.119952
     9  C    1.679853  -2.500600
    10  C   -0.725317   1.294027
    11  C    0.062840  -0.428200
    12  N   -0.133611   0.022530
    13  C   -0.009442   0.064063
    14  O   -0.021622   0.022856
    15  H   -0.169316   0.304016
    16  H    0.080881   0.066334
    17  H   -0.336624   0.480049
    18  H   -0.099566   0.248592
    19  H    0.161004   0.027411
    20  H   -0.012852   0.150154
    21  H   -0.064550   0.204341
    22  H   -0.055720   0.208179
    23  H   -0.015773   0.161704
    24  H   -0.182597   0.272849
    25  H   -0.155374   0.323038
    26  H   -0.007373   0.175322
    27  H    0.282134  -0.107484
    28  H   -0.035039   0.256085
    29  H   -0.535094   0.756004
    30  H   -0.083212   0.256394
    31  H   -0.455328   0.605591
    32  H   -0.195640   0.365089
 Sum of Mulliken charges =  -1.00000   1.00000

 Dipole moment (field-independent basis, Debye):
    X=             -0.3196    Y=              1.0389    Z=             -1.3902  Tot=              1.7647
 Quadrupole moment (field-independent basis, Debye-Ang):
   XX=           -161.9014   YY=           -130.8128   ZZ=           -120.9158
   XY=              6.5228   XZ=             -5.8443   YZ=              0.0278

 Summary of Natural Population Analysis:

                                       Natural Population
                Natural  -----------------------------------------------
    Atom  No    Charge         Core      Valence    Rydberg      Total
 -----------------------------------------------------------------------
      C    1   -0.28620      0.99962     2.27868    0.00790     3.28620
      C    2   -0.04715      0.99957     2.03268    0.01490     3.04715
      C    3   -0.19118      0.99959     2.18369    0.00790     3.19118
      C    4   -0.19281      0.99965     2.18621    0.00695     3.19281
      C    5   -0.19116      0.99965     2.18450    0.00702     3.19116
      C    6   -0.19092      0.99959     2.18192    0.00941     3.19092
      C    7   -0.08363      0.99955     2.07302    0.01107     3.08363
      N    8   -0.33243      0.99975     2.82143    0.01125     3.83243
      C    9   -0.10966      0.99958     2.09745    0.01263     3.10966
      C   10    0.13027      0.99947     1.85652    0.01375     2.86973
      C   11   -0.04452      0.99949     2.03197    0.01306     3.04452
      N   12   -0.25459      0.99972     2.74345    0.01142     3.75459
      C   13    0.18442      0.99964     1.79727    0.01866     2.81558
      O   14   -0.23492      0.99986     3.22687    0.00819     4.23492
      H   15    0.09962      0.00000     0.39931    0.00107     0.40038
      H   16    0.09987      0.00000     0.39904    0.00109     0.40013
      H   17    0.10074      0.00000     0.39806    0.00120     0.39926
      H   18    0.09755      0.00000     0.40132    0.00113     0.40245
      H   19    0.10808      0.00000     0.38979    0.00213     0.39192
      H   20    0.09636      0.00000     0.40247    0.00117     0.40364
      H   21    0.09424      0.00000     0.40451    0.00126     0.40576
      H   22    0.09736      0.00000     0.40149    0.00114     0.40264
      H   23    0.09399      0.00000     0.40466    0.00134     0.40601
      H   24    0.09797      0.00000     0.40021    0.00182     0.40203
      H   25    0.10100      0.00000     0.39784    0.00116     0.39900
      H   26    0.09398      0.00000     0.40429    0.00173     0.40602
      H   27    0.08757      0.00000     0.41055    0.00187     0.41243
      H   28    0.17416      0.00000     0.32187    0.00397     0.32584
      H   29    0.10769      0.00000     0.39054    0.00177     0.39231
      H   30    0.10152      0.00000     0.39701    0.00147     0.39848
      H   31    0.10403      0.00000     0.39446    0.00150     0.39597
      H   32    0.08874      0.00000     0.41002    0.00125     0.41126
 =======================================================================
   * Total *    0.00000     13.99472    38.82310    0.18218    53.00000

 Normal termination of Gaussian 16 at Thu Dec 10 11:04:25 2020.
