 Gaussian 16, Revision A.03,

 -----------------------------------------------------------
 # opt freq B3LYP/6-31G(d) empiricaldispersion=gd3bj scf=xqc
 -----------------------------------------------------------

 ------------------------------
 CID_81179769_JID_3821_neutraal
 ------------------------------
 Symbolic Z-matrix:
 Charge =  0 Multiplicity = 1

 SCF Done:  E(RB3LYP) =  -628.606233913     A.U. after   15 cycles
 SCF Done:  E(RB3LYP) =  -628.620994035     A.U. after   12 cycles
 SCF Done:  E(RB3LYP) =  -628.622010984     A.U. after   12 cycles
 SCF Done:  E(RB3LYP) =  -628.621985499     A.U. after   12 cycles
 SCF Done:  E(RB3LYP) =  -628.621226896     A.U. after   13 cycles
 SCF Done:  E(RB3LYP) =  -628.619603499     A.U. after   12 cycles
 SCF Done:  E(RB3LYP) =  -628.622413343     A.U. after   10 cycles
 SCF Done:  E(RB3LYP) =  -628.623425962     A.U. after   12 cycles
 SCF Done:  E(RB3LYP) =  -628.623657878     A.U. after   12 cycles
 SCF Done:  E(RB3LYP) =  -628.623794593     A.U. after   12 cycles
 SCF Done:  E(RB3LYP) =  -628.629299838     A.U. after    8 cycles
 SCF Done:  E(RB3LYP) =  -628.629300422     A.U. after    9 cycles
 SCF Done:  E(RB3LYP) =  -628.629301105     A.U. after   10 cycles
 SCF Done:  E(RB3LYP) =  -628.629301508     A.U. after    9 cycles
 SCF Done:  E(RB3LYP) =  -628.629301626     A.U. after    8 cycles
 SCF Done:  E(RB3LYP) =  -628.629301659     A.U. after    7 cycles
 Optimization completed.
    -- Stationary point found.
 Normal termination of Gaussian 16 at Sun Dec 13 20:17:57 2020.

 --------------------------------------------------------------------
 #N Geom=AllCheck Guess=TCheck SCRF=Check GenChk RB3LYP/6-31G(d) Freq
 --------------------------------------------------------------------

 Structure from the checkpoint file:  "JID_3821.chk"
 ------------------------------
 CID_81179769_JID_3821_neutraal
 ------------------------------
 Charge =  0 Multiplicity = 1

 SCF Done:  E(RB3LYP) =  -628.629301659     A.U. after    1 cycles

  Exact polarizability: 117.904  -0.047  96.601   1.663   3.528  99.913
 Approx polarizability: 151.281   2.217 134.758   3.046  12.136 164.735

                      1                      2                      3
                      A                      A                      A
 Frequencies --     11.4369                38.6115                62.9108
 Red. masses --      3.6574                 5.8870                 7.2981
 Frc consts  --      0.0003                 0.0052                 0.0170
 IR Inten    --      3.3624                 8.2568                 0.9113

                      4                      5                      6
                      A                      A                      A
 Frequencies --     72.1983               136.7518               138.7076
 Red. masses --      3.9382                 2.8642                 1.7469
 Frc consts  --      0.0121                 0.0316                 0.0198
 IR Inten    --      1.8355                 1.9128               130.0383

                      7                      8                      9
                      A                      A                      A
 Frequencies --    145.8695               217.5674               233.3906
 Red. masses --      1.8316                 3.1564                 2.3396
 Frc consts  --      0.0230                 0.0880                 0.0751
 IR Inten    --     87.7884                 2.0849                 6.7965

                     10                     11                     12
                      A                      A                      A
 Frequencies --    243.5965               248.7894               296.3025
 Red. masses --      2.0335                 1.1131                 2.1661
 Frc consts  --      0.0711                 0.0406                 0.1120
 IR Inten    --      9.6176                 0.1810                15.0449

                     13                     14                     15
                      A                      A                      A
 Frequencies --    312.4165               360.1653               374.9608
 Red. masses --      1.8360                 3.5192                 3.0457
 Frc consts  --      0.1056                 0.2690                 0.2523
 IR Inten    --     27.3210                 3.2766                 0.6026

                     16                     17                     18
                      A                      A                      A
 Frequencies --    393.0158               417.0716               525.1285
 Red. masses --      3.0820                 3.4540                 3.6609
 Frc consts  --      0.2805                 0.3540                 0.5948
 IR Inten    --     12.1617                 8.7491                11.8259

                     19                     20                     21
                      A                      A                      A
 Frequencies --    554.8446               594.9275               627.0532
 Red. masses --      3.5267                 1.2027                 2.8454
 Frc consts  --      0.6397                 0.2508                 0.6592
 IR Inten    --     13.4160                14.1674                 8.9643

                     22                     23                     24
                      A                      A                      A
 Frequencies --    636.7941               676.4859               719.6573
 Red. masses --      2.7031                 1.5299                 2.4126
 Frc consts  --      0.6458                 0.4125                 0.7362
 IR Inten    --      5.1955                47.0719                22.9210

                     25                     26                     27
                      A                      A                      A
 Frequencies --    760.7836               773.1270               801.6233
 Red. masses --      2.8469                 4.8057                 1.2751
 Frc consts  --      0.9708                 1.6924                 0.4828
 IR Inten    --     47.2949                 2.0410                 6.0022

                     28                     29                     30
                      A                      A                      A
 Frequencies --    824.6479               844.7515               898.9184
 Red. masses --      2.2742                 1.9882                 1.7791
 Frc consts  --      0.9112                 0.8359                 0.8470
 IR Inten    --      0.3977                43.9064                58.6632

                     31                     32                     33
                      A                      A                      A
 Frequencies --    907.6311               949.6600               957.0753
 Red. masses --      1.8728                 2.3049                 1.7707
 Frc consts  --      0.9090                 1.2247                 0.9556
 IR Inten    --     19.7685                 3.6491                11.8877

                     34                     35                     36
                      A                      A                      A
 Frequencies --    990.4942              1052.8974              1065.6349
 Red. masses --      2.8408                 1.8609                 1.3851
 Frc consts  --      1.6421                 1.2155                 0.9267
 IR Inten    --      1.9375                20.5953                25.7849

                     37                     38                     39
                      A                      A                      A
 Frequencies --   1067.6652              1098.8814              1119.4478
 Red. masses --      1.1822                 3.2887                 1.9456
 Frc consts  --      0.7940                 2.3398                 1.4365
 IR Inten    --      8.9443                 2.4306                 6.2192

                     40                     41                     42
                      A                      A                      A
 Frequencies --   1127.2061              1202.6520              1208.6072
 Red. masses --      2.8223                 2.9750                 1.9528
 Frc consts  --      2.1128                 2.5352                 1.6807
 IR Inten    --     43.3737                21.4910                 9.6642

                     43                     44                     45
                      A                      A                      A
 Frequencies --   1224.9963              1243.6637              1264.1691
 Red. masses --      1.6949                 1.4023                 1.2712
 Frc consts  --      1.4985                 1.2779                 1.1969
 IR Inten    --      4.5992                 2.3402                 1.6913

                     46                     47                     48
                      A                      A                      A
 Frequencies --   1274.9493              1294.6962              1305.4605
 Red. masses --      1.5404                 1.3641                 1.7966
 Frc consts  --      1.4753                 1.3472                 1.8040
 IR Inten    --     43.5295                 8.0406                10.4494

                     49                     50                     51
                      A                      A                      A
 Frequencies --   1324.2303              1377.4635              1395.7143
 Red. masses --      1.9703                 1.2537                 2.4587
 Frc consts  --      2.0357                 1.4015                 2.8219
 IR Inten    --    106.5778                 1.2412                94.2154

                     52                     53                     54
                      A                      A                      A
 Frequencies --   1422.2309              1428.8415              1491.7714
 Red. masses --      2.7623                 1.3150                 1.0945
 Frc consts  --      3.2920                 1.5817                 1.4351
 IR Inten    --    108.6137                19.3864                 7.6706

                     55                     56                     57
                      A                      A                      A
 Frequencies --   1504.9338              1513.1494              1519.4178
 Red. masses --      1.3866                 1.0997                 1.0447
 Frc consts  --      1.8503                 1.4835                 1.4210
 IR Inten    --     35.8741                 4.6055                 6.7170

                     58                     59                     60
                      A                      A                      A
 Frequencies --   1531.9972              1533.9850              1644.2482
 Red. masses --      1.1737                 1.1838                 1.2482
 Frc consts  --      1.6231                 1.6413                 1.9882
 IR Inten    --      0.7458                17.8703               106.1301

                     61                     62                     63
                      A                      A                      A
 Frequencies --   1693.2197              1770.8172              1806.0572
 Red. masses --      1.0932                 8.6346                 8.9345
 Frc consts  --      1.8465                15.9530                17.1705
 IR Inten    --     39.3887               344.5989               244.6295

                     64                     65                     66
                      A                      A                      A
 Frequencies --   3053.3544              3058.5271              3065.1759
 Red. masses --      1.0599                 1.0349                 1.0674
 Frc consts  --      5.8218                 5.7040                 5.9085
 IR Inten    --     31.3461                22.5721                32.5117

                     67                     68                     69
                      A                      A                      A
 Frequencies --   3090.7094              3108.3734              3127.7963
 Red. masses --      1.0599                 1.1057                 1.1012
 Frc consts  --      5.9652                 6.2947                 6.3477
 IR Inten    --     40.4682                20.1501                16.9779

                     70                     71                     72
                      A                      A                      A
 Frequencies --   3143.7681              3148.8337              3161.7795
 Red. masses --      1.1074                 1.1028                 1.1004
 Frc consts  --      6.4483                 6.4424                 6.4810
 IR Inten    --     28.0247                18.6138                12.9456

                     73                     74                     75
                      A                      A                      A
 Frequencies --   3171.6118              3456.7580              3541.6275
 Red. masses --      1.0870                 1.0493                 1.0929
 Frc consts  --      6.4423                 7.3871                 8.0766
 IR Inten    --      8.3204                 0.7553                 0.6672

                     76                     77                     78
                      A                      A                      A
 Frequencies --   3557.8843              3590.8158              3720.3086
 Red. masses --      1.0746                 1.0453                 1.1049
 Frc consts  --      8.0148                 7.9410                 9.0101
 IR Inten    --     39.6068                34.4379                30.8201

 - Thermochemistry -
 -------------------
 Temperature   298.150 Kelvin.  Pressure   1.00000 Atm.
 Atom     1 has atomic number  6 and mass  12.00000

 Molecular mass:   185.11643 amu.
 Principal axes and moments of inertia in atomic units:
                           1         2         3
     Eigenvalues --  1429.917613476.450153601.42558
           X            0.99979  -0.01893   0.00801
           Y            0.01964   0.99468  -0.10109
           Z           -0.00606   0.10123   0.99485
 This molecule is an asymmetric top.
 Rotational symmetry number  1.
 Warning -- assumption of classical behavior for rotation
           may cause significant error
 Rotational temperatures (Kelvin)      0.06057     0.02491     0.02405
 Rotational constants (GHZ):           1.26213     0.51913     0.50112
 Zero-point vibrational energy     629556.9 (Joules/Mol)
                                  150.46771 (Kcal/Mol)
 Warning -- explicit consideration of  20 degrees of freedom as
           vibrations may cause significant error
 Vibrational temperatures:     16.46    55.55    90.51   103.88   196.76
          (Kelvin)            199.57   209.87   313.03   335.80   350.48
                              357.95   426.31   449.50   518.20   539.48
                              565.46   600.07   755.54   798.30   855.97
                              902.19   916.20   973.31  1035.43  1094.60
                             1112.36  1153.36  1186.48  1215.41  1293.34
                             1305.88  1366.35  1377.02  1425.10  1514.88
                             1533.21  1536.13  1581.05  1610.64  1621.80
                             1730.35  1738.92  1762.50  1789.35  1818.86
                             1834.37  1862.78  1878.27  1905.27  1981.86
                             2008.12  2046.27  2055.78  2146.33  2165.26
                             2177.08  2186.10  2204.20  2207.06  2365.71
                             2436.17  2547.81  2598.51  4393.10  4400.54
                             4410.10  4446.84  4472.26  4500.20  4523.18
                             4530.47  4549.10  4563.24  4973.50  5095.61
                             5119.00  5166.38  5352.69

 Zero-point correction=                           0.239786 (Hartree/Particle)
 Thermal correction to Energy=                    0.254162
 Thermal correction to Enthalpy=                  0.255106
 Thermal correction to Gibbs Free Energy=         0.196934
 Sum of electronic and zero-point Energies=           -628.389516
 Sum of electronic and thermal Energies=              -628.375140
 Sum of electronic and thermal Enthalpies=            -628.374196
 Sum of electronic and thermal Free Energies=         -628.432367

                     E (Thermal)             CV                S
                      KCal/Mol        Cal/Mol-Kelvin    Cal/Mol-Kelvin
 Total                  159.489             52.785            122.433
 Electronic               0.000              0.000              0.000
 Translational            0.889              2.981             41.554
 Rotational               0.889              2.981             31.260
 Vibrational            157.711             46.823             49.619
 Vibration     1          0.593              1.987              7.744
 Vibration     2          0.594              1.981              5.329
 Vibration     3          0.597              1.972              4.364
 Vibration     4          0.598              1.967              4.093
 Vibration     5          0.614              1.917              2.849
 Vibration     6          0.614              1.915              2.822
 Vibration     7          0.617              1.907              2.725
 Vibration     8          0.646              1.814              1.979
 Vibration     9          0.654              1.790              1.853
 Vibration    10          0.659              1.773              1.776
 Vibration    11          0.662              1.765              1.739
 Vibration    12          0.690              1.681              1.438
 Vibration    13          0.701              1.650              1.350
 Vibration    14          0.735              1.554              1.121
 Vibration    15          0.746              1.523              1.059
 Vibration    16          0.760              1.485              0.989
 Vibration    17          0.780              1.433              0.902
 Vibration    18          0.880              1.194              0.598
 Vibration    19          0.910              1.129              0.534
 Vibration    20          0.953              1.043              0.458

                           ! Non-Optimized Parameters !
 Normal termination of Gaussian 16 at Sun Dec 13 20:25:23 2020.

 ----------------------------------------------------------------------
 # B3LYP/6-311++G(d,p) empiricaldispersion=gd3bj scf=xqc pop=npa geom=c
 heck
 ----------------------------------------------------------------------

 --------------------------------------
 CID_81179769_JID_3821_Energie_neutraal
 --------------------------------------
 Structure from the checkpoint file:  "JID_3821.chk"
 Charge =  0 Multiplicity = 1

 SCF Done:  E(RB3LYP) =  -628.829675055     A.U. after   14 cycles
 Normal termination of Gaussian 16 at Sun Dec 13 20:28:33 2020.

 ----------------------------------------------------------------------
 # B3LYP/6-311++G(d,p) empiricaldispersion=gd3bj scf=xqc pop=npa geom=c
 heck
 ----------------------------------------------------------------------

 ------------------------------------
 CID_81179769_JID_3821_Energie_kation
 ------------------------------------
 Structure from the checkpoint file:  "JID_3821.chk"
 Charge =  1 Multiplicity = 2

 SCF Done:  E(UB3LYP) =  -628.509816294     A.U. after   25 cycles
 Normal termination of Gaussian 16 at Sun Dec 13 20:36:27 2020.
 Gaussian 16:  ES64L-G16RevA.03 25-Dec-2016

 ----------------------------------------------------------------------
 # B3LYP/6-311++G(d,p) empiricaldispersion=gd3bj scf=xqc pop=npa geom=c
 heck
 ----------------------------------------------------------------------

 -----------------------------------
 CID_81179769_JID_3821_Energie_anion
 -----------------------------------
 Structure from the checkpoint file:  "JID_3821.chk"
 Charge = -1 Multiplicity = 2

                         Standard orientation:
 ---------------------------------------------------------------------
 Center     Atomic      Atomic             Coordinates (Angstroms)
 Number     Number       Type             X           Y           Z
 ---------------------------------------------------------------------
      1          6           0        2.268361   -1.592745    0.918476
      2          6           0        1.430628   -0.429334    0.372833
      3          6           0        2.360264    0.646249   -0.205700
      4          8           0        2.876738    0.518478   -1.307008
      5          7           0        2.590858    1.716876    0.605789
      6          7           0        0.550487   -0.881426   -0.695813
      7          6           0       -0.797640   -0.692240   -0.838437
      8          8           0       -1.348108   -0.889164   -1.916444
      9          6           0       -1.590675   -0.233942    0.398803
     10          6           0       -1.439564    1.309638    0.605097
     11          6           0       -2.743895    1.508535   -0.206925
     12          6           0       -3.082586    0.016244    0.030490
     13          7           0       -1.240071   -1.058660    1.552898
     14          1           0        2.860962   -2.042725    0.115754
     15          1           0        1.600811   -2.347952    1.341548
     16          1           0        2.953882   -1.246579    1.700138
     17          1           0        0.815538   -0.038156    1.180290
     18          1           0        2.109042    1.841161    1.482669
     19          1           0        3.207894    2.448442    0.280661
     20          1           0        1.024843   -1.044063   -1.579466
     21          1           0       -1.568825    1.560201    1.665006
     22          1           0       -0.524765    1.787890    0.240016
     23          1           0       -2.535846    1.703311   -1.261715
     24          1           0       -3.450990    2.255330    0.163700
     25          1           0       -3.475376   -0.556266   -0.810599
     26          1           0       -3.716581   -0.123764    0.913729
     27          1           0       -1.858386   -0.821850    2.327887
     28          1           0       -1.409512   -2.041452    1.340059
 ---------------------------------------------------------------------

 SCF Done:  E(UB3LYP) =  -628.823774102     A.U. after   30 cycles

 The electronic state is 2-A.
 Alpha  occ. eigenvalues --  -18.99560 -18.99200 -14.23640 -14.23412 -14.20403
 Alpha  occ. eigenvalues --  -10.17840 -10.17531 -10.12045 -10.11858 -10.07273
 Alpha  occ. eigenvalues --  -10.07103 -10.07068 -10.06579  -0.94844  -0.94140
 Alpha  occ. eigenvalues --   -0.83024  -0.80827  -0.80429  -0.72574  -0.67168
 Alpha  occ. eigenvalues --   -0.57746  -0.56685  -0.56113  -0.50818  -0.49169
 Alpha  occ. eigenvalues --   -0.45022  -0.44500  -0.40920  -0.39595  -0.39087
 Alpha  occ. eigenvalues --   -0.37243  -0.36571  -0.35366  -0.34157  -0.32952
 Alpha  occ. eigenvalues --   -0.31074  -0.30434  -0.29372  -0.29106  -0.28081
 Alpha  occ. eigenvalues --   -0.27104  -0.26617  -0.23834  -0.23201  -0.21786
 Alpha  occ. eigenvalues --   -0.18057  -0.17737  -0.16180  -0.15400  -0.14837
 Alpha  occ. eigenvalues --    0.04114
 Alpha virt. eigenvalues --    0.06484   0.07589   0.08680   0.08947   0.09803
 Alpha virt. eigenvalues --    0.09985   0.10526   0.10751   0.11355   0.11685
 Alpha virt. eigenvalues --    0.12732   0.12951   0.13139   0.13560   0.14238

  Beta  occ. eigenvalues --  -18.99552 -18.99198 -14.23638 -14.23320 -14.20360
  Beta  occ. eigenvalues --  -10.17837 -10.17528 -10.12031 -10.11858 -10.07238
  Beta  occ. eigenvalues --  -10.07084 -10.07062 -10.06566  -0.94829  -0.94132
  Beta  occ. eigenvalues --   -0.83012  -0.80712  -0.80381  -0.72530  -0.67140
  Beta  occ. eigenvalues --   -0.57709  -0.56629  -0.56054  -0.50764  -0.49078
  Beta  occ. eigenvalues --   -0.44947  -0.44445  -0.40874  -0.39531  -0.39025
  Beta  occ. eigenvalues --   -0.37210  -0.36549  -0.35334  -0.34130  -0.32933
  Beta  occ. eigenvalues --   -0.31042  -0.30409  -0.29343  -0.29078  -0.28057
  Beta  occ. eigenvalues --   -0.27082  -0.26590  -0.23801  -0.23173  -0.21763
  Beta  occ. eigenvalues --   -0.18013  -0.17685  -0.16168  -0.15374  -0.14804
  Beta virt. eigenvalues --    0.06934   0.07853   0.07905   0.08974   0.09472
  Beta virt. eigenvalues --    0.10067   0.10290   0.10718   0.11208   0.11639
  Beta virt. eigenvalues --    0.12039   0.13037   0.13257   0.13575   0.13770

 Mulliken charges and spin densities:
               1          2
     1  C   -0.244250  -0.353271
     2  C    0.412032  -0.569024
     3  C    0.118176  -0.004799
     4  O   -0.354610  -0.008802
     5  N   -0.290833  -0.045324
     6  N   -0.143429   0.070552
     7  C    0.390571  -0.675639
     8  O   -0.319696   0.002081
     9  C   -0.530430   0.625519
    10  C    0.601941  -0.763610
    11  C   -0.312648  -0.078599
    12  C    0.417446  -0.753219
    13  N   -0.290406   0.006796
    14  H    0.144079   0.009883
    15  H    0.041387   0.120974
    16  H   -0.208086   0.355906
    17  H    0.499745  -0.205783
    18  H   -0.451069   0.726355
    19  H   -0.284465   0.598507
    20  H    0.359782  -0.050547
    21  H   -0.583559   0.755481
    22  H    0.021317   0.125425
    23  H    0.125711   0.026635
    24  H    0.083286   0.059154
    25  H    0.166874   0.024946
    26  H   -0.161909   0.283982
    27  H   -0.218671   0.485963
    28  H    0.011714   0.230455
 Sum of Mulliken charges =  -1.00000   1.00000

 Dipole moment (field-independent basis, Debye):
    X=             -2.1459    Y=             -3.5870    Z=             -3.6304  Tot=              5.5364
 Quadrupole moment (field-independent basis, Debye-Ang):
   XX=           -131.2176   YY=           -114.0664   ZZ=           -129.3079
   XY=            -12.2719   XZ=              1.0046   YZ=             -8.9825

 Summary of Natural Population Analysis:

                                       Natural Population
                Natural  -----------------------------------------------
    Atom  No    Charge         Core      Valence    Rydberg      Total
 -----------------------------------------------------------------------
      C    1   -0.28134      0.99964     2.27615    0.00556     3.28134
      C    2   -0.05864      0.99955     2.04516    0.01393     3.05864
      C    3    0.33707      0.99967     1.63918    0.02408     2.66293
      O    4   -0.33076      0.99988     3.32487    0.00601     4.33076
      N    5   -0.39394      0.99970     2.88542    0.00881     3.89394
      N    6   -0.31410      0.99965     2.80421    0.01025     3.81410
      C    7    0.34628      0.99959     1.62930    0.02483     2.65372
      O    8   -0.32577      0.99988     3.32051    0.00539     4.32577
      C    9    0.01826      0.99952     1.96659    0.01563     2.98174
      C   10   -0.18839      0.99960     2.17867    0.01012     3.18839
      C   11   -0.19301      0.99964     2.18547    0.00790     3.19301
      C   12   -0.19103      0.99961     2.18224    0.00918     3.19103
      N   13   -0.42129      0.99974     2.91017    0.01137     3.92129
      H   14    0.09940      0.00000     0.39965    0.00096     0.40060
      H   15    0.10513      0.00000     0.39392    0.00095     0.39487
      H   16    0.10371      0.00000     0.39538    0.00091     0.39629
      H   17    0.12106      0.00000     0.37472    0.00422     0.37894
      H   18    0.20479      0.00000     0.27824    0.01697     0.29521
      H   19    0.19818      0.00000     0.29809    0.00373     0.30182
      H   20    0.20058      0.00000     0.29727    0.00215     0.29942
      H   21    0.10490      0.00000     0.39235    0.00275     0.39510
      H   22    0.10093      0.00000     0.39702    0.00205     0.39907
      H   23    0.10010      0.00000     0.39886    0.00103     0.39990
      H   24    0.09509      0.00000     0.40404    0.00087     0.40491
      H   25    0.10897      0.00000     0.39006    0.00097     0.39103
      H   26    0.09620      0.00000     0.40239    0.00142     0.40380
      H   27    0.18112      0.00000     0.31475    0.00413     0.31888
      H   28    0.17652      0.00000     0.32143    0.00205     0.32348
 =======================================================================
   * Total *   -0.00000     12.99567    36.80611    0.19822    50.00000

 Normal termination of Gaussian 16 at Sun Dec 13 20:45:30 2020.
