 Gaussian 16, Revision A.03,

 -----------------------------------------------------------
 # opt freq B3LYP/6-31G(d) empiricaldispersion=gd3bj scf=xqc
 -----------------------------------------------------------

 -------------------------------
 CID_131193299_JID_4004_neutraal
 -------------------------------
 Symbolic Z-matrix:
 Charge =  0 Multiplicity = 1

 SCF Done:  E(RB3LYP) =  -971.230028922     A.U. after   15 cycles
 SCF Done:  E(RB3LYP) =  -971.240393941     A.U. after   13 cycles
 SCF Done:  E(RB3LYP) =  -971.242511357     A.U. after   12 cycles
 SCF Done:  E(RB3LYP) =  -971.243272904     A.U. after   11 cycles
 SCF Done:  E(RB3LYP) =  -971.243561935     A.U. after   11 cycles
 SCF Done:  E(RB3LYP) =  -971.243737140     A.U. after   11 cycles
 SCF Done:  E(RB3LYP) =  -971.243794721     A.U. after   10 cycles
 SCF Done:  E(RB3LYP) =  -971.243812361     A.U. after   10 cycles
 SCF Done:  E(RB3LYP) =  -971.243821928     A.U. after   10 cycles
 SCF Done:  E(RB3LYP) =  -971.243828522     A.U. after   10 cycles
 SCF Done:  E(RB3LYP) =  -971.243839381     A.U. after   11 cycles
 SCF Done:  E(RB3LYP) =  -971.243843216     A.U. after   10 cycles
 SCF Done:  E(RB3LYP) =  -971.243844813     A.U. after   10 cycles
 SCF Done:  E(RB3LYP) =  -971.243845150     A.U. after    8 cycles
 SCF Done:  E(RB3LYP) =  -971.243845237     A.U. after    7 cycles
 Optimization completed.
    -- Stationary point found.
 Normal termination of Gaussian 16 at Thu Dec 10 09:16:53 2020.

 --------------------------------------------------------------------
 #N Geom=AllCheck Guess=TCheck SCRF=Check GenChk RB3LYP/6-31G(d) Freq
 --------------------------------------------------------------------

 Structure from the checkpoint file:  "JID_4004.chk"
 -------------------------------
 CID_131193299_JID_4004_neutraal
 -------------------------------
 Charge =  0 Multiplicity = 1

 SCF Done:  E(RB3LYP) =  -971.243845237     A.U. after    1 cycles

  Exact polarizability: 216.082   3.997 143.783   8.742   2.968  67.231
 Approx polarizability: 323.047  14.881 251.913  24.430   8.459 106.191

                      1                      2                      3
                      A                      A                      A
 Frequencies --     19.2624                74.8972                83.0115
 Red. masses --      3.3740                 4.2799                 2.4052
 Frc consts  --      0.0007                 0.0141                 0.0098
 IR Inten    --      0.8226                 1.1030                 0.7600

                      4                      5                      6
                      A                      A                      A
 Frequencies --    126.5335               182.8599               201.9541
 Red. masses --      4.0989                 3.2112                 4.3661
 Frc consts  --      0.0387                 0.0633                 0.1049
 IR Inten    --      3.0071                 6.8590                 0.6176

                      7                      8                      9
                      A                      A                      A
 Frequencies --    206.6977               241.7231               269.6662
 Red. masses --      5.0128                 2.4512                 1.3248
 Frc consts  --      0.1262                 0.0844                 0.0568
 IR Inten    --      2.2449                 2.4180                 4.6404

                     10                     11                     12
                      A                      A                      A
 Frequencies --    271.1605               293.1587               328.1697
 Red. masses --      1.1755                 1.1152                 4.2097
 Frc consts  --      0.0509                 0.0565                 0.2671
 IR Inten    --     21.3570                32.2076                16.0498

                     13                     14                     15
                      A                      A                      A
 Frequencies --    366.5193               367.9084               409.9501
 Red. masses --      3.7943                 5.9721                 5.3218
 Frc consts  --      0.3003                 0.4763                 0.5270
 IR Inten    --      1.1119                 2.4137                 2.5875

                     16                     17                     18
                      A                      A                      A
 Frequencies --    435.6387               443.0219               494.6480
 Red. masses --      4.1521                 3.9013                 4.5102
 Frc consts  --      0.4643                 0.4511                 0.6502
 IR Inten    --      2.0277                 4.6024                13.7002

                     19                     20                     21
                      A                      A                      A
 Frequencies --    507.5400               552.7417               597.3795
 Red. masses --      6.3488                 6.1956                 3.2427
 Frc consts  --      0.9636                 1.1153                 0.6818
 IR Inten    --      3.3916                 1.3647                88.3555

                     22                     23                     24
                      A                      A                      A
 Frequencies --    637.7243               661.8134               693.1212
 Red. masses --      2.5692                 5.4144                 2.0622
 Frc consts  --      0.6156                 1.3972                 0.5837
 IR Inten    --    161.4775                37.5474               167.0467

                     25                     26                     27
                      A                      A                      A
 Frequencies --    707.4458               717.2583               796.1713
 Red. masses --      5.4593                 3.8226                 2.8564
 Frc consts  --      1.6098                 1.1587                 1.0668
 IR Inten    --      5.6646                 7.5708                 0.5539

                     28                     29                     30
                      A                      A                      A
 Frequencies --    806.4486               826.2472               839.5203
 Red. masses --      1.4750                 1.2728                 1.5209
 Frc consts  --      0.5652                 0.5120                 0.6316
 IR Inten    --     35.4294                 1.6549               163.6924

                     31                     32                     33
                      A                      A                      A
 Frequencies --    854.1117               891.9252               928.7039
 Red. masses --      1.6467                 2.8748                 1.2696
 Frc consts  --      0.7078                 1.3474                 0.6451
 IR Inten    --    118.1067                16.4468                 0.0562

                     34                     35                     36
                      A                      A                      A
 Frequencies --    968.7720              1039.8178              1069.7832
 Red. masses --      3.1215                 3.7354                 5.3695
 Frc consts  --      1.7261                 2.3796                 3.6206
 IR Inten    --     14.0414                58.6304                 8.3237

                     37                     38                     39
                      A                      A                      A
 Frequencies --   1093.9599              1122.3363              1133.5306
 Red. masses --      3.0873                 1.9372                 1.4620
 Frc consts  --      2.1769                 1.4377                 1.1068
 IR Inten    --     91.0328                36.9347                14.0770

                     40                     41                     42
                      A                      A                      A
 Frequencies --   1171.9972              1188.7961              1204.4215
 Red. masses --      2.0314                 1.3130                 1.6141
 Frc consts  --      1.6440                 1.0933                 1.3795
 IR Inten    --     26.0473                10.6182                 3.5911

                     43                     44                     45
                      A                      A                      A
 Frequencies --   1253.1778              1287.3794              1322.5698
 Red. masses --      2.4697                 1.8691                 2.1792
 Frc consts  --      2.2852                 1.8251                 2.2459
 IR Inten    --    172.9495                 5.4414                64.8587

                     46                     47                     48
                      A                      A                      A
 Frequencies --   1338.1672              1383.2826              1414.7847
 Red. masses --      1.1393                 5.3224                 1.4658
 Frc consts  --      1.2021                 6.0004                 1.7286
 IR Inten    --     15.7352                38.2044                 9.6197

                     49                     50                     51
                      A                      A                      A
 Frequencies --   1428.0564              1443.8689              1505.7463
 Red. masses --      2.3233                 1.3455                 2.7839
 Frc consts  --      2.7915                 1.6527                 3.7188
 IR Inten    --     13.7893                30.0011               107.1220

                     52                     53                     54
                      A                      A                      A
 Frequencies --   1516.7402              1521.3346              1524.4646
 Red. masses --      1.0440                 1.4870                 2.1636
 Frc consts  --      1.4151                 2.0277                 2.9626
 IR Inten    --      4.3914                 1.1358                10.0796

                     55                     56                     57
                      A                      A                      A
 Frequencies --   1539.6462              1613.0901              1659.5523
 Red. masses --      1.0764                 5.7183                 2.8572
 Frc consts  --      1.5034                 8.7667                 4.6363
 IR Inten    --      4.2323                16.5630                71.9271

                     58                     59                     60
                      A                      A                      A
 Frequencies --   1668.8229              1692.6082              1696.0577
 Red. masses --      3.8481                 1.4832                 1.2816
 Frc consts  --      6.3141                 2.5036                 2.1721
 IR Inten    --     52.1072               106.6229                92.8020

                     61                     62                     63
                      A                      A                      A
 Frequencies --   3055.7949              3057.9176              3111.7611
 Red. masses --      1.0569                 1.0407                 1.1050
 Frc consts  --      5.8149                 5.7334                 6.3041
 IR Inten    --     29.6099                23.1101                22.9054

                     64                     65                     66
                      A                      A                      A
 Frequencies --   3125.8035              3146.0076              3178.9566
 Red. masses --      1.1006                 1.1045                 1.0895
 Frc consts  --      6.3357                 6.4405                 6.4870
 IR Inten    --     28.3641                38.5022                15.1494

                     67                     68                     69
                      A                      A                      A
 Frequencies --   3180.6976              3203.9685              3491.8088
 Red. masses --      1.0876                 1.0940                 1.0487
 Frc consts  --      6.4830                 6.6167                 7.5336
 IR Inten    --     13.8041                16.4843                 2.0364

                     70                     71                     72
                      A                      A                      A
 Frequencies --   3542.0407              3586.8824              3639.3328
 Red. masses --      1.0481                 1.0945                 1.0974
 Frc consts  --      7.7477                 8.2966                 8.5634
 IR Inten    --      9.1229                 5.6887                 6.3008

 - Thermochemistry -
 -------------------
 Temperature   298.150 Kelvin.  Pressure   1.00000 Atm.
 Atom     1 has atomic number  6 and mass  12.00000

 Molecular mass:   208.06703 amu.
 Principal axes and moments of inertia in atomic units:
                           1         2         3
     Eigenvalues --  1298.589794914.441025914.40618
           X            0.99998   0.00155  -0.00670
           Y           -0.00162   0.99995  -0.01034
           Z            0.00668   0.01035   0.99992
 This molecule is an asymmetric top.
 Rotational symmetry number  1.
 Warning -- assumption of classical behavior for rotation
           may cause significant error
 Rotational temperatures (Kelvin)      0.06670     0.01762     0.01464
 Rotational constants (GHZ):           1.38977     0.36723     0.30514
 Zero-point vibrational energy     550035.0 (Joules/Mol)
                                  131.46152 (Kcal/Mol)
 Warning -- explicit consideration of  21 degrees of freedom as
           vibrations may cause significant error
 Vibrational temperatures:     27.71   107.76   119.44   182.05   263.09
          (Kelvin)            290.57   297.39   347.79   387.99   390.14
                              421.79   472.16   527.34   529.34   589.83
                              626.79   637.41   711.69   730.24   795.27
                              859.50   917.54   952.20   997.25  1017.86
                             1031.97  1145.51  1160.30  1188.79  1207.88
                             1228.88  1283.28  1336.20  1393.85  1496.07
                             1539.18  1573.96  1614.79  1630.90  1686.24
                             1710.41  1732.89  1803.04  1852.25  1902.88
                             1925.32  1990.24  2035.56  2054.65  2077.41
                             2166.43  2182.25  2188.86  2193.36  2215.21
                             2320.88  2387.73  2401.06  2435.29  2440.25
                             4396.61  4399.66  4477.13  4497.33  4526.40
                             4573.81  4576.31  4609.80  5023.93  5096.21
                             5160.72  5236.19

 Zero-point correction=                           0.209497 (Hartree/Particle)
 Thermal correction to Energy=                    0.223116
 Thermal correction to Enthalpy=                  0.224060
 Thermal correction to Gibbs Free Energy=         0.168762
 Sum of electronic and zero-point Energies=           -971.034348
 Sum of electronic and thermal Energies=              -971.020729
 Sum of electronic and thermal Enthalpies=            -971.019785
 Sum of electronic and thermal Free Energies=         -971.075084

                     E (Thermal)             CV                S
                      KCal/Mol        Cal/Mol-Kelvin    Cal/Mol-Kelvin
 Total                  140.007             52.219            116.386
 Electronic               0.000              0.000              0.000
 Translational            0.889              2.981             41.902
 Rotational               0.889              2.981             32.001
 Vibrational            138.230             46.257             42.483
 Vibration     1          0.593              1.986              6.709
 Vibration     2          0.599              1.966              4.020
 Vibration     3          0.600              1.961              3.818
 Vibration     4          0.611              1.927              2.998
 Vibration     5          0.630              1.863              2.299
 Vibration     6          0.639              1.837              2.115
 Vibration     7          0.641              1.830              2.073
 Vibration     8          0.658              1.776              1.790
 Vibration     9          0.674              1.729              1.598
 Vibration    10          0.675              1.726              1.589
 Vibration    11          0.688              1.686              1.456
 Vibration    12          0.711              1.619              1.269
 Vibration    13          0.739              1.541              1.094
 Vibration    14          0.741              1.538              1.088
 Vibration    15          0.774              1.449              0.927
 Vibration    16          0.796              1.393              0.840
 Vibration    17          0.803              1.376              0.817
 Vibration    18          0.850              1.262              0.672
 Vibration    19          0.863              1.233              0.640
 Vibration    20          0.908              1.134              0.539
 Vibration    21          0.955              1.037              0.454

 Optimization completed.
    -- Stationary point found.
 Normal termination of Gaussian 16 at Thu Dec 10 09:23:25 2020.

 ----------------------------------------------------------------------
 # B3LYP/6-311++G(d,p) empiricaldispersion=gd3bj scf=xqc pop=npa geom=c
 heck
 ----------------------------------------------------------------------

 ---------------------------------------
 CID_131193299_JID_4004_Energie_neutraal
 ---------------------------------------
 Structure from the checkpoint file:  "JID_4004.chk"
 Charge =  0 Multiplicity = 1

 SCF Done:  E(RB3LYP) =  -971.438034803     A.U. after   15 cycles
 Normal termination of Gaussian 16 at Thu Dec 10 09:26:00 2020.

 ----------------------------------------------------------------------
 # B3LYP/6-311++G(d,p) empiricaldispersion=gd3bj scf=xqc pop=npa geom=c
 heck
 ----------------------------------------------------------------------

 -------------------------------------
 CID_131193299_JID_4004_Energie_kation
 -------------------------------------
 Structure from the checkpoint file:  "JID_4004.chk"
 Charge =  1 Multiplicity = 2

 SCF Done:  E(UB3LYP) =  -971.181987162     A.U. after   25 cycles
 Normal termination of Gaussian 16 at Thu Dec 10 09:31:52 2020.
 Gaussian 16:  ES64L-G16RevA.03 25-Dec-2016

 ----------------------------------------------------------------------
 # B3LYP/6-311++G(d,p) empiricaldispersion=gd3bj scf=xqc pop=npa geom=c
 heck
 ----------------------------------------------------------------------

 ------------------------------------
 CID_131193299_JID_4004_Energie_anion
 ------------------------------------
 Structure from the checkpoint file:  "JID_4004.chk"
 Charge = -1 Multiplicity = 2

                         Standard orientation:
 ---------------------------------------------------------------------
 Center     Atomic      Atomic             Coordinates (Angstroms)
 Number     Number       Type             X           Y           Z
 ---------------------------------------------------------------------
      1          6           0       -4.124493   -0.760777    0.934024
      2          6           0       -3.592785    0.606043    0.533373
      3          8           0       -2.752277    0.546803   -0.644922
      4          6           0       -1.456794    0.198945   -0.425438
      5          6           0       -0.432157    1.084129   -0.257401
      6          6           0        0.843330    0.425349   -0.106066
      7          6           0        0.730365   -0.982459   -0.187406
      8         16           0       -0.935382   -1.502553   -0.416960
      9          6           0        1.862016   -1.789589   -0.073114
     10          6           0        3.102034   -1.195742    0.122943
     11          6           0        3.234461    0.207365    0.220763
     12          6           0        2.098000    1.011577    0.109108
     13          7           0        4.506213    0.777940    0.374844
     14          7           0       -0.592032    2.479958   -0.195155
     15          1           0       -4.660055   -1.221846    0.097934
     16          1           0       -4.817932   -0.659413    1.777090
     17          1           0       -3.312762   -1.427967    1.238276
     18          1           0       -4.411466    1.274865    0.251510
     19          1           0       -3.025886    1.070125    1.349349
     20          1           0        1.780662   -2.870768   -0.134422
     21          1           0        3.989934   -1.817921    0.202050
     22          1           0        2.185015    2.091015    0.206723
     23          1           0        4.496287    1.701924    0.790154
     24          1           0        5.172429    0.180577    0.849758
     25          1           0        0.115721    2.964351   -0.741489
     26          1           0       -1.510743    2.747167   -0.538737
 ---------------------------------------------------------------------

 SCF Done:  E(UB3LYP) =  -971.426010378     A.U. after   33 cycles
 SCF Done:  E(UB3LYP) =  -971.426010378     a.u. after    1 cycles

 The electronic state is 2-A.
 Alpha  occ. eigenvalues --  -88.77059 -19.06006 -14.22116 -14.21399 -10.14389
 Alpha  occ. eigenvalues --  -10.13593 -10.11624 -10.11153 -10.10356 -10.08836
 Alpha  occ. eigenvalues --  -10.08761 -10.07870 -10.07474 -10.07082  -7.85682
 Alpha  occ. eigenvalues --   -5.82004  -5.81680  -5.81164  -0.97342  -0.82627
 Alpha  occ. eigenvalues --   -0.81656  -0.77152  -0.71252  -0.67696  -0.66460
 Alpha  occ. eigenvalues --   -0.61249  -0.60187  -0.55523  -0.51311  -0.49761
 Alpha  occ. eigenvalues --   -0.46395  -0.42964  -0.42198  -0.40670  -0.39438
 Alpha  occ. eigenvalues --   -0.39318  -0.37380  -0.35322  -0.33734  -0.33180
 Alpha  occ. eigenvalues --   -0.32601  -0.31832  -0.30673  -0.29860  -0.29265
 Alpha  occ. eigenvalues --   -0.26696  -0.26240  -0.25105  -0.24375  -0.22815
 Alpha  occ. eigenvalues --   -0.19578  -0.18445  -0.16474  -0.10833  -0.09759
 Alpha  occ. eigenvalues --    0.04112
 Alpha virt. eigenvalues --    0.05452   0.06587   0.06808   0.07461   0.08143
 Alpha virt. eigenvalues --    0.08935   0.09115   0.09360   0.10374   0.10728
 Alpha virt. eigenvalues --    0.11757   0.12297   0.12589   0.12812   0.13654

  Beta  occ. eigenvalues --  -88.77058 -19.06004 -14.22077 -14.21336 -10.14389
  Beta  occ. eigenvalues --  -10.13564 -10.11623 -10.11147 -10.10358 -10.08835
  Beta  occ. eigenvalues --  -10.08756 -10.07852 -10.07453 -10.07049  -7.85681
  Beta  occ. eigenvalues --   -5.82004  -5.81677  -5.81163  -0.97334  -0.82577
  Beta  occ. eigenvalues --   -0.81584  -0.77119  -0.71218  -0.67660  -0.66427
  Beta  occ. eigenvalues --   -0.61212  -0.60146  -0.55471  -0.51267  -0.49725
  Beta  occ. eigenvalues --   -0.46344  -0.42925  -0.42142  -0.40620  -0.39396
  Beta  occ. eigenvalues --   -0.39277  -0.37330  -0.35283  -0.33700  -0.33136
  Beta  occ. eigenvalues --   -0.32572  -0.31806  -0.30651  -0.29831  -0.29229
  Beta  occ. eigenvalues --   -0.26665  -0.26211  -0.25081  -0.24351  -0.22785
  Beta  occ. eigenvalues --   -0.19565  -0.18417  -0.16431  -0.10802  -0.09718
  Beta virt. eigenvalues --    0.06244   0.06735   0.06950   0.07308   0.08017
  Beta virt. eigenvalues --    0.08842   0.09020   0.09441   0.09824   0.10702
  Beta virt. eigenvalues --    0.11225   0.11966   0.12360   0.12691   0.13324

 Mulliken charges and spin densities:
               1          2
     1  C    0.211760  -0.684142
     2  C    0.176786  -0.353655
     3  O   -0.121283   0.030661
     4  C    0.501012  -0.712887
     5  C    1.092267  -0.986701
     6  C    1.157389   0.225283
     7  C   -0.206453  -0.004217
     8  S   -0.298850  -0.326737
     9  C   -0.869300   0.653273
    10  C    0.682867  -0.340192
    11  C    0.114852  -0.912140
    12  C   -0.663955   0.052104
    13  N   -0.280526  -0.012393
    14  N   -0.368713   0.056547
    15  H    0.120379   0.033449
    16  H   -0.212014   0.345116
    17  H   -0.027770   0.141755
    18  H   -0.595392   0.768681
    19  H    0.091654   0.064722
    20  H    0.054135   0.100718
    21  H   -0.344017   0.500576
    22  H   -0.551325   0.700645
    23  H   -0.268864   0.516168
    24  H   -0.296987   0.542807
    25  H   -0.081208   0.324162
    26  H   -0.016443   0.276399
 Sum of Mulliken charges =  -1.00000   1.00000

 Dipole moment (field-independent basis, Debye):
    X=             -4.1000    Y=             -4.9970    Z=             -1.4400  Tot=              6.6222
 Quadrupole moment (field-independent basis, Debye-Ang):
   XX=           -193.9005   YY=           -128.2783   ZZ=           -118.4155
   XY=             -1.6288   XZ=             -5.1434   YZ=             -2.0299

 Summary of Natural Population Analysis:

                                       Natural Population
                Natural  -----------------------------------------------
    Atom  No    Charge         Core      Valence    Rydberg      Total
 -----------------------------------------------------------------------
      C    1   -0.30435      0.99966     2.29853    0.00616     3.30435
      C    2   -0.00885      0.99957     1.99682    0.01247     3.00885
      O    3   -0.29151      0.99985     3.28008    0.01157     4.29151
      C    4    0.05697      0.99931     1.92547    0.01824     2.94303
      C    5    0.04019      0.99932     1.94765    0.01284     2.95981
      C    6   -0.03805      0.99945     2.02837    0.01023     3.03805
      C    7   -0.09917      0.99940     2.08962    0.01016     3.09917
      S    8    0.15860      4.99943     2.82257    0.01940     7.84140
      C    9   -0.09998      0.99950     2.09057    0.00992     3.09998
      C   10   -0.12212      0.99953     2.11208    0.01051     3.12212
      C   11    0.08530      0.99950     1.90373    0.01147     2.91470
      C   12   -0.11802      0.99948     2.10883    0.00970     3.11802
      N   13   -0.39562      0.99972     2.88520    0.01071     3.89562
      N   14   -0.39750      0.99972     2.88717    0.01061     3.89750
      H   15    0.09984      0.00000     0.39919    0.00096     0.40016
      H   16    0.10253      0.00000     0.39637    0.00109     0.39747
      H   17    0.10296      0.00000     0.39561    0.00143     0.39704
      H   18    0.09005      0.00000     0.40765    0.00230     0.40995
      H   19    0.08658      0.00000     0.41197    0.00145     0.41342
      H   20    0.10109      0.00000     0.39804    0.00087     0.39891
      H   21    0.10068      0.00000     0.39834    0.00098     0.39932
      H   22    0.10427      0.00000     0.39399    0.00175     0.39573
      H   23    0.18809      0.00000     0.30643    0.00549     0.31191
      H   24    0.18663      0.00000     0.30800    0.00538     0.31337
      H   25    0.18438      0.00000     0.31339    0.00223     0.31562
      H   26    0.18700      0.00000     0.31070    0.00230     0.31300
 =======================================================================
   * Total *   -0.00000     17.99344    36.81635    0.19021    55.00000

 Normal termination of Gaussian 16 at Thu Dec 10 09:39:53 2020.
