 Gaussian 16, Revision A.03,

 -----------------------------------------------------------
 # opt freq B3LYP/6-31G(d) empiricaldispersion=gd3bj scf=xqc
 -----------------------------------------------------------

 ------------------------------
 CID_150329353_JID_899_neutraal
 ------------------------------
 Symbolic Z-matrix:
 Charge =  0 Multiplicity = 1

 SCF Done:  E(RB3LYP) =  -1110.88595688     A.U. after   12 cycles
 SCF Done:  E(RB3LYP) =  -1110.88846224     A.U. after   11 cycles
 SCF Done:  E(RB3LYP) =  -1110.88869733     A.U. after   11 cycles
 SCF Done:  E(RB3LYP) =  -1110.88872249     A.U. after   10 cycles
 SCF Done:  E(RB3LYP) =  -1110.88874002     A.U. after    9 cycles
 SCF Done:  E(RB3LYP) =  -1110.88875463     A.U. after   10 cycles
 SCF Done:  E(RB3LYP) =  -1110.88876756     A.U. after   10 cycles
 SCF Done:  E(RB3LYP) =  -1110.88877962     A.U. after   10 cycles
 SCF Done:  E(RB3LYP) =  -1110.88878051     A.U. after    8 cycles
 SCF Done:  E(RB3LYP) =  -1110.88878062     A.U. after    8 cycles
 SCF Done:  E(RB3LYP) =  -1110.88878060     A.U. after    7 cycles
 SCF Done:  E(RB3LYP) =  -1110.88878060     A.U. after    7 cycles
 SCF Done:  E(RB3LYP) =  -1110.88878059     A.U. after    7 cycles
 Optimization completed.
    -- Stationary point found.

 1\1\GINC-NODE358\FOpt\RB3LYP\6-31G(d)\C8H16S2\VSC10255\08-Dec-2020\0\\
 # opt freq B3LYP/6-31G(d) empiricaldispersion=gd3bj scf=xqc\\CID_15032
 9353_JID_899_neutraal\\0,1\C,1.0377374481,0.1314439887,0.0042216407\C,
 0.5302893518,0.6470582944,-1.3588769327\C,0.8542466618,-0.2891513,-2.4
 913920161\C,-0.0103088739,-0.9923864043,-3.2320837638\C,-1.5137037244,
 -0.9739198207,-3.1212533686\C,-2.1824616358,0.0304146212,-4.0806232951
 \C,-1.8006165264,-0.1380104215,-5.5520535355\S,-2.308363634,-1.7383193
 414,-6.3148683628\C,0.3115706112,-1.1378454417,0.4450741743\S,0.856130

 Normal termination of Gaussian 16 at Tue Dec  8 13:29:27 2020.

 --------------------------------------------------------------------
 #N Geom=AllCheck Guess=TCheck SCRF=Check GenChk RB3LYP/6-31G(d) Freq
 --------------------------------------------------------------------

 Structure from the checkpoint file:  "JID_899.chk"
 ------------------------------
 CID_150329353_JID_899_neutraal
 ------------------------------
 Charge =  0 Multiplicity = 1

 SCF Done:  E(RB3LYP) =  -1110.88878059     A.U. after    1 cycles

  Exact polarizability: 150.534   8.544 103.740  -3.036   1.483  98.090
 Approx polarizability: 180.777  17.335 156.747  -6.748   2.630 151.399

                      1                      2                      3
                      A                      A                      A
 Frequencies --     16.0551                26.2993                50.5129
 Red. masses --      6.3234                 4.4510                 4.3376
 Frc consts  --      0.0010                 0.0018                 0.0065
 IR Inten    --      0.5396                 0.2434                 0.7450

                      4                      5                      6
                      A                      A                      A
 Frequencies --     70.8306                89.7996               128.5111
 Red. masses --      2.9997                 2.3172                 3.2888
 Frc consts  --      0.0089                 0.0110                 0.0320
 IR Inten    --      0.6612                 1.0363                 3.0794

                      7                      8                      9
                      A                      A                      A
 Frequencies --    180.4343               200.3079               222.3352
 Red. masses --      2.5110                 1.7023                 1.1806
 Frc consts  --      0.0482                 0.0402                 0.0344
 IR Inten    --      2.3441                 8.6122                14.7099

                     10                     11                     12
                      A                      A                      A
 Frequencies --    241.4469               276.8374               314.8939
 Red. masses --      1.6598                 2.4188                 3.0282
 Frc consts  --      0.0570                 0.1092                 0.1769
 IR Inten    --     11.6587                 3.6994                 0.4742

                     13                     14                     15
                      A                      A                      A
 Frequencies --    333.1821               390.2277               449.8554
 Red. masses --      2.4073                 2.3504                 2.2190
 Frc consts  --      0.1575                 0.2109                 0.2646
 IR Inten    --      0.3112                 0.0414                 3.5081

                     16                     17                     18
                      A                      A                      A
 Frequencies --    532.9002               596.3509               654.0952
 Red. masses --      2.1130                 2.8094                 4.0579
 Frc consts  --      0.3535                 0.5887                 1.0229
 IR Inten    --      1.2245                 8.4694                 4.1412

                     19                     20                     21
                      A                      A                      A
 Frequencies --    711.2913               725.9711               743.3722
 Red. masses --      2.1133                 1.2377                 1.3704
 Frc consts  --      0.6299                 0.3843                 0.4462
 IR Inten    --      8.1321                10.1098                 4.6882

                     22                     23                     24
                      A                      A                      A
 Frequencies --    766.7352               833.9465               865.2826
 Red. masses --      1.4571                 1.6978                 1.4288
 Frc consts  --      0.5047                 0.6957                 0.6303
 IR Inten    --     27.9715                 0.9717                 8.9556

                     25                     26                     27
                      A                      A                      A
 Frequencies --    882.5332               887.5816               942.8626
 Red. masses --      2.2184                 2.0341                 1.6302
 Frc consts  --      1.0180                 0.9441                 0.8538
 IR Inten    --      3.0101                 3.3228                 4.7166

                     28                     29                     30
                      A                      A                      A
 Frequencies --    979.1351              1008.8102              1019.5645
 Red. masses --      1.6303                 1.4092                 1.5094
 Frc consts  --      0.9209                 0.8449                 0.9244
 IR Inten    --      1.8771                 1.5033                 1.6404

                     31                     32                     33
                      A                      A                      A
 Frequencies --   1036.3554              1070.8444              1074.0550
 Red. masses --      1.9337                 1.8942                 2.3340
 Frc consts  --      1.2237                 1.2798                 1.5863
 IR Inten    --      1.0796                 8.4538                 2.7079

                     34                     35                     36
                      A                      A                      A
 Frequencies --   1092.7526              1133.6358              1182.9609
 Red. masses --      2.5781                 1.8573                 1.1121
 Frc consts  --      1.8138                 1.4063                 0.9170
 IR Inten    --      2.2549                 7.2647                 3.8045

                     37                     38                     39
                      A                      A                      A
 Frequencies --   1201.0808              1221.3952              1242.7936
 Red. masses --      1.1584                 1.2276                 1.2613
 Frc consts  --      0.9846                 1.0790                 1.1478
 IR Inten    --      8.0022                 5.4471                 0.2327

                     40                     41                     42
                      A                      A                      A
 Frequencies --   1297.5121              1312.8428              1316.0607
 Red. masses --      1.1892                 1.1932                 1.1713
 Frc consts  --      1.1795                 1.2117                 1.1953
 IR Inten    --      0.6282                10.7881                 3.3534

                     43                     44                     45
                      A                      A                      A
 Frequencies --   1328.5819              1335.2816              1366.9203
 Red. masses --      1.1918                 1.2853                 1.2427
 Frc consts  --      1.2395                 1.3502                 1.3680
 IR Inten    --      5.2596                24.1280                 3.1635

                     46                     47                     48
                      A                      A                      A
 Frequencies --   1377.9514              1394.4916              1399.3456
 Red. masses --      1.2972                 1.3992                 1.4065
 Frc consts  --      1.4512                 1.6031                 1.6227
 IR Inten    --      7.6523                 5.1972                 6.0119

                     49                     50                     51
                      A                      A                      A
 Frequencies --   1455.9606              1499.8599              1505.5148
 Red. masses --      1.4311                 1.0796                 1.0921
 Frc consts  --      1.7874                 1.4309                 1.4584
 IR Inten    --      2.0198                 6.7892                12.6235

                     52                     53                     54
                      A                      A                      A
 Frequencies --   1508.1895              1511.6060              1522.7823
 Red. masses --      1.0874                 1.1137                 1.0995
 Frc consts  --      1.4574                 1.4994                 1.5022
 IR Inten    --      0.0605                 1.9220                 3.3229

                     55                     56                     57
                      A                      A                      A
 Frequencies --   1538.4967              1741.8545              2671.5790
 Red. masses --      1.0937                 6.4923                 1.0385
 Frc consts  --      1.5253                11.6057                 4.3672
 IR Inten    --      6.5799                 0.9032                22.4511

                     58                     59                     60
                      A                      A                      A
 Frequencies --   2680.9899              3033.9269              3034.8107
 Red. masses --      1.0385                 1.0645                 1.0656
 Frc consts  --      4.3979                 5.7731                 5.7824
 IR Inten    --     24.6420                 8.8035                36.8508

                     61                     62                     63
                      A                      A                      A
 Frequencies --   3042.3260              3055.8080              3076.3459
 Red. masses --      1.0653                 1.0635                 1.0620
 Frc consts  --      5.8096                 5.8510                 5.9215
 IR Inten    --     22.0629                12.7358                16.6866

                     64                     65                     66
                      A                      A                      A
 Frequencies --   3082.0559              3083.4168              3091.1040
 Red. masses --      1.0699                 1.0950                 1.0884
 Frc consts  --      5.9880                 6.1337                 6.1274
 IR Inten    --      7.3084                26.8981                38.2639

                     67                     68                     69
                      A                      A                      A
 Frequencies --   3093.6930              3100.0967              3129.2711
 Red. masses --      1.0981                 1.0972                 1.0865
 Frc consts  --      6.1923                 6.2127                 6.2686
 IR Inten    --     15.7270                26.0752                25.7512

                     70                     71                     72
                      A                      A                      A
 Frequencies --   3132.1748              3133.5583              3153.6773
 Red. masses --      1.1048                 1.1044                 1.0945
 Frc consts  --      6.3862                 6.3892                 6.4138
 IR Inten    --     17.3421                 7.5539                43.9465

 - Thermochemistry -
 -------------------
 Temperature   298.150 Kelvin.  Pressure   1.00000 Atm.
 Atom     1 has atomic number  6 and mass  12.00000

 Molecular mass:   176.06934 amu.
 Principal axes and moments of inertia in atomic units:
                           1         2         3
     Eigenvalues --   784.683206788.394997112.76253
           X            0.99999   0.00209  -0.00490
           Y           -0.00200   0.99982   0.01882
           Z            0.00494  -0.01881   0.99981
 This molecule is an asymmetric top.
 Rotational symmetry number  1.
 Warning -- assumption of classical behavior for rotation
           may cause significant error
 Rotational temperatures (Kelvin)      0.11038     0.01276     0.01218
 Rotational constants (GHZ):           2.29996     0.26586     0.25373
 Zero-point vibrational energy     588598.1 (Joules/Mol)
                                  140.67833 (Kcal/Mol)
 Warning -- explicit consideration of  17 degrees of freedom as
           vibrations may cause significant error
 Vibrational temperatures:     23.10    37.84    72.68   101.91   129.20
          (Kelvin)            184.90   259.60   288.20   319.89   347.39
                              398.31   453.06   479.37   561.45   647.24
                              766.72   858.02   941.10  1023.39  1044.51
                             1069.55  1103.16  1199.86  1244.95  1269.77
                             1277.03  1356.57  1408.76  1451.45  1466.93
                             1491.08  1540.71  1545.33  1572.23  1631.05
                             1702.02  1728.09  1757.32  1788.10  1866.83
                             1888.89  1893.52  1911.53  1921.17  1966.69
                             1982.56  2006.36  2013.35  2094.80  2157.96
                             2166.10  2169.95  2174.86  2190.94  2213.55
                             2506.14  3843.81  3857.35  4365.14  4366.42
                             4377.23  4396.63  4426.18  4434.39  4436.35
                             4447.41  4451.13  4460.35  4502.32  4506.50
                             4508.49  4537.44

 Zero-point correction=                           0.224185 (Hartree/Particle)
 Thermal correction to Energy=                    0.237476
 Thermal correction to Enthalpy=                  0.238420
 Thermal correction to Gibbs Free Energy=         0.181151
 Sum of electronic and zero-point Energies=          -1110.664595
 Sum of electronic and thermal Energies=             -1110.651305
 Sum of electronic and thermal Enthalpies=           -1110.650361
 Sum of electronic and thermal Free Energies=        -1110.707630

                     E (Thermal)             CV                S
                      KCal/Mol        Cal/Mol-Kelvin    Cal/Mol-Kelvin
 Total                  149.018             46.778            120.533
 Electronic               0.000              0.000              0.000
 Translational            0.889              2.981             41.404
 Rotational               0.889              2.981             32.005
 Vibrational            147.241             40.817             47.124
 Vibration     1          0.593              1.986              7.071
 Vibration     2          0.593              1.985              6.091
 Vibration     3          0.595              1.977              4.797
 Vibration     4          0.598              1.968              4.130
 Vibration     5          0.602              1.956              3.664
 Vibration     6          0.611              1.925              2.968
 Vibration     7          0.629              1.866              2.324
 Vibration     8          0.638              1.839              2.130
 Vibration     9          0.648              1.807              1.940
 Vibration    10          0.658              1.777              1.792
 Vibration    11          0.678              1.716              1.553
 Vibration    12          0.702              1.645              1.336
 Vibration    13          0.715              1.609              1.245
 Vibration    14          0.758              1.491              0.999
 Vibration    15          0.809              1.361              0.796
 Vibration    16          0.888              1.177              0.581
 Vibration    17          0.954              1.040              0.456

 Optimization completed.
    -- Stationary point found.

 1\1\GINC-NODE358\Freq\RB3LYP\6-31G(d)\C8H16S2\VSC10255\08-Dec-2020\0\\
 #N Geom=AllCheck Guess=TCheck SCRF=Check GenChk RB3LYP/6-31G(d) Freq\\
 CID_150329353_JID_899_neutraal\\0,1\C,1.0377374481,0.1314439887,0.0042
 216407\C,0.5302893518,0.6470582944,-1.3588769327\C,0.8542466618,-0.289
 1513,-2.4913920161\C,-0.0103088739,-0.9923864043,-3.2320837638\C,-1.51
 37037244,-0.9739198207,-3.1212533686\C,-2.1824616358,0.0304146212,-4.0
 806232951\C,-1.8006165264,-0.1380104215,-5.5520535355\S,-2.308363634,-
 1.7383193414,-6.3148683628\C,0.3115706112,-1.1378454417,0.4450741743\S

 Normal termination of Gaussian 16 at Tue Dec  8 13:35:49 2020.

 ----------------------------------------------------------------------
 # B3LYP/6-311++G(d,p) empiricaldispersion=gd3bj scf=xqc pop=npa geom=c
 heck
 ----------------------------------------------------------------------

 --------------------------------------
 CID_150329353_JID_899_Energie_neutraal
 --------------------------------------
 Structure from the checkpoint file:  "JID_899.chk"
 Charge =  0 Multiplicity = 1

 SCF Done:  E(RB3LYP) =  -1111.03901194     A.U. after   14 cycles
 Normal termination of Gaussian 16 at Tue Dec  8 13:40:28 2020.

 ----------------------------------------------------------------------
 # B3LYP/6-311++G(d,p) empiricaldispersion=gd3bj scf=xqc pop=npa geom=c
 heck
 ----------------------------------------------------------------------

 ------------------------------------
 CID_150329353_JID_899_Energie_kation
 ------------------------------------
 Structure from the checkpoint file:  "JID_899.chk"
 Charge =  1 Multiplicity = 2

 SCF Done:  E(UB3LYP) =  -1110.74047681     A.U. after   27 cycles
 Normal termination of Gaussian 16 at Tue Dec  8 13:49:14 2020.
 Gaussian 16:  ES64L-G16RevA.03 25-Dec-2016

 -----------------------------------
 CID_150329353_JID_899_Energie_anion
 -----------------------------------
 Structure from the checkpoint file:  "JID_899.chk"
 Charge = -1 Multiplicity = 2

                         Standard orientation:
 ---------------------------------------------------------------------
 Center     Atomic      Atomic             Coordinates (Angstroms)
 Number     Number       Type             X           Y           Z
 ---------------------------------------------------------------------
      1          6           0        2.712923    1.099723   -0.040713
      2          6           0        1.255159    1.587676    0.094280
      3          6           0        0.351733    1.019645   -0.966470
      4          6           0       -0.663003    0.164961   -0.791986
      5          6           0       -1.154618   -0.393165    0.519361
      6          6           0       -2.309941    0.422265    1.133054
      7          6           0       -3.509529    0.629983    0.207245
      8         16           0       -4.394895   -0.910843   -0.285366
      9          6           0        2.844005   -0.399056    0.222429
     10         16           0        4.567150   -1.034415    0.102731
     11          1           0        3.355008    1.648858    0.656939
     12          1           0        3.079898    1.326247   -1.050990
     13          1           0        0.882611    1.349305    1.097024
     14          1           0        1.251095    2.683739    0.015942
     15          1           0        0.584865    1.336777   -1.984128
     16          1           0       -1.217024   -0.145224   -1.678385
     17          1           0       -1.490120   -1.426902    0.370785
     18          1           0       -0.340173   -0.439634    1.249812
     19          1           0       -2.644320   -0.065132    2.056369
     20          1           0       -1.930220    1.416847    1.405893
     21          1           0       -4.276174    1.224526    0.712909
     22          1           0       -3.220171    1.175363   -0.695346
     23          1           0       -3.436069   -1.406467   -1.096115
     24          1           0        2.538298   -0.634448    1.247779
     25          1           0        2.197260   -0.972947   -0.446464
     26          1           0        4.748782   -0.738969   -1.203070
 ---------------------------------------------------------------------

 SCF Done:  E(UB3LYP) =  -1111.02862801     A.U. after   30 cycles

 The electronic state is 2-A.
 Alpha  occ. eigenvalues --  -88.74407 -88.74223 -10.10249 -10.09965 -10.07536
 Alpha  occ. eigenvalues --  -10.07275 -10.07195 -10.07101 -10.06664 -10.06563
 Alpha  occ. eigenvalues --   -7.83085  -7.82902  -5.79450  -5.79275  -5.79118
 Alpha  occ. eigenvalues --   -5.78934  -5.78475  -5.78291  -0.72810  -0.71337
 Alpha  occ. eigenvalues --   -0.68306  -0.64841  -0.61501  -0.57149  -0.54564
 Alpha  occ. eigenvalues --   -0.49949  -0.48328  -0.42630  -0.39123  -0.37601
 Alpha  occ. eigenvalues --   -0.36844  -0.34373  -0.33320  -0.31986  -0.31112
 Alpha  occ. eigenvalues --   -0.30320  -0.29451  -0.27385  -0.25984  -0.25344
 Alpha  occ. eigenvalues --   -0.24897  -0.24466  -0.22576  -0.22401  -0.21970
 Alpha  occ. eigenvalues --   -0.15597  -0.14411  -0.13681   0.04261
 Alpha virt. eigenvalues --    0.06508   0.07067   0.07592   0.08043   0.09388
 Alpha virt. eigenvalues --    0.09699   0.09973   0.10275   0.10872   0.11057
 Alpha virt. eigenvalues --    0.11412   0.12062   0.12538   0.12589   0.12979

  Beta  occ. eigenvalues --  -88.74394 -88.74208 -10.10216 -10.09938 -10.07513
  Beta  occ. eigenvalues --  -10.07246 -10.07186 -10.07081 -10.06630 -10.06529
  Beta  occ. eigenvalues --   -7.83070  -7.82886  -5.79420  -5.79233  -5.79109
  Beta  occ. eigenvalues --   -5.78925  -5.78464  -5.78280  -0.72755  -0.71289
  Beta  occ. eigenvalues --   -0.68237  -0.64776  -0.61428  -0.57072  -0.54485
  Beta  occ. eigenvalues --   -0.49839  -0.48231  -0.42552  -0.39068  -0.37544
  Beta  occ. eigenvalues --   -0.36782  -0.34308  -0.33248  -0.31925  -0.31044
  Beta  occ. eigenvalues --   -0.30255  -0.29370  -0.27321  -0.25939  -0.25288
  Beta  occ. eigenvalues --   -0.24850  -0.24397  -0.22504  -0.22340  -0.21922
  Beta  occ. eigenvalues --   -0.15490  -0.14370  -0.13608
  Beta virt. eigenvalues --    0.06527   0.07367   0.07616   0.08096   0.08623
  Beta virt. eigenvalues --    0.09552   0.10065   0.10308   0.10591   0.11129
  Beta virt. eigenvalues --    0.11392   0.11623   0.12409   0.12777   0.12906

 Mulliken charges and spin densities:
               1          2
     1  C    0.402755  -0.821936
     2  C   -0.366310   0.210344
     3  C   -0.208565   0.103016
     4  C    1.036567  -1.101164
     5  C   -0.093079  -0.408346
     6  C   -0.178967   0.127426
     7  C    0.254869  -0.651971
     8  S    0.204861  -0.361740
     9  C    0.369961  -0.666245
    10  S    0.392580  -0.579159
    11  H   -0.248615   0.389249
    12  H   -0.155615   0.286135
    13  H   -0.136182   0.248565
    14  H   -0.459644   0.650401
    15  H   -0.458462   0.629732
    16  H   -0.141969   0.322451
    17  H    0.176394  -0.018242
    18  H   -0.205124   0.360752
    19  H   -0.203344   0.311309
    20  H   -0.112717   0.265562
    21  H   -0.523657   0.763391
    22  H    0.063474   0.117363
    23  H   -0.172215   0.205848
    24  H   -0.025356   0.197346
    25  H    0.030417   0.150249
    26  H   -0.242057   0.269664
 Sum of Mulliken charges =  -1.00000   1.00000

 Dipole moment (field-independent basis, Debye):
    X=              0.0409    Y=             -2.3316    Z=             -0.0520  Tot=              2.3326
 Quadrupole moment (field-independent basis, Debye-Ang):
   XX=           -169.7727   YY=           -115.7538   ZZ=           -112.5344
   XY=              0.6134   XZ=              2.6416   YZ=              0.2174

 Summary of Natural Population Analysis:

                                       Natural Population
                Natural  -----------------------------------------------
    Atom  No    Charge         Core      Valence    Rydberg      Total
 -----------------------------------------------------------------------
      C    1   -0.19047      0.99961     2.18142    0.00945     3.19047
      C    2   -0.21097      0.99960     2.20047    0.01090     3.21097
      C    3   -0.08483      0.99952     2.07385    0.01146     3.08483
      C    4   -0.09600      0.99951     2.08472    0.01177     3.09600
      C    5   -0.21302      0.99961     2.20429    0.00911     3.21302
      C    6   -0.19060      0.99961     2.18085    0.01014     3.19060
      C    7   -0.24331      0.99958     2.23374    0.00999     3.24331
      S    8   -0.03167      4.99967     3.01674    0.01526     8.03167
      C    9   -0.24098      0.99958     2.23282    0.00858     3.24098
      S   10   -0.02999      4.99967     3.01539    0.01493     8.02999
      H   11    0.10118      0.00000     0.39711    0.00172     0.39882
      H   12    0.09650      0.00000     0.40164    0.00186     0.40350
      H   13    0.09792      0.00000     0.40039    0.00169     0.40208
      H   14    0.10765      0.00000     0.39052    0.00183     0.39235
      H   15    0.09480      0.00000     0.40388    0.00132     0.40520
      H   16    0.09374      0.00000     0.40490    0.00136     0.40626
      H   17    0.10163      0.00000     0.39691    0.00146     0.39837
      H   18    0.10238      0.00000     0.39598    0.00164     0.39762
      H   19    0.09919      0.00000     0.39933    0.00148     0.40081
      H   20    0.10085      0.00000     0.39753    0.00162     0.39915
      H   21    0.10663      0.00000     0.39189    0.00148     0.39337
      H   22    0.10530      0.00000     0.39330    0.00140     0.39470
      H   23    0.05814      0.00000     0.43884    0.00302     0.44186
      H   24    0.10164      0.00000     0.39669    0.00166     0.39836
      H   25    0.10544      0.00000     0.39263    0.00192     0.39456
      H   26    0.05885      0.00000     0.43805    0.00310     0.44115
 =======================================================================
   * Total *   -0.00000     17.99595    29.86389    0.14016    48.00000

 Normal termination of Gaussian 16 at Tue Dec  8 13:56:40 2020.
