 Gaussian 16, Revision A.03,

 -----------------------------------------------------------
 # opt freq B3LYP/6-31G(d) empiricaldispersion=gd3bj scf=xqc
 -----------------------------------------------------------

 -------------------------------
 CID_129984724_JID_2844_neutraal
 -------------------------------
 Symbolic Z-matrix:
 Charge =  0 Multiplicity = 1

 SCF Done:  E(RB3LYP) =  -553.338980935     A.U. after   15 cycles
 SCF Done:  E(RB3LYP) =  -553.340482278     A.U. after   14 cycles
 SCF Done:  E(RB3LYP) =  -553.342113991     A.U. after   13 cycles
 SCF Done:  E(RB3LYP) =  -553.342327165     A.U. after   12 cycles
 SCF Done:  E(RB3LYP) =  -553.342390228     A.U. after   11 cycles
 SCF Done:  E(RB3LYP) =  -553.342404195     A.U. after   10 cycles
 SCF Done:  E(RB3LYP) =  -553.342409872     A.U. after    9 cycles
 SCF Done:  E(RB3LYP) =  -553.342410586     A.U. after    8 cycles
 SCF Done:  E(RB3LYP) =  -553.342411219     A.U. after    8 cycles
 SCF Done:  E(RB3LYP) =  -553.342411291     A.U. after    8 cycles
 Optimization completed.
    -- Stationary point found.
 Normal termination of Gaussian 16 at Wed Dec  9 18:02:24 2020.

 --------------------------------------------------------------------
 #N Geom=AllCheck Guess=TCheck SCRF=Check GenChk RB3LYP/6-31G(d) Freq
 --------------------------------------------------------------------

 Structure from the checkpoint file:  "JID_2844.chk"
 -------------------------------
 CID_129984724_JID_2844_neutraal
 -------------------------------
 Charge =  0 Multiplicity = 1

 SCF Done:  E(RB3LYP) =  -553.342411291     A.U. after    1 cycles

  Exact polarizability: 111.264   6.144 100.225   6.140   9.543  97.917
 Approx polarizability: 140.766  15.811 143.785  24.518  30.674 191.538

                      1                      2                      3
                      A                      A                      A
 Frequencies --     48.7919                57.1778                90.6774
 Red. masses --      5.3041                 4.3666                 4.1349
 Frc consts  --      0.0074                 0.0084                 0.0200
 IR Inten    --      0.2579                 0.6271                 1.7278

                      4                      5                      6
                      A                      A                      A
 Frequencies --    109.3593               166.4628               206.3087
 Red. masses --      4.4148                 4.8735                 3.6449
 Frc consts  --      0.0311                 0.0796                 0.0914
 IR Inten    --      0.7463                 0.6031                 4.0157

                      7                      8                      9
                      A                      A                      A
 Frequencies --    230.5208               264.3620               315.5351
 Red. masses --      1.8357                 4.7205                 2.3797
 Frc consts  --      0.0575                 0.1944                 0.1396
 IR Inten    --      0.3297                 4.2682                27.8031

                     10                     11                     12
                      A                      A                      A
 Frequencies --    328.4730               348.0212               403.6714
 Red. masses --      1.8987                 1.5407                 2.5910
 Frc consts  --      0.1207                 0.1099                 0.2488
 IR Inten    --      3.2691                81.6968                 9.1176

                     13                     14                     15
                      A                      A                      A
 Frequencies --    433.6933               444.1310               464.7913
 Red. masses --      1.9502                 2.9425                 3.4390
 Frc consts  --      0.2161                 0.3420                 0.4377
 IR Inten    --      7.2192                 0.0133                 5.0872

                     16                     17                     18
                      A                      A                      A
 Frequencies --    540.1309               577.7577               619.7303
 Red. masses --      1.7273                10.9377                 6.1807
 Frc consts  --      0.2969                 2.1511                 1.3986
 IR Inten    --      3.7635                15.6515                11.9864

                     19                     20                     21
                      A                      A                      A
 Frequencies --    739.8224               804.2692               820.4888
 Red. masses --      3.5521                 1.4671                 2.1116
 Frc consts  --      1.1455                 0.5591                 0.8375
 IR Inten    --      5.0545                 0.0393                 3.4556

                     22                     23                     24
                      A                      A                      A
 Frequencies --    837.0591               866.0071               908.0915
 Red. masses --      4.1362                 2.2038                 2.0585
 Frc consts  --      1.7075                 0.9738                 1.0002
 IR Inten    --      5.1822                 3.1727                 7.6270

                     25                     26                     27
                      A                      A                      A
 Frequencies --    919.7577               925.6125               942.6262
 Red. masses --      1.9220                 2.2295                 1.6983
 Frc consts  --      0.9580                 1.1254                 0.8891
 IR Inten    --      2.5466                14.8306                 4.5705

                     28                     29                     30
                      A                      A                      A
 Frequencies --    994.9981              1025.8408              1055.5168
 Red. masses --      2.2120                 1.8183                 1.8428
 Frc consts  --      1.2903                 1.1274                 1.2097
 IR Inten    --      6.2836                43.1978                 0.1834

                     31                     32                     33
                      A                      A                      A
 Frequencies --   1074.4683              1091.1599              1108.8710
 Red. masses --      1.5385                 3.0864                 1.1960
 Frc consts  --      1.0465                 2.1651                 0.8664
 IR Inten    --      1.2840                23.4396                 0.7892

                     34                     35                     36
                      A                      A                      A
 Frequencies --   1112.9900              1130.1595              1165.6074
 Red. masses --      2.7493                 2.5646                 1.8143
 Frc consts  --      2.0066                 1.9300                 1.4524
 IR Inten    --      0.6571                12.2046                 3.7528

                     37                     38                     39
                      A                      A                      A
 Frequencies --   1210.8011              1233.1178              1267.8291
 Red. masses --      1.4066                 1.3799                 1.3681
 Frc consts  --      1.2150                 1.2363                 1.2957
 IR Inten    --     11.4677                14.6406                 7.3997

                     40                     41                     42
                      A                      A                      A
 Frequencies --   1303.4379              1305.6386              1310.4805
 Red. masses --      2.6732                 1.3271                 1.2288
 Frc consts  --      2.6759                 1.3329                 1.2433
 IR Inten    --     73.4824                 6.9045                 3.3032

                     43                     44                     45
                      A                      A                      A
 Frequencies --   1323.2012              1356.8886              1369.6589
 Red. masses --      1.2980                 1.3238                 1.5842
 Frc consts  --      1.3390                 1.4361                 1.7510
 IR Inten    --      2.1946                 8.5983                34.2966

                     46                     47                     48
                      A                      A                      A
 Frequencies --   1388.2943              1394.8026              1400.3774
 Red. masses --      1.4135                 1.3685                 1.3448
 Frc consts  --      1.6052                 1.5686                 1.5538
 IR Inten    --      1.2418                 8.0703                 2.7725

                     49                     50                     51
                      A                      A                      A
 Frequencies --   1402.3990              1405.9635              1410.6342
 Red. masses --      1.4293                 1.4638                 1.3651
 Frc consts  --      1.6563                 1.7049                 1.6005
 IR Inten    --      1.6655                 0.8574                 8.5461

                     52                     53                     54
                      A                      A                      A
 Frequencies --   1421.5399              1433.7924              1511.7372
 Red. masses --      1.4674                 1.2670                 1.0872
 Frc consts  --      1.7471                 1.5346                 1.4638
 IR Inten    --      3.2390                24.6827                 0.4193

                     55                     56                     57
                      A                      A                      A
 Frequencies --   1516.1490              1517.3890              1522.5894
 Red. masses --      1.0931                 1.0949                 1.0849
 Frc consts  --      1.4805                 1.4853                 1.4819
 IR Inten    --      3.5480                 3.8821                 8.5877

                     58                     59                     60
                      A                      A                      A
 Frequencies --   1530.0548              1537.1918              2256.3597
 Red. masses --      1.0847                 1.0989                13.8444
 Frc consts  --      1.4961                 1.5299                41.5281
 IR Inten    --      3.3262                 0.6724               450.3099

                     61                     62                     63
                      A                      A                      A
 Frequencies --   2999.3348              3017.8794              3022.2728
 Red. masses --      1.0806                 1.0670                 1.0687
 Frc consts  --      5.7274                 5.7254                 5.7514
 IR Inten    --      3.4940                12.2435                30.4718

                     64                     65                     66
                      A                      A                      A
 Frequencies --   3023.6903              3026.6132              3029.1020
 Red. masses --      1.0721                 1.0670                 1.0667
 Frc consts  --      5.7751                 5.7586                 5.7665
 IR Inten    --      2.5571                17.8024                20.7284

                     67                     68                     69
                      A                      A                      A
 Frequencies --   3033.4664              3066.2685              3076.8718
 Red. masses --      1.0619                 1.0969                 1.0930
 Frc consts  --      5.7570                 6.0765                 6.0964
 IR Inten    --     76.5791                61.6488                34.5270

                     70                     71                     72
                      A                      A                      A
 Frequencies --   3077.8127              3078.5838              3083.2877
 Red. masses --      1.0909                 1.0935                 1.1026
 Frc consts  --      6.0887                 6.1064                 6.1761
 IR Inten    --     40.5190                48.7945                88.3082

                     73                     74                     75
                      A                      A                      A
 Frequencies --   3103.4522              3125.0100              3750.1995
 Red. masses --      1.0932                 1.0951                 1.0661
 Frc consts  --      6.2036                 6.3011                 8.8337
 IR Inten    --     30.7589                24.8829                10.5934

 - Thermochemistry -
 -------------------
 Temperature   298.150 Kelvin.  Pressure   1.00000 Atm.
 Atom     1 has atomic number  6 and mass  12.00000

 Molecular mass:   169.12151 amu.
 Principal axes and moments of inertia in atomic units:
                           1         2         3
     Eigenvalues --  1228.820472863.775703472.16123
           X            0.99965  -0.02445  -0.01052
           Y            0.02443   0.99970  -0.00246
           Z            0.01058   0.00220   0.99994
 This molecule is an asymmetric top.
 Rotational symmetry number  1.
 Warning -- assumption of classical behavior for rotation
           may cause significant error
 Rotational temperatures (Kelvin)      0.07049     0.03024     0.02495
 Rotational constants (GHZ):           1.46868     0.63020     0.51977
 Zero-point vibrational energy     622160.5 (Joules/Mol)
                                  148.69993 (Kcal/Mol)
 Warning -- explicit consideration of  18 degrees of freedom as
           vibrations may cause significant error
 Vibrational temperatures:     70.20    82.27   130.46   157.34   239.50
          (Kelvin)            296.83   331.67   380.36   453.98   472.60
                              500.72   580.79   623.99   639.01   668.73
                              777.13   831.26   891.65  1064.44  1157.16
                             1180.50  1204.34  1245.99  1306.54  1323.33
                             1331.75  1356.23  1431.58  1475.96  1518.65
                             1545.92  1569.94  1595.42  1601.34  1626.05
                             1677.05  1742.07  1774.18  1824.12  1875.36
                             1878.52  1885.49  1903.79  1952.26  1970.63
                             1997.45  2006.81  2014.83  2017.74  2022.87
                             2029.59  2045.28  2062.91  2175.05  2181.40
                             2183.18  2190.67  2201.41  2211.68  3246.40
                             4315.37  4342.06  4348.38  4350.42  4354.62
                             4358.20  4364.48  4411.68  4426.93  4428.29
                             4429.40  4436.16  4465.18  4496.19  5395.70

 Zero-point correction=                           0.236968 (Hartree/Particle)
 Thermal correction to Energy=                    0.248854
 Thermal correction to Enthalpy=                  0.249798
 Thermal correction to Gibbs Free Energy=         0.198603
 Sum of electronic and zero-point Energies=           -553.105443
 Sum of electronic and thermal Energies=              -553.093557
 Sum of electronic and thermal Enthalpies=            -553.092613
 Sum of electronic and thermal Free Energies=         -553.143808

                     E (Thermal)             CV                S
                      KCal/Mol        Cal/Mol-Kelvin    Cal/Mol-Kelvin
 Total                  156.158             44.997            107.749
 Electronic               0.000              0.000              0.000
 Translational            0.889              2.981             41.284
 Rotational               0.889              2.981             30.881
 Vibrational            154.381             39.036             35.584
 Vibration     1          0.595              1.978              4.866
 Vibration     2          0.596              1.975              4.552
 Vibration     3          0.602              1.956              3.645
 Vibration     4          0.606              1.942              3.280
 Vibration     5          0.624              1.884              2.475
 Vibration     6          0.641              1.831              2.076
 Vibration     7          0.652              1.794              1.875
 Vibration     8          0.671              1.738              1.633
 Vibration     9          0.703              1.644              1.333
 Vibration    10          0.712              1.619              1.268
 Vibration    11          0.726              1.579              1.175
 Vibration    12          0.769              1.462              0.949
 Vibration    13          0.794              1.397              0.847
 Vibration    14          0.804              1.374              0.814
 Vibration    15          0.822              1.328              0.752
 Vibration    16          0.895              1.161              0.565
 Vibration    17          0.934              1.079              0.490
 Vibration    18          0.980              0.990              0.417

 Optimization completed.
    -- Stationary point found.
 Normal termination of Gaussian 16 at Wed Dec  9 18:09:15 2020.

 ----------------------------------------------------------------------
 # B3LYP/6-311++G(d,p) empiricaldispersion=gd3bj scf=xqc pop=npa geom=c
 heck
 ----------------------------------------------------------------------

 ---------------------------------------
 CID_129984724_JID_2844_Energie_neutraal
 ---------------------------------------
 Structure from the checkpoint file:  "JID_2844.chk"
 Charge =  0 Multiplicity = 1

 SCF Done:  E(RB3LYP) =  -553.504724332     A.U. after   15 cycles
 Normal termination of Gaussian 16 at Wed Dec  9 18:12:26 2020.

 ----------------------------------------------------------------------
 # B3LYP/6-311++G(d,p) empiricaldispersion=gd3bj scf=xqc pop=npa geom=c
 heck
 ----------------------------------------------------------------------

 -------------------------------------
 CID_129984724_JID_2844_Energie_kation
 -------------------------------------
 Structure from the checkpoint file:  "JID_2844.chk"
 Charge =  1 Multiplicity = 2

 SCF Done:  E(UB3LYP) =  -553.175915046     A.U. after   25 cycles
 Normal termination of Gaussian 16 at Wed Dec  9 18:19:50 2020.
 Gaussian 16:  ES64L-G16RevA.03 25-Dec-2016

 ----------------------------------------------------------------------
 # B3LYP/6-311++G(d,p) empiricaldispersion=gd3bj scf=xqc pop=npa geom=c
 heck
 ----------------------------------------------------------------------

 ------------------------------------
 CID_129984724_JID_2844_Energie_anion
 ------------------------------------
 Structure from the checkpoint file:  "JID_2844.chk"
 Charge = -1 Multiplicity = 2

                         Standard orientation:
 ---------------------------------------------------------------------
 Center     Atomic      Atomic             Coordinates (Angstroms)
 Number     Number       Type             X           Y           Z
 ---------------------------------------------------------------------
      1          6           0        3.268133   -0.203296   -0.134999
      2          6           0        2.344989   -1.427149   -0.140843
      3          6           0        1.058799   -1.157884    0.648561
      4          6           0        0.307242    0.079147    0.125141
      5          6           0        1.240062    1.304811    0.121667
      6          6           0        2.534612    1.036088   -0.659541
      7          6           0       -0.983990    0.326573    0.931545
      8          6           0       -1.762187    1.583664    0.517296
      9          8           0       -2.137823    1.567415   -0.851635
     10          7           0       -1.887156   -0.853883    0.906320
     11          7           0       -2.233327   -1.254518   -0.211359
     12          7           0       -2.615200   -1.754501   -1.164660
     13          1           0        4.165426   -0.395042   -0.735683
     14          1           0        3.610734   -0.013213    0.892592
     15          1           0        2.086215   -1.681913   -1.178807
     16          1           0        2.862511   -2.299766    0.275355
     17          1           0        1.310309   -0.990510    1.706719
     18          1           0        0.401844   -2.032731    0.621262
     19          1           0        0.013990   -0.123876   -0.917305
     20          1           0        1.487227    1.568427    1.160781
     21          1           0        0.736014    2.180577   -0.306518
     22          1           0        3.185394    1.917613   -0.612752
     23          1           0        2.286676    0.885222   -1.720317
     24          1           0       -0.723098    0.431897    1.990740
     25          1           0       -2.696354    1.618876    1.083524
     26          1           0       -1.181800    2.482183    0.772115
     27          1           0       -1.338684    1.701528   -1.383698
 ---------------------------------------------------------------------

 SCF Done:  E(UB3LYP) =  -553.492995452     A.U. after   33 cycles
 SCF Done:  E(UB3LYP) =  -553.492995452     a.u. after    1 cycles

 The electronic state is 2-A.
 Alpha  occ. eigenvalues --  -19.02402 -14.36038 -14.26085 -14.24380 -10.11933
 Alpha  occ. eigenvalues --  -10.11650 -10.07635 -10.06426 -10.06176 -10.06131
 Alpha  occ. eigenvalues --  -10.05661 -10.05404  -1.02321  -0.92715  -0.86533
 Alpha  occ. eigenvalues --   -0.73785  -0.68344  -0.63927  -0.62319  -0.55448
 Alpha  occ. eigenvalues --   -0.50972  -0.49965  -0.45658  -0.43693  -0.40540
 Alpha  occ. eigenvalues --   -0.40122  -0.38640  -0.37178  -0.35307  -0.34188
 Alpha  occ. eigenvalues --   -0.33404  -0.33281  -0.33138  -0.30007  -0.28135
 Alpha  occ. eigenvalues --   -0.27630  -0.27021  -0.24201  -0.23869  -0.23650
 Alpha  occ. eigenvalues --   -0.22124  -0.21479  -0.20159  -0.19487  -0.17505
 Alpha  occ. eigenvalues --   -0.14026   0.04765
 Alpha virt. eigenvalues --    0.06466   0.07382   0.07890   0.08598   0.09541
 Alpha virt. eigenvalues --    0.10266   0.10604   0.11138   0.11673   0.11798
 Alpha virt. eigenvalues --    0.12671   0.13190   0.14008   0.14265   0.14628

  Beta  occ. eigenvalues --  -19.02367 -14.35891 -14.25952 -14.24393 -10.11921
  Beta  occ. eigenvalues --  -10.11612 -10.07628 -10.06422 -10.06162 -10.06098
  Beta  occ. eigenvalues --  -10.05638 -10.05367  -1.02076  -0.92635  -0.86433
  Beta  occ. eigenvalues --   -0.73743  -0.68273  -0.63876  -0.62261  -0.55362
  Beta  occ. eigenvalues --   -0.50914  -0.49891  -0.45571  -0.43577  -0.40183
  Beta  occ. eigenvalues --   -0.40022  -0.38539  -0.36955  -0.35174  -0.34044
  Beta  occ. eigenvalues --   -0.33334  -0.33201  -0.33011  -0.29942  -0.28040
  Beta  occ. eigenvalues --   -0.27574  -0.26981  -0.24160  -0.23818  -0.23598
  Beta  occ. eigenvalues --   -0.22024  -0.21405  -0.20105  -0.19431  -0.17319
  Beta  occ. eigenvalues --   -0.13985
  Beta virt. eigenvalues --    0.07101   0.07608   0.08239   0.08614   0.09364
  Beta virt. eigenvalues --    0.09937   0.10721   0.11053   0.11516   0.11955
  Beta virt. eigenvalues --    0.12147   0.12971   0.13528   0.14281   0.14587

 Mulliken charges and spin densities:
               1          2
     1  C    0.524818  -0.896973
     2  C   -0.420000   0.031439
     3  C   -0.152292  -0.304809
     4  C    0.035807  -0.289011
     5  C    0.144989  -0.389936
     6  C    0.636571  -0.990373
     7  C   -0.124933   0.655334
     8  C    0.542074  -1.304550
     9  O   -0.257584   0.021901
    10  N   -0.598380  -0.006418
    11  N    0.819712   0.034033
    12  N   -0.276842   0.092912
    13  H   -0.535559   0.711934
    14  H    0.035437   0.071322
    15  H   -0.024076   0.149327
    16  H   -0.112745   0.277401
    17  H   -0.020075   0.165700
    18  H    0.202374  -0.060518
    19  H    0.098115   0.065144
    20  H   -0.068030   0.225394
    21  H   -0.456081   0.600602
    22  H   -0.749624   0.942047
    23  H   -0.199242   0.341264
    24  H    0.163661   0.032561
    25  H    0.241707  -0.055928
    26  H   -0.372025   0.525515
    27  H   -0.077777   0.354686
 Sum of Mulliken charges =  -1.00000   1.00000

 Dipole moment (field-independent basis, Debye):
    X=             -3.5468    Y=             -3.7702    Z=              4.4081  Tot=              6.7989
 Quadrupole moment (field-independent basis, Debye-Ang):
   XX=           -139.4607   YY=           -119.5885   ZZ=           -102.4829
   XY=             -8.7389   XZ=              0.0058   YZ=              4.6579

 Summary of Natural Population Analysis:

                                       Natural Population
                Natural  -----------------------------------------------
    Atom  No    Charge         Core      Valence    Rydberg      Total
 -----------------------------------------------------------------------
      C    1   -0.18862      0.99963     2.18045    0.00853     3.18862
      C    2   -0.18851      0.99963     2.18028    0.00860     3.18851
      C    3   -0.18717      0.99961     2.17918    0.00838     3.18717
      C    4   -0.12254      0.99956     2.11122    0.01176     3.12254
      C    5   -0.19131      0.99961     2.18077    0.01093     3.19131
      C    6   -0.18784      0.99963     2.17857    0.00964     3.18784
      C    7   -0.01929      0.99953     2.00667    0.01309     3.01929
      C    8   -0.01491      0.99956     2.00135    0.01399     3.01491
      O    9   -0.36870      0.99990     3.36193    0.00687     4.36870
      N   10   -0.19578      0.99970     2.68285    0.01323     3.69578
      N   11    0.12830      0.99970     2.35622    0.01579     3.37170
      N   12   -0.03921      0.99982     2.52677    0.01263     3.53921
      H   13    0.10021      0.00000     0.39831    0.00148     0.39979
      H   14    0.09099      0.00000     0.40773    0.00128     0.40901
      H   15    0.09424      0.00000     0.40447    0.00128     0.40576
      H   16    0.09667      0.00000     0.40245    0.00088     0.40333
      H   17    0.09161      0.00000     0.40720    0.00119     0.40839
      H   18    0.10250      0.00000     0.39646    0.00104     0.39750
      H   19    0.09772      0.00000     0.39994    0.00234     0.40228
      H   20    0.09329      0.00000     0.40519    0.00152     0.40671
      H   21    0.10295      0.00000     0.39358    0.00347     0.39705
      H   22    0.10371      0.00000     0.39330    0.00299     0.39629
      H   23    0.09522      0.00000     0.40258    0.00220     0.40478
      H   24    0.09877      0.00000     0.40002    0.00122     0.40123
      H   25    0.08856      0.00000     0.41032    0.00111     0.41144
      H   26    0.08557      0.00000     0.41312    0.00130     0.41443
      H   27    0.23356      0.00000     0.26215    0.00429     0.26644
 =======================================================================
   * Total *   -0.00000     11.99588    33.84309    0.16103    46.00000

 Normal termination of Gaussian 16 at Wed Dec  9 18:29:38 2020.
