 Gaussian 16, Revision A.03,

 -----------------------------------------------------------
 # opt freq B3LYP/6-31G(d) empiricaldispersion=gd3bj scf=xqc
 -----------------------------------------------------------

 -------------------------------
 CID_115164289_JID_8570_neutraal
 -------------------------------
 Symbolic Z-matrix:
 Charge =  0 Multiplicity = 1

 SCF Done:  E(RB3LYP) =  -855.116092649     A.U. after   15 cycles
 SCF Done:  E(RB3LYP) =  -855.121488008     A.U. after   13 cycles
 SCF Done:  E(RB3LYP) =  -855.121642530     A.U. after   13 cycles
 SCF Done:  E(RB3LYP) =  -855.122318254     A.U. after   12 cycles
 SCF Done:  E(RB3LYP) =  -855.122620146     A.U. after   12 cycles
 SCF Done:  E(RB3LYP) =  -855.122592916     A.U. after   11 cycles
 SCF Done:  E(RB3LYP) =  -855.122699749     A.U. after   11 cycles
 SCF Done:  E(RB3LYP) =  -855.122726910     A.U. after   10 cycles
 SCF Done:  E(RB3LYP) =  -855.122764426     A.U. after   11 cycles
 SCF Done:  E(RB3LYP) =  -855.122782592     A.U. after   11 cycles
 SCF Done:  E(RB3LYP) =  -855.122997194     A.U. after   12 cycles
 SCF Done:  E(RB3LYP) =  -855.122999777     A.U. after    9 cycles
 SCF Done:  E(RB3LYP) =  -855.123000113     A.U. after    8 cycles
 SCF Done:  E(RB3LYP) =  -855.123000155     A.U. after    7 cycles
 Optimization completed.
    -- Stationary point found.
 Normal termination of Gaussian 16 at Sun Dec 13 12:58:02 2020.

 --------------------------------------------------------------------
 #N Geom=AllCheck Guess=TCheck SCRF=Check GenChk RB3LYP/6-31G(d) Freq
 --------------------------------------------------------------------

 Structure from the checkpoint file:  "JID_8570.chk"
 -------------------------------
 CID_115164289_JID_8570_neutraal
 -------------------------------
 Charge =  0 Multiplicity = 1

 SCF Done:  E(RB3LYP) =  -855.123000155     A.U. after    1 cycles

  Exact polarizability: 223.659  -0.948 133.280  14.773 -15.135  91.641
 Approx polarizability: 301.266  -1.372 241.143  31.618 -41.348 149.010

                      1                      2                      3
                      A                      A                      A
 Frequencies --     11.3382                33.4596                37.9130
 Red. masses --      5.2235                 5.8058                 8.4459
 Frc consts  --      0.0004                 0.0038                 0.0072
 IR Inten    --      0.2101                 0.4358                 3.1642

                      4                      5                      6
                      A                      A                      A
 Frequencies --     53.8010                66.7114               121.1229
 Red. masses --      5.1002                 7.5156                 5.9794
 Frc consts  --      0.0087                 0.0197                 0.0517
 IR Inten    --      2.3665                 0.7831                 0.3326

                      7                      8                      9
                      A                      A                      A
 Frequencies --    159.5263               176.6991               213.5802
 Red. masses --      6.3315                 4.4609                 3.3927
 Frc consts  --      0.0949                 0.0821                 0.0912
 IR Inten    --      2.6583                 0.7258                 2.4670

                     10                     11                     12
                      A                      A                      A
 Frequencies --    234.2829               250.1360               262.0493
 Red. masses --      1.8555                 3.5116                 1.7263
 Frc consts  --      0.0600                 0.1295                 0.0698
 IR Inten    --      2.4515                 5.9587                 1.3805

                     13                     14                     15
                      A                      A                      A
 Frequencies --    280.0208               312.8078               331.1948
 Red. masses --      3.6818                 3.3481                 6.1390
 Frc consts  --      0.1701                 0.1930                 0.3967
 IR Inten    --      0.4038                 2.1084                 0.2722

                     16                     17                     18
                      A                      A                      A
 Frequencies --    421.7544               432.0178               440.3322
 Red. masses --      4.5526                 2.9044                 2.3532
 Frc consts  --      0.4771                 0.3194                 0.2688
 IR Inten    --     12.7792                 9.7410                23.1096

                     19                     20                     21
                      A                      A                      A
 Frequencies --    441.8866               494.0014               540.5001
 Red. masses --      1.8346                 4.7519                 2.7701
 Frc consts  --      0.2111                 0.6832                 0.4768
 IR Inten    --     89.0986                 6.6306                10.7729

                     22                     23                     24
                      A                      A                      A
 Frequencies --    561.7922               606.9204               615.7705
 Red. masses --      4.2550                 2.3540                 2.5880
 Frc consts  --      0.7912                 0.5109                 0.5782
 IR Inten    --      9.0465                79.2900                36.5005

                     25                     26                     27
                      A                      A                      A
 Frequencies --    627.0533               643.7707               651.7527
 Red. masses --      1.8961                 2.8126                 2.6809
 Frc consts  --      0.4393                 0.6868                 0.6710
 IR Inten    --     65.7089                74.5073                 1.6293

                     28                     29                     30
                      A                      A                      A
 Frequencies --    670.4840               729.0000               754.0766
 Red. masses --      2.6237                 3.7519                 4.1047
 Frc consts  --      0.6949                 1.1748                 1.3752
 IR Inten    --     39.9559                31.1691                18.5234

                     31                     32                     33
                      A                      A                      A
 Frequencies --    770.3931               776.8115               819.7055
 Red. masses --      4.3604                 5.0674                 4.6680
 Frc consts  --      1.5248                 1.8016                 1.8480
 IR Inten    --      1.2004                 0.2410                 4.6059

                     34                     35                     36
                      A                      A                      A
 Frequencies --    829.1098               837.6534               852.5898
 Red. masses --      2.8144                 1.5652                 1.3308
 Frc consts  --      1.1399                 0.6471                 0.5700
 IR Inten    --      1.2331                27.6552                20.0834

                     37                     38                     39
                      A                      A                      A
 Frequencies --    864.7256               868.4505               949.6915
 Red. masses --      1.4972                 2.6609                 7.3031
 Frc consts  --      0.6596                 1.1824                 3.8808
 IR Inten    --      3.0617                 8.9853                 4.0527

                     40                     41                     42
                      A                      A                      A
 Frequencies --    951.6243               967.8980               994.0416
 Red. masses --      2.6734                 1.3810                 1.8824
 Frc consts  --      1.4264                 0.7623                 1.0959
 IR Inten    --      7.0902                 2.7135                44.9625

                     43                     44                     45
                      A                      A                      A
 Frequencies --   1026.4559              1094.4589              1105.1482
 Red. masses --      2.0282                 1.8200                 1.7226
 Frc consts  --      1.2591                 1.2845                 1.2396
 IR Inten    --     18.9309                76.6325                22.0003

                     46                     47                     48
                      A                      A                      A
 Frequencies --   1114.5667              1138.9102              1152.0678
 Red. masses --      2.2807                 2.6301                 1.9616
 Frc consts  --      1.6693                 2.0100                 1.5339
 IR Inten    --      7.0757                 8.0786                 7.3531

                     49                     50                     51
                      A                      A                      A
 Frequencies --   1166.0254              1225.7705              1227.4159
 Red. masses --      1.6917                 1.9236                 1.8402
 Frc consts  --      1.3551                 1.7029                 1.6335
 IR Inten    --      2.6977               108.1781                45.8449

                     52                     53                     54
                      A                      A                      A
 Frequencies --   1272.2129              1288.3367              1292.9462
 Red. masses --      1.5759                 1.4722                 1.4326
 Frc consts  --      1.5028                 1.4397                 1.4111
 IR Inten    --    116.6074                14.3389                14.5405

                     55                     56                     57
                      A                      A                      A
 Frequencies --   1308.1085              1342.3054              1343.6758
 Red. masses --      5.0624                 1.4390                 2.0326
 Frc consts  --      5.1038                 1.5276                 2.1622
 IR Inten    --     49.9168                58.6388                15.5771

                     58                     59                     60
                      A                      A                      A
 Frequencies --   1363.0854              1388.1638              1401.8337
 Red. masses --      2.0686                 2.7271                 2.0631
 Frc consts  --      2.2645                 3.0962                 2.3887
 IR Inten    --      6.1015               114.7631               100.7968

                     61                     62                     63
                      A                      A                      A
 Frequencies --   1406.8274              1434.9855              1449.5160
 Red. masses --      2.1799                 1.7960                 1.3600
 Frc consts  --      2.5420                 2.1790                 1.6836
 IR Inten    --     28.2886                 6.1138                 6.4223

                     64                     65                     66
                      A                      A                      A
 Frequencies --   1492.6825              1506.5188              1518.4696
 Red. masses --      3.0723                 1.7535                 1.1344
 Frc consts  --      4.0332                 2.3448                 1.5411
 IR Inten    --     30.8300                61.4228                19.5194

                     67                     68                     69
                      A                      A                      A
 Frequencies --   1528.5553              1534.5760              1536.4184
 Red. masses --      1.0605                 2.5979                 1.2963
 Frc consts  --      1.4599                 3.6046                 1.8030
 IR Inten    --      9.3893                 9.6143                34.5616

                     70                     71                     72
                      A                      A                      A
 Frequencies --   1559.6946              1635.1434              1689.3686
 Red. masses --      3.2960                 6.8080                 6.6499
 Frc consts  --      4.7240                10.7246                11.1818
 IR Inten    --     15.3457                 6.5043                16.4710

                     73                     74                     75
                      A                      A                      A
 Frequencies --   1782.5461              1851.8953              3044.2161
 Red. masses --      8.2331                 9.7773                 1.0715
 Frc consts  --     15.4132                19.7561                 5.8503
 IR Inten    --    394.0328               311.1920                33.0263

                     76                     77                     78
                      A                      A                      A
 Frequencies --   3072.5674              3095.0553              3116.8798
 Red. masses --      1.0349                 1.0853                 1.0896
 Frc consts  --      5.7562                 6.1255                 6.2365
 IR Inten    --     14.4682                11.2108                13.3302

                     79                     80                     81
                      A                      A                      A
 Frequencies --   3141.6810              3158.1447              3182.1939
 Red. masses --      1.1034                 1.1028                 1.0907
 Frc consts  --      6.4166                 6.4804                 6.5073
 IR Inten    --     22.3162                 9.9374                12.6896

                     82                     83                     84
                      A                      A                      A
 Frequencies --   3209.4512              3224.2635              3260.2036
 Red. masses --      1.0871                 1.0945                 1.0970
 Frc consts  --      6.5977                 6.7039                 6.8698
 IR Inten    --      3.2563                 7.8280                 3.0948

                     85                     86                     87
                      A                      A                      A
 Frequencies --   3577.8300              3658.3497              3689.3933
 Red. masses --      1.0753                 1.0807                 1.0639
 Frc consts  --      8.1103                 8.5215                 8.5324
 IR Inten    --     21.2932                59.5618                58.1465

 - Thermochemistry -
 -------------------
 Temperature   298.150 Kelvin.  Pressure   1.00000 Atm.
 Atom     1 has atomic number  6 and mass  12.00000

 Molecular mass:   247.09569 amu.
 Principal axes and moments of inertia in atomic units:
                           1         2         3
     Eigenvalues --  1351.13885********************
           X            0.99998  -0.00662  -0.00136
           Y            0.00661   0.99996  -0.00619
           Z            0.00140   0.00618   0.99998
 This molecule is an asymmetric top.
 Rotational symmetry number  1.
 Warning -- assumption of classical behavior for rotation
           may cause significant error
 Rotational temperatures (Kelvin)      0.06410     0.00780     0.00758
 Rotational constants (GHZ):           1.33572     0.16245     0.15798
 Zero-point vibrational energy     647582.7 (Joules/Mol)
                                  154.77597 (Kcal/Mol)
 Warning -- explicit consideration of  24 degrees of freedom as
           vibrations may cause significant error
 Vibrational temperatures:     16.31    48.14    54.55    77.41    95.98
          (Kelvin)            174.27   229.52   254.23   307.29   337.08
                              359.89   377.03   402.89   450.06   476.52
                              606.81   621.58   633.54   635.78   710.76
                              777.66   808.29   873.22   885.96   902.19
                              926.24   937.73   964.68  1048.87  1084.95
                             1108.42  1117.66  1179.37  1192.90  1205.20
                             1226.69  1244.15  1249.51  1366.39  1369.18
                             1392.59  1430.20  1476.84  1574.68  1590.06
                             1603.61  1638.64  1657.57  1677.65  1763.61
                             1765.98  1830.43  1853.63  1860.26  1882.08
                             1931.28  1933.25  1961.18  1997.26  2016.93
                             2024.11  2064.62  2085.53  2147.64  2167.54
                             2184.74  2199.25  2207.91  2210.56  2244.05
                             2352.61  2430.62  2564.69  2664.46  4379.95
                             4420.74  4453.09  4484.49  4520.18  4543.87
                             4578.47  4617.68  4639.00  4690.71  5147.70
                             5263.55  5308.21

 Zero-point correction=                           0.246651 (Hartree/Particle)
 Thermal correction to Energy=                    0.262764
 Thermal correction to Enthalpy=                  0.263708
 Thermal correction to Gibbs Free Energy=         0.200156
 Sum of electronic and zero-point Energies=           -854.876349
 Sum of electronic and thermal Energies=              -854.860236
 Sum of electronic and thermal Enthalpies=            -854.859292
 Sum of electronic and thermal Free Energies=         -854.922844

                     E (Thermal)             CV                S
                      KCal/Mol        Cal/Mol-Kelvin    Cal/Mol-Kelvin
 Total                  164.887             60.914            133.758
 Electronic               0.000              0.000              0.000
 Translational            0.889              2.981             42.414
 Rotational               0.889              2.981             33.505
 Vibrational            163.110             54.953             57.838
 Vibration     1          0.593              1.987              7.762
 Vibration     2          0.594              1.983              5.613
 Vibration     3          0.594              1.982              5.365
 Vibration     4          0.596              1.976              4.673
 Vibration     5          0.598              1.970              4.248
 Vibration     6          0.609              1.932              3.082
 Vibration     7          0.621              1.892              2.555
 Vibration     8          0.628              1.871              2.363
 Vibration     9          0.644              1.820              2.013
 Vibration    10          0.654              1.788              1.846
 Vibration    11          0.663              1.763              1.730
 Vibration    12          0.669              1.742              1.648
 Vibration    13          0.680              1.711              1.534
 Vibration    14          0.701              1.649              1.347
 Vibration    15          0.714              1.613              1.254
 Vibration    16          0.784              1.423              0.886
 Vibration    17          0.793              1.400              0.852
 Vibration    18          0.800              1.382              0.826
 Vibration    19          0.802              1.379              0.821
 Vibration    20          0.850              1.263              0.673
 Vibration    21          0.896              1.161              0.564
 Vibration    22          0.917              1.114              0.520
 Vibration    23          0.966              1.017              0.438
 Vibration    24          0.975              0.999              0.423

 Optimization completed.
    -- Stationary point found.
 Normal termination of Gaussian 16 at Sun Dec 13 13:08:53 2020.

 ----------------------------------------------------------------------
 # B3LYP/6-311++G(d,p) empiricaldispersion=gd3bj scf=xqc pop=npa geom=c
 heck
 ----------------------------------------------------------------------

 ---------------------------------------
 CID_115164289_JID_8570_Energie_neutraal
 ---------------------------------------
 Structure from the checkpoint file:  "JID_8570.chk"
 Charge =  0 Multiplicity = 1

 SCF Done:  E(RB3LYP) =  -855.374527017     A.U. after   16 cycles
 Normal termination of Gaussian 16 at Sun Dec 13 13:14:22 2020.

 ----------------------------------------------------------------------
 # B3LYP/6-311++G(d,p) empiricaldispersion=gd3bj scf=xqc pop=npa geom=c
 heck
 ----------------------------------------------------------------------

 -------------------------------------
 CID_115164289_JID_8570_Energie_kation
 -------------------------------------
 Structure from the checkpoint file:  "JID_8570.chk"
 Charge =  1 Multiplicity = 2

 SCF Done:  E(UB3LYP) =  -855.067406906     A.U. after   33 cycles
 SCF Done:  E(UB3LYP) =  -855.067406906     a.u. after    1 cycles
 Normal termination of Gaussian 16 at Sun Dec 13 13:30:57 2020.
 Gaussian 16:  ES64L-G16RevA.03 25-Dec-2016

 ----------------------------------------------------------------------
 # B3LYP/6-311++G(d,p) empiricaldispersion=gd3bj scf=xqc pop=npa geom=c
 heck
 ----------------------------------------------------------------------

 ------------------------------------
 CID_115164289_JID_8570_Energie_anion
 ------------------------------------
 Structure from the checkpoint file:  "JID_8570.chk"
 Charge = -1 Multiplicity = 2

                         Standard orientation:
 ---------------------------------------------------------------------
 Center     Atomic      Atomic             Coordinates (Angstroms)
 Number     Number       Type             X           Y           Z
 ---------------------------------------------------------------------
      1          6           0        2.134009   -1.213723   -1.138328
      2          6           0        2.823112    0.048427   -0.590935
      3          6           0        2.364140    0.332905    0.849006
      4          8           0        3.009704   -0.062971    1.810175
      5          7           0        1.201117    1.034936    1.017675
      6          6           0        0.210942    1.438724    0.036748
      7          6           0       -1.099130    0.669430    0.120492
      8          6           0       -2.267782    1.289022   -0.324482
      9          6           0       -3.443504    0.542056   -0.286990
     10          6           0       -3.484834   -0.792131    0.190104
     11          6           0       -2.308233   -1.395158    0.644709
     12          6           0       -1.130664   -0.656708    0.603713
     13          7           0       -4.781976   -1.290981    0.125344
     14          6           0       -5.492093   -0.309011   -0.366200
     15          7           0       -4.753164    0.824292   -0.636106
     16          6           0        4.342018   -0.041612   -0.558896
     17          8           0        5.076427    0.915236   -0.654495
     18          8           0        4.792934   -1.305972   -0.420530
     19          1           0        2.332616   -2.065246   -0.483315
     20          1           0        2.510386   -1.455825   -2.136513
     21          1           0        1.051638   -1.070735   -1.203980
     22          1           0        2.607167    0.909376   -1.229692
     23          1           0        0.940351    1.121776    1.993855
     24          1           0        0.009232    2.511859    0.149134
     25          1           0        0.648955    1.318141   -0.957380
     26          1           0       -2.251661    2.314619   -0.685174
     27          1           0       -2.325396   -2.412217    1.022377
     28          1           0       -0.209824   -1.102130    0.964790
     29          1           0       -6.557041   -0.342942   -0.557833
     30          1           0       -5.102926    1.689821   -1.018803
     31          1           0        5.764253   -1.237898   -0.360699
 ---------------------------------------------------------------------

 SCF Done:  E(UB3LYP) =  -855.373278962     A.U. after   33 cycles
 SCF Done:  E(UB3LYP) =  -855.373278962     a.u. after    1 cycles

 The electronic state is 2-A.
 Alpha  occ. eigenvalues --  -19.09900 -19.04121 -19.01275 -14.26816 -14.26325
 Alpha  occ. eigenvalues --  -14.20507 -10.23456 -10.20307 -10.14159 -10.13778
 Alpha  occ. eigenvalues --  -10.12827 -10.11856 -10.10118 -10.09731 -10.09542
 Alpha  occ. eigenvalues --  -10.08526 -10.08166 -10.08105  -1.03983  -0.96639
 Alpha  occ. eigenvalues --   -0.94911  -0.92207  -0.85238  -0.78539  -0.76037
 Alpha  occ. eigenvalues --   -0.73111  -0.67757  -0.65494  -0.61109  -0.60071
 Alpha  occ. eigenvalues --   -0.56326  -0.54295  -0.52167  -0.50566  -0.49834
 Alpha  occ. eigenvalues --   -0.46143  -0.43975  -0.41937  -0.41566  -0.40588
 Alpha  occ. eigenvalues --   -0.40076  -0.39496  -0.37255  -0.36072  -0.35448
 Alpha  occ. eigenvalues --   -0.34913  -0.34457  -0.34238  -0.34051  -0.32491
 Alpha  occ. eigenvalues --   -0.32157  -0.30913  -0.29933  -0.29212  -0.28590
 Alpha  occ. eigenvalues --   -0.26895  -0.25373  -0.25016  -0.21702  -0.20940
 Alpha  occ. eigenvalues --   -0.18703  -0.18664  -0.18234  -0.14393  -0.13808
 Alpha  occ. eigenvalues --    0.03513
 Alpha virt. eigenvalues --    0.04784   0.05689   0.06462   0.06667   0.07186
 Alpha virt. eigenvalues --    0.08063   0.08303   0.09295   0.09643   0.09742
 Alpha virt. eigenvalues --    0.10030   0.10978   0.11179   0.11994   0.12368

  Beta  occ. eigenvalues --  -19.09877 -19.04107 -19.01262 -14.26746 -14.26321
  Beta  occ. eigenvalues --  -14.20504 -10.23448 -10.20292 -10.14103 -10.13765
  Beta  occ. eigenvalues --  -10.12823 -10.11859 -10.10109 -10.09710 -10.09526
  Beta  occ. eigenvalues --  -10.08463 -10.08140 -10.08073  -1.03946  -0.96614
  Beta  occ. eigenvalues --   -0.94877  -0.92134  -0.85221  -0.78458  -0.75973
  Beta  occ. eigenvalues --   -0.73083  -0.67696  -0.65404  -0.61046  -0.60030
  Beta  occ. eigenvalues --   -0.56281  -0.54181  -0.52027  -0.50526  -0.49798
  Beta  occ. eigenvalues --   -0.46044  -0.43940  -0.41892  -0.41530  -0.40543
  Beta  occ. eigenvalues --   -0.40036  -0.39452  -0.37208  -0.36028  -0.35394
  Beta  occ. eigenvalues --   -0.34795  -0.34397  -0.34199  -0.34023  -0.32450
  Beta  occ. eigenvalues --   -0.32113  -0.30891  -0.29895  -0.29179  -0.28552
  Beta  occ. eigenvalues --   -0.26845  -0.25309  -0.24861  -0.21580  -0.20912
  Beta  occ. eigenvalues --   -0.18686  -0.18627  -0.18202  -0.14237  -0.13587
  Beta virt. eigenvalues --    0.05187   0.06096   0.06604   0.06810   0.07311
  Beta virt. eigenvalues --    0.07505   0.08050   0.09011   0.09541   0.09710
  Beta virt. eigenvalues --    0.09798   0.10480   0.10960   0.11208   0.12254

 Mulliken charges and spin densities:
               1          2
     1  C   -0.264312  -0.422893
     2  C    0.018868   0.272909
     3  C    0.098453  -0.182408
     4  O   -0.297214   0.011610
     5  N   -0.035088   0.021905
     6  C    0.339664  -1.072410
     7  C    1.221240  -0.160563
     8  C   -0.142936  -0.446487
     9  C    1.170721  -1.159456
    10  C    0.235781  -0.418229
    11  C   -1.030215   0.541025
    12  C   -0.698394   0.204679
    13  N   -0.171870  -0.000949
    14  C    0.049870   0.304736
    15  N   -0.156329  -0.035376
    16  C    0.051369  -0.190575
    17  O   -0.277665   0.004926
    18  O   -0.120037   0.010433
    19  H    0.154636   0.049382
    20  H   -0.016464   0.186575
    21  H    0.114663  -0.001264
    22  H    0.112678   0.119818
    23  H    0.267103   0.030281
    24  H   -0.086283   0.296934
    25  H    0.218708  -0.057971
    26  H   -0.849165   1.029976
    27  H    0.125245   0.041717
    28  H    0.163299  -0.001092
    29  H   -0.626059   0.828592
    30  H   -0.658373   1.000606
    31  H    0.088106   0.193567
 Sum of Mulliken charges =  -1.00000   1.00000

 Dipole moment (field-independent basis, Debye):
    X=              7.9186    Y=             -4.1834    Z=              0.3256  Tot=              8.9617
 Quadrupole moment (field-independent basis, Debye-Ang):
   XX=           -240.8788   YY=           -147.2998   ZZ=           -131.4172
   XY=             13.5827   XZ=            -12.8193   YZ=              7.3648

 Summary of Natural Population Analysis:

                                       Natural Population
                Natural  -----------------------------------------------
    Atom  No    Charge         Core      Valence    Rydberg      Total
 -----------------------------------------------------------------------
      C    1   -0.28607      0.99965     2.28085    0.00557     3.28607
      C    2   -0.19457      0.99952     2.18459    0.01046     3.19457
      C    3    0.35177      0.99966     1.62569    0.02289     2.64823
      O    4   -0.31993      0.99988     3.31438    0.00568     4.31993
      N    5   -0.31204      0.99967     2.80304    0.00934     3.81204
      C    6   -0.09238      0.99957     2.08172    0.01109     3.09238
      C    7   -0.02903      0.99951     2.02010    0.00942     3.02903
      C    8   -0.10496      0.99947     2.09560    0.00988     3.10496
      C    9    0.06676      0.99946     1.92119    0.01259     2.93324
      C   10    0.05279      0.99945     1.93322    0.01454     2.94721
      C   11   -0.08442      0.99952     2.07667    0.00822     3.08442
      C   12   -0.12014      0.99953     2.11287    0.00774     3.12014
      N   13   -0.25910      0.99971     2.74979    0.00961     3.75910
      C   14    0.13469      0.99965     1.84785    0.01782     2.86531
      N   15   -0.27495      0.99966     2.76406    0.01123     3.77495
      C   16    0.41946      0.99971     1.55435    0.02649     2.58054
      O   17   -0.30477      0.99987     3.29847    0.00644     4.30477
      O   18   -0.34007      0.99987     3.33353    0.00667     4.34007
      H   19    0.10871      0.00000     0.39006    0.00123     0.39129
      H   20    0.10336      0.00000     0.39559    0.00105     0.39664
      H   21    0.10784      0.00000     0.39116    0.00100     0.39216
      H   22    0.11589      0.00000     0.38271    0.00140     0.38411
      H   23    0.19577      0.00000     0.30194    0.00229     0.30423
      H   24    0.10250      0.00000     0.39622    0.00127     0.39750
      H   25    0.10176      0.00000     0.39695    0.00129     0.39824
      H   26    0.10715      0.00000     0.39093    0.00193     0.39285
      H   27    0.10216      0.00000     0.39671    0.00113     0.39784
      H   28    0.10167      0.00000     0.39690    0.00143     0.39833
      H   29    0.09412      0.00000     0.40439    0.00149     0.40588
      H   30    0.21581      0.00000     0.24312    0.04107     0.28419
      H   31    0.24023      0.00000     0.25542    0.00435     0.25977
 =======================================================================
   * Total *    0.00000     17.99334    46.74007    0.26660    65.00000

 Normal termination of Gaussian 16 at Sun Dec 13 13:47:21 2020.
