 Gaussian 16, Revision A.03,

 -----------------------------------------------------------
 # opt freq B3LYP/6-31G(d) empiricaldispersion=gd3bj scf=xqc
 -----------------------------------------------------------

 ------------------------------
 CID_54964356_JID_8117_neutraal
 ------------------------------
 Symbolic Z-matrix:
 Charge =  0 Multiplicity = 1

 SCF Done:  E(RB3LYP) =  -1111.25550434     A.U. after   15 cycles
 SCF Done:  E(RB3LYP) =  -1111.26048907     A.U. after   12 cycles
 SCF Done:  E(RB3LYP) =  -1111.26131139     A.U. after   12 cycles
 SCF Done:  E(RB3LYP) =  -1111.26144713     A.U. after   11 cycles
 SCF Done:  E(RB3LYP) =  -1111.26153117     A.U. after   11 cycles
 SCF Done:  E(RB3LYP) =  -1111.26158241     A.U. after   11 cycles
 SCF Done:  E(RB3LYP) =  -1111.26159677     A.U. after   10 cycles
 SCF Done:  E(RB3LYP) =  -1111.26160895     A.U. after   10 cycles
 SCF Done:  E(RB3LYP) =  -1111.26162471     A.U. after   11 cycles
 SCF Done:  E(RB3LYP) =  -1111.26163740     A.U. after   11 cycles
 SCF Done:  E(RB3LYP) =  -1111.26164424     A.U. after    8 cycles
 SCF Done:  E(RB3LYP) =  -1111.26164440     A.U. after    7 cycles
 SCF Done:  E(RB3LYP) =  -1111.26164444     A.U. after    6 cycles
 SCF Done:  E(RB3LYP) =  -1111.26164449     A.U. after    6 cycles
 SCF Done:  E(RB3LYP) =  -1111.26164450     A.U. after    6 cycles
 Optimization completed.
    -- Stationary point found.
 Normal termination of Gaussian 16 at Fri Dec 11 18:47:53 2020.

 --------------------------------------------------------------------
 #N Geom=AllCheck Guess=TCheck SCRF=Check GenChk RB3LYP/6-31G(d) Freq
 --------------------------------------------------------------------

 Structure from the checkpoint file:  "JID_8117.chk"
 ------------------------------
 CID_54964356_JID_8117_neutraal
 ------------------------------
 Charge =  0 Multiplicity = 1

 SCF Done:  E(RB3LYP) =  -1111.26164450     A.U. after    1 cycles

  Exact polarizability: 277.860  -8.919 165.500   1.036  12.596 126.449
 Approx polarizability: 355.846 -22.428 271.786  -1.077  34.989 214.048

                      1                      2                      3
                      A                      A                      A
 Frequencies --     18.3900                37.9097                43.7857
 Red. masses --      4.5533                 4.4194                 3.9245
 Frc consts  --      0.0009                 0.0037                 0.0044
 IR Inten    --      0.3223                 0.0347                 0.1387

                      4                      5                      6
                      A                      A                      A
 Frequencies --     61.8172                86.5122               109.0462
 Red. masses --      3.6090                 3.1103                 1.1243
 Frc consts  --      0.0081                 0.0137                 0.0079
 IR Inten    --      1.0690                 2.4286                 0.2798

                      7                      8                      9
                      A                      A                      A
 Frequencies --    125.1133               131.5298               147.2946
 Red. masses --      4.1656                 1.2514                 2.4384
 Frc consts  --      0.0384                 0.0128                 0.0312
 IR Inten    --      1.3773                 0.1470                 2.3030

                     10                     11                     12
                      A                      A                      A
 Frequencies --    156.4163               193.4492               218.0812
 Red. masses --      3.7567                 3.1864                 2.6677
 Frc consts  --      0.0542                 0.0703                 0.0748
 IR Inten    --      0.4630                 0.1727                 1.7837

                     13                     14                     15
                      A                      A                      A
 Frequencies --    226.6503               235.5788               261.6195
 Red. masses --      1.9161                 1.5790                 1.1933
 Frc consts  --      0.0580                 0.0516                 0.0481
 IR Inten    --      1.5206                 1.2615                 1.4252

                     16                     17                     18
                      A                      A                      A
 Frequencies --    275.6304               290.7118               341.2786
 Red. masses --      3.6041                 2.6662                 3.3613
 Frc consts  --      0.1613                 0.1328                 0.2307
 IR Inten    --      4.1493                 1.0546                 1.3645

                     19                     20                     21
                      A                      A                      A
 Frequencies --    356.8188               373.9663               405.5547
 Red. masses --      3.5789                 3.0323                 4.4499
 Frc consts  --      0.2685                 0.2499                 0.4312
 IR Inten    --      1.0819                19.9228                 4.4176

                     22                     23                     24
                      A                      A                      A
 Frequencies --    437.9657               455.4257               494.3890
 Red. masses --      2.8724                 3.1527                 3.4164
 Frc consts  --      0.3246                 0.3853                 0.4920
 IR Inten    --     56.6818                 3.0203                37.1602

                     25                     26                     27
                      A                      A                      A
 Frequencies --    515.5639               542.7944               556.0157
 Red. masses --      3.1455                 3.8234                 3.3432
 Frc consts  --      0.4926                 0.6637                 0.6089
 IR Inten    --     11.0171                22.4346                19.3870

                     28                     29                     30
                      A                      A                      A
 Frequencies --    579.5344               599.1340               608.6199
 Red. masses --      3.3984                 3.1101                 3.1027
 Frc consts  --      0.6725                 0.6578                 0.6771
 IR Inten    --      2.7031                 4.0773                 8.6836

                     31                     32                     33
                      A                      A                      A
 Frequencies --    616.9833               674.9871               688.5142
 Red. masses --      4.8092                 5.6742                 4.2196
 Frc consts  --      1.0786                 1.5232                 1.1785
 IR Inten    --     12.1380                 1.1731                 4.5454

                     34                     35                     36
                      A                      A                      A
 Frequencies --    721.2610               744.1981               774.7508
 Red. masses --      4.1507                 5.7510                 4.6864
 Frc consts  --      1.2722                 1.8766                 1.6573
 IR Inten    --      1.8372                 1.6586                11.7877

                     37                     38                     39
                      A                      A                      A
 Frequencies --    788.2900               813.2874               814.6738
 Red. masses --      3.2719                 1.5523                 1.2733
 Frc consts  --      1.1979                 0.6049                 0.4979
 IR Inten    --      2.4562                38.5643                21.8396

                     40                     41                     42
                      A                      A                      A
 Frequencies --    867.3280               884.8799               907.0597
 Red. masses --      1.3782                 1.4135                 1.2891
 Frc consts  --      0.6108                 0.6521                 0.6249
 IR Inten    --     16.1300                 0.3825                 0.2624

                     43                     44                     45
                      A                      A                      A
 Frequencies --    915.0608               983.1046               999.1534
 Red. masses --      2.3035                 2.4810                 1.8548
 Frc consts  --      1.1364                 1.4128                 1.0909
 IR Inten    --      1.7935                 1.7772                 2.0526

                     46                     47                     48
                      A                      A                      A
 Frequencies --   1029.6397              1045.0483              1072.6523
 Red. masses --      1.6034                 1.7043                 1.3987
 Frc consts  --      1.0015                 1.0966                 0.9482
 IR Inten    --     17.6035                13.7891                 1.3820

                     49                     50                     51
                      A                      A                      A
 Frequencies --   1073.7599              1080.2253              1083.6650
 Red. masses --      1.4833                 1.3275                 6.0594
 Frc consts  --      1.0076                 0.9127                 4.1925
 IR Inten    --      2.2984                 5.7600                61.0845

                     52                     53                     54
                      A                      A                      A
 Frequencies --   1115.9207              1145.5198              1170.4657
 Red. masses --      2.1566                 2.8878                 1.8975
 Frc consts  --      1.5823                 2.2327                 1.5316
 IR Inten    --     11.1825                48.1321                37.3617

                     55                     56                     57
                      A                      A                      A
 Frequencies --   1187.8869              1188.0579              1207.3324
 Red. masses --      4.1673                 1.2736                 1.7128
 Frc consts  --      3.4646                 1.0591                 1.4710
 IR Inten    --      6.6371                 0.9766                 1.3740

                     58                     59                     60
                      A                      A                      A
 Frequencies --   1216.3381              1226.5604              1251.0258
 Red. masses --      2.6772                 1.4846                 1.3484
 Frc consts  --      2.3337                 1.3159                 1.2434
 IR Inten    --      3.9399                 9.9042                 0.4655

                     61                     62                     63
                      A                      A                      A
 Frequencies --   1276.4515              1324.3382              1328.5952
 Red. masses --      2.6261                 2.3692                 1.4598
 Frc consts  --      2.5209                 2.4483                 1.5182
 IR Inten    --    350.7067                29.4952                20.8421

                     64                     65                     66
                      A                      A                      A
 Frequencies --   1347.9377              1365.5265              1371.0700
 Red. masses --      2.3283                 2.0070                 1.9686
 Frc consts  --      2.4924                 2.2049                 2.1804
 IR Inten    --      6.3238                 4.4844               112.1585

                     67                     68                     69
                      A                      A                      A
 Frequencies --   1399.1234              1434.3964              1443.6813
 Red. masses --      1.9638                 1.2271                 1.2544
 Frc consts  --      2.2649                 1.4875                 1.5404
 IR Inten    --      2.4305                23.1589                 0.7895

                     70                     71                     72
                      A                      A                      A
 Frequencies --   1444.4871              1460.1592              1499.8749
 Red. masses --      1.2444                 2.7771                 1.2055
 Frc consts  --      1.5298                 3.4886                 1.5978
 IR Inten    --      3.6994                93.6862                13.6419

                     73                     74                     75
                      A                      A                      A
 Frequencies --   1507.2544              1508.0331              1514.2744
 Red. masses --      1.0449                 1.0423                 1.1164
 Frc consts  --      1.3986                 1.3966                 1.5083
 IR Inten    --      4.2651                 7.7684                 2.2484

                     76                     77                     78
                      A                      A                      A
 Frequencies --   1519.5159              1520.3263              1522.5476
 Red. masses --      1.0482                 1.1604                 1.1367
 Frc consts  --      1.4260                 1.5802                 1.5525
 IR Inten    --      4.6746                 9.5098                 2.0049

                     79                     80                     81
                      A                      A                      A
 Frequencies --   1528.7884              1536.6866              1539.9180
 Red. masses --      1.0611                 1.1453                 1.4204
 Frc consts  --      1.4612                 1.5934                 1.9846
 IR Inten    --      4.5342                89.8189                 7.8084

                     82                     83                     84
                      A                      A                      A
 Frequencies --   1563.9101              1566.6815              1630.6775
 Red. masses --      4.1271                 2.4844                 5.4709
 Frc consts  --      5.9473                 3.5928                 8.5712
 IR Inten    --     72.8698               255.7179                 0.2741

                     85                     86                     87
                      A                      A                      A
 Frequencies --   1646.3034              1681.4628              2978.9017
 Red. masses --      6.0486                 5.8334                 1.0826
 Frc consts  --      9.6588                 9.7173                 5.6604
 IR Inten    --     11.0730                30.0516                30.3645

                     88                     89                     90
                      A                      A                      A
 Frequencies --   3016.1322              3044.9146              3048.8928
 Red. masses --      1.0352                 1.0364                 1.0359
 Frc consts  --      5.5485                 5.6615                 5.6733
 IR Inten    --     73.8434                42.7320                31.8253

                     91                     92                     93
                      A                      A                      A
 Frequencies --   3064.1337              3070.7600              3096.6132
 Red. masses --      1.0349                 1.1062                 1.1017
 Frc consts  --      5.7249                 6.1456                 6.2245
 IR Inten    --     16.1347                48.8323                16.5703

                     94                     95                     96
                      A                      A                      A
 Frequencies --   3101.2805              3128.4859              3128.8658
 Red. masses --      1.1003                 1.1009                 1.1029
 Frc consts  --      6.2350                 6.3484                 6.3615
 IR Inten    --     17.5135                13.3300                19.4750

                     97                     98                     99
                      A                      A                      A
 Frequencies --   3137.8875              3144.5319              3150.8590
 Red. masses --      1.1031                 1.1025                 1.0989
 Frc consts  --      6.3993                 6.4231                 6.4279
 IR Inten    --     24.7649                37.7802                32.8034

                    100                    101                    102
                      A                      A                      A
 Frequencies --   3177.8604              3207.0632              3213.7234
 Red. masses --      1.0890                 1.0892                 1.0884
 Frc consts  --      6.4794                 6.6003                 6.6232
 IR Inten    --     16.4366                14.0968                19.2494

                    103                    104                    105
                      A                      A                      A
 Frequencies --   3221.6754              3223.5987              3578.5264
 Red. masses --      1.0969                 1.0910                 1.0759
 Frc consts  --      6.7079                 6.6800                 8.1177
 IR Inten    --      9.7472                12.9269                14.1687

 - Thermochemistry -
 -------------------
 Temperature   298.150 Kelvin.  Pressure   1.00000 Atm.
 Atom     1 has atomic number  6 and mass  12.00000

 Molecular mass:   261.11874 amu.
 Principal axes and moments of inertia in atomic units:
                           1         2         3
     Eigenvalues --  1600.22801********************
           X            1.00000  -0.00064   0.00105
           Y            0.00065   0.99989  -0.01473
           Z           -0.00105   0.01473   0.99989
 This molecule is an asymmetric top.
 Rotational symmetry number  1.
 Warning -- assumption of classical behavior for rotation
           may cause significant error
 Rotational temperatures (Kelvin)      0.05413     0.00665     0.00630
 Rotational constants (GHZ):           1.12780     0.13847     0.13128
 Zero-point vibrational energy     815799.1 (Joules/Mol)
                                  194.98066 (Kcal/Mol)
 Warning -- explicit consideration of  31 degrees of freedom as
           vibrations may cause significant error
 Vibrational temperatures:     26.46    54.54    63.00    88.94   124.47
          (Kelvin)            156.89   180.01   189.24   211.92   225.05
                              278.33   313.77   326.10   338.95   376.41
                              396.57   418.27   491.02   513.38   538.05
                              583.50   630.13   655.26   711.32   741.78
                              780.96   799.98   833.82   862.02   875.67
                              887.70   971.16   990.62  1037.73  1070.74
                             1114.69  1134.17  1170.14  1172.13  1247.89
                             1273.14  1305.06  1316.57  1414.47  1437.56
                             1481.42  1503.59  1543.31  1544.90  1554.20
                             1559.15  1605.56  1648.15  1684.04  1709.10
                             1709.35  1737.08  1750.04  1764.75  1799.95
                             1836.53  1905.43  1911.55  1939.38  1964.69
                             1972.66  2013.03  2063.78  2077.14  2078.29
                             2100.84  2157.99  2168.60  2169.72  2178.70
                             2186.24  2187.41  2190.61  2199.59  2210.95
                             2215.60  2250.12  2254.11  2346.18  2368.66
                             2419.25  4285.98  4339.54  4380.95  4386.68
                             4408.60  4418.14  4455.34  4462.05  4501.19
                             4501.74  4514.72  4524.28  4533.38  4572.23
                             4614.25  4623.83  4635.27  4638.04  5148.70

 Zero-point correction=                           0.310721 (Hartree/Particle)
 Thermal correction to Energy=                    0.329479
 Thermal correction to Enthalpy=                  0.330423
 Thermal correction to Gibbs Free Energy=         0.262369
 Sum of electronic and zero-point Energies=          -1110.950923
 Sum of electronic and thermal Energies=             -1110.932165
 Sum of electronic and thermal Enthalpies=           -1110.931221
 Sum of electronic and thermal Free Energies=        -1110.999275

                     E (Thermal)             CV                S
                      KCal/Mol        Cal/Mol-Kelvin    Cal/Mol-Kelvin
 Total                  206.751             70.290            143.232
 Electronic               0.000              0.000              0.000
 Translational            0.889              2.981             42.579
 Rotational               0.889              2.981             34.016
 Vibrational            204.974             64.328             66.637
 Vibration     1          0.593              1.986              6.801
 Vibration     2          0.594              1.982              5.365
 Vibration     3          0.595              1.980              5.080
 Vibration     4          0.597              1.973              4.398
 Vibration     5          0.601              1.959              3.737
 Vibration     6          0.606              1.942              3.286
 Vibration     7          0.610              1.928              3.020
 Vibration     8          0.612              1.922              2.924
 Vibration     9          0.617              1.906              2.707
 Vibration    10          0.620              1.895              2.593
 Vibration    11          0.635              1.849              2.195
 Vibration    12          0.646              1.814              1.975
 Vibration    13          0.650              1.800              1.905
 Vibration    14          0.655              1.786              1.836
 Vibration    15          0.669              1.743              1.651
 Vibration    16          0.677              1.718              1.561
 Vibration    17          0.687              1.691              1.470
 Vibration    18          0.721              1.593              1.206
 Vibration    19          0.732              1.561              1.136
 Vibration    20          0.745              1.526              1.063
 Vibration    21          0.771              1.458              0.942
 Vibration    22          0.798              1.387              0.833
 Vibration    23          0.814              1.349              0.780
 Vibration    24          0.850              1.262              0.672
 Vibration    25          0.871              1.216              0.620
 Vibration    26          0.898              1.155              0.559
 Vibration    27          0.911              1.127              0.532
 Vibration    28          0.936              1.076              0.486
 Vibration    29          0.957              1.034              0.451
 Vibration    30          0.968              1.014              0.435
 Vibration    31          0.977              0.996              0.421

 Optimization completed.
    -- Stationary point found.
 Normal termination of Gaussian 16 at Fri Dec 11 19:03:56 2020.

 ----------------------------------------------------------------------
 # B3LYP/6-311++G(d,p) empiricaldispersion=gd3bj scf=xqc pop=npa geom=c
 heck
 ----------------------------------------------------------------------

 --------------------------------------
 CID_54964356_JID_8117_Energie_neutraal
 --------------------------------------
 Structure from the checkpoint file:  "JID_8117.chk"
 Charge =  0 Multiplicity = 1

 SCF Done:  E(RB3LYP) =  -1111.48064004     A.U. after   15 cycles
 Normal termination of Gaussian 16 at Fri Dec 11 19:11:56 2020.

 ----------------------------------------------------------------------
 # B3LYP/6-311++G(d,p) empiricaldispersion=gd3bj scf=xqc pop=npa geom=c
 heck
 ----------------------------------------------------------------------

 ------------------------------------
 CID_54964356_JID_8117_Energie_kation
 ------------------------------------
 Structure from the checkpoint file:  "JID_8117.chk"
 Charge =  1 Multiplicity = 2

 SCF Done:  E(UB3LYP) =  -1111.23285575     A.U. after   21 cycles
 Normal termination of Gaussian 16 at Fri Dec 11 19:28:20 2020.
 Gaussian 16:  ES64L-G16RevA.03 25-Dec-2016

 ----------------------------------------------------------------------
 # B3LYP/6-311++G(d,p) empiricaldispersion=gd3bj scf=xqc pop=npa geom=c
 heck
 ----------------------------------------------------------------------

 -----------------------------------
 CID_54964356_JID_8117_Energie_anion
 -----------------------------------
 Structure from the checkpoint file:  "JID_8117.chk"
 Charge = -1 Multiplicity = 2

                         Standard orientation:
 ---------------------------------------------------------------------
 Center     Atomic      Atomic             Coordinates (Angstroms)
 Number     Number       Type             X           Y           Z
 ---------------------------------------------------------------------
      1          6           0        6.092427   -1.212144    0.018484
      2          6           0        4.820807   -0.478779    0.316946
      3          6           0        4.505539    0.264868    1.420843
      4          6           0        3.188016    0.818673    1.380614
      5          6           0        2.498081    0.502682    0.243862
      6         16           0        3.480286   -0.500631   -0.809290
      7          6           0        1.107359    0.913305   -0.146849
      8          6           0        1.110111    1.823782   -1.387203
      9          7           0        0.295953   -0.283970   -0.386889
     10          6           0       -1.095370   -0.270530   -0.205796
     11          6           0       -1.841091    0.911082   -0.051729
     12          6           0       -3.227786    0.895081    0.098649
     13          6           0       -3.897715   -0.339468    0.103835
     14          6           0       -3.174109   -1.525040   -0.039723
     15          6           0       -1.790090   -1.487467   -0.196062
     16          8           0       -5.262111   -0.273281    0.257455
     17          6           0       -5.981912   -1.489836    0.258712
     18          6           0       -4.012216    2.170726    0.259724
     19          1           0        5.925125   -2.289287   -0.102243
     20          1           0        6.568319   -0.849232   -0.900448
     21          1           0        6.800252   -1.072324    0.841312
     22          1           0        5.195617    0.409127    2.245877
     23          1           0        2.764821    1.431043    2.170182
     24          1           0        0.705989    1.482241    0.708241
     25          1           0        1.573284    1.303131   -2.230554
     26          1           0        0.091699    2.094963   -1.678300
     27          1           0        1.676167    2.739122   -1.185566
     28          1           0        0.725590   -1.120670   -0.012777
     29          1           0       -1.343943    1.874416   -0.042989
     30          1           0       -3.674724   -2.486324   -0.034038
     31          1           0       -1.239943   -2.417465   -0.317953
     32          1           0       -5.858185   -2.034974   -0.687327
     33          1           0       -5.673955   -2.142553    1.087432
     34          1           0       -7.032514   -1.220584    0.384427
     35          1           0       -4.756562    2.280908   -0.537563
     36          1           0       -4.567431    2.178565    1.204972
     37          1           0       -3.351283    3.042427    0.238700
 ---------------------------------------------------------------------

 SCF Done:  E(UB3LYP) =  -1111.46837526     A.U. after   33 cycles
 SCF Done:  E(UB3LYP) =  -1111.46837527     a.u. after    2 cycles

 The electronic state is 2-A.
 Alpha  occ. eigenvalues --  -88.78428 -19.06352 -14.23426 -10.14001 -10.13659
 Alpha  occ. eigenvalues --  -10.13356 -10.12310 -10.11879 -10.11603 -10.09515
 Alpha  occ. eigenvalues --  -10.09045 -10.08898 -10.08682 -10.08530 -10.08379
 Alpha  occ. eigenvalues --  -10.08328 -10.08305 -10.08227  -7.87068  -5.83352
 Alpha  occ. eigenvalues --   -5.82989  -5.82658  -0.97862  -0.85413  -0.79535
 Alpha  occ. eigenvalues --   -0.76364  -0.70745  -0.68493  -0.66578  -0.65171
 Alpha  occ. eigenvalues --   -0.64390  -0.61725  -0.59910  -0.59133  -0.53966
 Alpha  occ. eigenvalues --   -0.51987  -0.49754  -0.46425  -0.45477  -0.44493
 Alpha  occ. eigenvalues --   -0.42927  -0.41344  -0.39691  -0.38566  -0.38241
 Alpha  occ. eigenvalues --   -0.36489  -0.35373  -0.34127  -0.33855  -0.33551
 Alpha  occ. eigenvalues --   -0.33387  -0.32557  -0.32156  -0.31870  -0.30419
 Alpha  occ. eigenvalues --   -0.29867  -0.29379  -0.28736  -0.28410  -0.27215
 Alpha  occ. eigenvalues --   -0.26946  -0.26812  -0.25460  -0.24382  -0.24147
 Alpha  occ. eigenvalues --   -0.18838  -0.16823  -0.16432  -0.14342  -0.10564
 Alpha  occ. eigenvalues --    0.03743
 Alpha virt. eigenvalues --    0.04792   0.05792   0.05947   0.06844   0.06847
 Alpha virt. eigenvalues --    0.07157   0.07828   0.08076   0.08590   0.08996
 Alpha virt. eigenvalues --    0.09416   0.09667   0.10023   0.10261   0.10468

  Beta  occ. eigenvalues --  -88.78421 -19.06345 -14.23422 -10.14000 -10.13658
  Beta  occ. eigenvalues --  -10.13312 -10.12311 -10.11856 -10.11577 -10.09515
  Beta  occ. eigenvalues --  -10.09037 -10.08853 -10.08672 -10.08517 -10.08371
  Beta  occ. eigenvalues --  -10.08321 -10.08299 -10.08217  -7.87059  -5.83347
  Beta  occ. eigenvalues --   -5.82984  -5.82647  -0.97847  -0.85402  -0.79500
  Beta  occ. eigenvalues --   -0.76354  -0.70719  -0.68470  -0.66540  -0.65144
  Beta  occ. eigenvalues --   -0.64355  -0.61690  -0.59869  -0.59092  -0.53936
  Beta  occ. eigenvalues --   -0.51965  -0.49730  -0.46391  -0.45426  -0.44461
  Beta  occ. eigenvalues --   -0.42900  -0.41320  -0.39658  -0.38541  -0.38214
  Beta  occ. eigenvalues --   -0.36465  -0.35339  -0.34059  -0.33828  -0.33538
  Beta  occ. eigenvalues --   -0.33346  -0.32535  -0.32135  -0.31849  -0.30387
  Beta  occ. eigenvalues --   -0.29844  -0.29362  -0.28715  -0.28382  -0.27167
  Beta  occ. eigenvalues --   -0.26916  -0.26788  -0.25430  -0.24361  -0.24122
  Beta  occ. eigenvalues --   -0.18826  -0.16773  -0.16422  -0.14225  -0.10555
  Beta virt. eigenvalues --    0.05516   0.05872   0.06083   0.06284   0.06916
  Beta virt. eigenvalues --    0.07171   0.07510   0.07909   0.08508   0.08883
  Beta virt. eigenvalues --    0.09368   0.09652   0.09804   0.10295   0.10399

 Mulliken charges and spin densities:
               1          2
     1  C    3.043658  -3.724596
     2  C   -2.245541   2.215869
     3  C   -0.156812   0.217527
     4  C   -0.037389   0.227678
     5  C    0.096658   0.022836
     6  S    0.027816  -0.417580
     7  C    0.072200  -0.238961
     8  C   -0.332151  -0.182660
     9  N    0.117012  -0.014456
    10  C    0.237050  -0.591575
    11  C    0.089644  -0.050071
    12  C    0.041361   0.339778
    13  C   -1.077141   0.462773
    14  C   -0.119018   0.007465
    15  C    0.503229  -0.584816
    16  O   -0.218435   0.056081
    17  C    0.775881  -1.083483
    18  C    0.038518  -0.412821
    19  H   -0.361466   0.529034
    20  H   -0.098929   0.252433
    21  H   -0.490732   0.649200
    22  H   -0.463249   0.633729
    23  H   -0.074614   0.223145
    24  H    0.123699  -0.037824
    25  H    0.091817   0.063701
    26  H    0.101324   0.003173
    27  H    0.049465   0.114383
    28  H    0.180293   0.015771
    29  H    0.124621  -0.013830
    30  H   -0.040819   0.224162
    31  H   -0.254207   0.404053
    32  H   -0.167390   0.317394
    33  H   -0.195598   0.344828
    34  H   -0.573065   0.747018
    35  H    0.092548   0.074795
    36  H    0.104003   0.063433
    37  H   -0.004240   0.142417
 Sum of Mulliken charges =  -1.00000   1.00000

 Dipole moment (field-independent basis, Debye):
    X=             -0.9744    Y=              4.7394    Z=             -1.5286  Tot=              5.0742
 Quadrupole moment (field-independent basis, Debye-Ang):
   XX=           -292.9326   YY=           -154.6549   ZZ=           -147.9909
   XY=              0.2806   XZ=             -6.7744   YZ=              1.3777

 Summary of Natural Population Analysis:

                                       Natural Population
                Natural  -----------------------------------------------
    Atom  No    Charge         Core      Valence    Rydberg      Total
 -----------------------------------------------------------------------
      C    1   -0.29977      0.99961     2.29312    0.00704     3.29977
      C    2   -0.08850      0.99952     2.07622    0.01276     3.08850
      C    3   -0.13146      0.99946     2.12114    0.01086     3.13146
      C    4   -0.12137      0.99945     2.11098    0.01094     3.12137
      C    5   -0.09679      0.99947     2.08387    0.01344     3.09679
      S    6    0.19936      4.99937     2.78153    0.01974     7.80064
      C    7   -0.02665      0.99953     2.01507    0.01205     3.02665
      C    8   -0.28332      0.99964     2.27869    0.00499     3.28332
      N    9   -0.31835      0.99967     2.80851    0.01017     3.81835
      C   10    0.08118      0.99949     1.90956    0.00977     2.91882
      C   11   -0.12587      0.99949     2.11967    0.00671     3.12587
      C   12   -0.02472      0.99950     2.01719    0.00804     3.02472
      C   13    0.14355      0.99932     1.84448    0.01265     2.85645
      C   14   -0.13078      0.99953     2.12257    0.00868     3.13078
      C   15   -0.11282      0.99954     2.10460    0.00868     3.11282
      O   16   -0.27751      0.99986     3.26755    0.01010     4.27751
      C   17   -0.10023      0.99960     2.09115    0.00948     3.10023
      C   18   -0.29064      0.99964     2.28596    0.00505     3.29064
      H   19    0.10944      0.00000     0.38854    0.00201     0.39056
      H   20    0.10490      0.00000     0.39405    0.00105     0.39510
      H   21    0.11080      0.00000     0.38722    0.00198     0.38920
      H   22    0.10754      0.00000     0.39128    0.00118     0.39246
      H   23    0.10653      0.00000     0.39239    0.00108     0.39347
      H   24    0.09409      0.00000     0.40303    0.00288     0.40591
      H   25    0.10268      0.00000     0.39629    0.00103     0.39732
      H   26    0.10126      0.00000     0.39780    0.00094     0.39874
      H   27    0.09973      0.00000     0.39934    0.00093     0.40027
      H   28    0.18968      0.00000     0.30755    0.00277     0.31032
      H   29    0.09892      0.00000     0.39937    0.00171     0.40108
      H   30    0.10638      0.00000     0.39237    0.00125     0.39362
      H   31    0.10034      0.00000     0.39862    0.00104     0.39966
      H   32    0.08373      0.00000     0.41453    0.00173     0.41627
      H   33    0.08396      0.00000     0.41425    0.00179     0.41604
      H   34    0.09457      0.00000     0.40405    0.00138     0.40543
      H   35    0.10605      0.00000     0.39242    0.00153     0.39395
      H   36    0.10612      0.00000     0.39237    0.00151     0.39388
      H   37    0.09794      0.00000     0.40130    0.00076     0.40206
 =======================================================================
   * Total *   -0.00000     21.99168    47.79862    0.20970    70.00000

 Normal termination of Gaussian 16 at Fri Dec 11 20:17:28 2020.
