 Gaussian 16, Revision A.03,

 -----------------------------------------------------------
 # opt freq B3LYP/6-31G(d) empiricaldispersion=gd3bj scf=xqc
 -----------------------------------------------------------

 -----------------------------
 CID_2760927_JID_5814_neutraal
 -----------------------------
 Symbolic Z-matrix:
 Charge =  0 Multiplicity = 1

 SCF Done:  E(RB3LYP) =  -667.908294604     A.U. after   15 cycles
 SCF Done:  E(RB3LYP) =  -667.915201548     A.U. after   13 cycles
 SCF Done:  E(RB3LYP) =  -667.915630698     A.U. after   13 cycles
 SCF Done:  E(RB3LYP) =  -667.913941202     A.U. after   15 cycles
 SCF Done:  E(RB3LYP) =  -667.916581643     A.U. after   12 cycles
 SCF Done:  E(RB3LYP) =  -667.916643299     A.U. after   13 cycles
 SCF Done:  E(RB3LYP) =  -667.916865901     A.U. after   12 cycles
 SCF Done:  E(RB3LYP) =  -667.916937025     A.U. after   11 cycles
 SCF Done:  E(RB3LYP) =  -667.916949579     A.U. after   11 cycles
 SCF Done:  E(RB3LYP) =  -667.916950341     A.U. after    9 cycles
 SCF Done:  E(RB3LYP) =  -667.916950411     A.U. after    7 cycles
 Optimization completed.
    -- Stationary point found.
 Normal termination of Gaussian 16 at Thu Dec 10 17:20:50 2020.

 --------------------------------------------------------------------
 #N Geom=AllCheck Guess=TCheck SCRF=Check GenChk RB3LYP/6-31G(d) Freq
 --------------------------------------------------------------------

 Structure from the checkpoint file:  "JID_5814.chk"
 -----------------------------
 CID_2760927_JID_5814_neutraal
 -----------------------------
 Charge =  0 Multiplicity = 1

 SCF Done:  E(RB3LYP) =  -667.916950411     A.U. after    1 cycles

  Exact polarizability: 179.536  13.136 155.206  -6.845   4.151  74.053
 Approx polarizability: 290.566  30.311 281.119 -25.217   3.797 133.399

                      1                      2                      3
                      A                      A                      A
 Frequencies --     43.1711                70.3098               114.4411
 Red. masses --      7.9107                 5.6600                 6.6748
 Frc consts  --      0.0087                 0.0165                 0.0515
 IR Inten    --      1.1954                 0.3372                 1.2426

                      4                      5                      6
                      A                      A                      A
 Frequencies --    165.5661               176.0836               182.8140
 Red. masses --      4.5347                 3.0702                 3.3109
 Frc consts  --      0.0732                 0.0561                 0.0652
 IR Inten    --      1.8523                 3.3413                 4.9760

                      7                      8                      9
                      A                      A                      A
 Frequencies --    207.3147               252.0101               289.1855
 Red. masses --      6.7869                 2.2427                 4.4552
 Frc consts  --      0.1719                 0.0839                 0.2195
 IR Inten    --      7.3236                 6.3346                 5.1061

                     10                     11                     12
                      A                      A                      A
 Frequencies --    347.8602               381.5181               440.4590
 Red. masses --      4.1646                 4.6294                 3.4684
 Frc consts  --      0.2969                 0.3970                 0.3965
 IR Inten    --      5.7438                10.0364                 2.9953

                     13                     14                     15
                      A                      A                      A
 Frequencies --    482.5027               492.9674               528.9432
 Red. masses --      3.2824                 4.1814                 6.5294
 Frc consts  --      0.4502                 0.5987                 1.0763
 IR Inten    --      1.5808                 7.0528                 6.6689

                     16                     17                     18
                      A                      A                      A
 Frequencies --    543.1133               564.6999               602.5907
 Red. masses --      6.8590                 2.0564                 3.2177
 Frc consts  --      1.1920                 0.3864                 0.6884
 IR Inten    --      3.2134                58.4793                33.8248

                     19                     20                     21
                      A                      A                      A
 Frequencies --    623.2162               662.6901               699.7809
 Red. masses --      4.3724                 4.5208                 4.1188
 Frc consts  --      1.0006                 1.1697                 1.1883
 IR Inten    --      9.4516                 2.9567                 4.7186

                     22                     23                     24
                      A                      A                      A
 Frequencies --    725.4603               778.3294               807.3678
 Red. masses --      4.5500                 1.4721                 2.8015
 Frc consts  --      1.4109                 0.5254                 1.0759
 IR Inten    --      5.5893                41.6078                 4.7939

                     25                     26                     27
                      A                      A                      A
 Frequencies --    833.2165               847.0827               868.2107
 Red. masses --      5.5285                 5.6304                 1.2657
 Frc consts  --      2.2614                 2.3803                 0.5621
 IR Inten    --      3.6750                11.4587                12.1973

                     28                     29                     30
                      A                      A                      A
 Frequencies --    885.2478               959.4572               971.3688
 Red. masses --      1.8601                 1.3329                 1.6480
 Frc consts  --      0.8589                 0.7229                 0.9161
 IR Inten    --      5.3223                 0.4921                 4.7743

                     31                     32                     33
                      A                      A                      A
 Frequencies --    976.4092               996.4978               996.7976
 Red. masses --      1.4197                 1.5493                 3.1363
 Frc consts  --      0.7975                 0.9064                 1.8361
 IR Inten    --      0.5307                 3.1403                18.8810

                     34                     35                     36
                      A                      A                      A
 Frequencies --   1003.0276              1053.8939              1092.7995
 Red. masses --      1.5701                 2.3403                 2.2511
 Frc consts  --      0.9307                 1.5315                 1.5839
 IR Inten    --     11.5177                 2.6713                11.4435

                     37                     38                     39
                      A                      A                      A
 Frequencies --   1153.4061              1179.1535              1198.8370
 Red. masses --      2.2546                 1.3643                 1.4975
 Frc consts  --      1.7672                 1.1176                 1.2681
 IR Inten    --     22.2263                15.2155               156.5160

                     40                     41                     42
                      A                      A                      A
 Frequencies --   1208.5802              1260.0944              1286.9396
 Red. masses --      1.8220                 2.2212                 1.8071
 Frc consts  --      1.5680                 2.0780                 1.7633
 IR Inten    --    198.6388                 1.4577                 5.5058

                     43                     44                     45
                      A                      A                      A
 Frequencies --   1301.2835              1345.0578              1389.8083
 Red. masses --      2.2280                 3.1084                 2.2319
 Frc consts  --      2.2228                 3.3133                 2.5400
 IR Inten    --      7.1158                21.2378                31.2864

                     46                     47                     48
                      A                      A                      A
 Frequencies --   1401.3571              1406.3973              1438.4095
 Red. masses --      5.2975                 1.3634                 2.1775
 Frc consts  --      6.1294                 1.5889                 2.6544
 IR Inten    --      5.9046                22.9695                 6.0723

                     49                     50                     51
                      A                      A                      A
 Frequencies --   1471.4133              1485.3462              1513.6798
 Red. masses --      2.2461                 1.3877                 2.6848
 Frc consts  --      2.8652                 1.8038                 3.6244
 IR Inten    --      7.2497                 8.0199                 4.5436

                     52                     53                     54
                      A                      A                      A
 Frequencies --   1563.2915              1623.6665              1639.2807
 Red. masses --      3.5092                 6.7504                 6.5355
 Frc consts  --      5.0529                10.4852                10.3476
 IR Inten    --     25.3253                18.3525                34.7873

                     55                     56                     57
                      A                      A                      A
 Frequencies --   1676.5692              1680.1221              1786.1944
 Red. masses --      5.1413                 5.2579                10.5373
 Frc consts  --      8.5147                 8.7446                19.8078
 IR Inten    --    125.0129               166.3417               199.4041

                     58                     59                     60
                      A                      A                      A
 Frequencies --   2812.2975              3161.7014              3190.4671
 Red. masses --      1.0782                 1.0892                 1.0864
 Frc consts  --      5.0244                 6.4149                 6.5158
 IR Inten    --    225.5456                34.9001                 3.9282

                     61                     62                     63
                      A                      A                      A
 Frequencies --   3204.5892              3204.9679              3219.5865
 Red. masses --      1.0907                 1.0928                 1.0922
 Frc consts  --      6.5993                 6.6134                 6.6706
 IR Inten    --     16.9898                17.0000                 4.0654

                     64                     65                     66
                      A                      A                      A
 Frequencies --   3221.9810              3230.5655              3716.0142
 Red. masses --      1.0945                 1.0932                 1.0650
 Frc consts  --      6.6944                 6.7224                 8.6647
 IR Inten    --     16.9244                12.7239                38.1332

 - Thermochemistry -
 -------------------
 Temperature   298.150 Kelvin.  Pressure   1.00000 Atm.
 Atom     1 has atomic number  6 and mass  12.00000

 Molecular mass:   199.06333 amu.
 Principal axes and moments of inertia in atomic units:
                           1         2         3
     Eigenvalues --  1811.794133873.873604864.68609
           X            0.99993   0.01211   0.00116
           Y           -0.01213   0.99979   0.01631
           Z           -0.00096  -0.01632   0.99987
 This molecule is an asymmetric top.
 Rotational symmetry number  1.
 Warning -- assumption of classical behavior for rotation
           may cause significant error
 Rotational temperatures (Kelvin)      0.04781     0.02236     0.01780
 Rotational constants (GHZ):           0.99611     0.46588     0.37099
 Zero-point vibrational energy     482319.1 (Joules/Mol)
                                  115.27704 (Kcal/Mol)
 Warning -- explicit consideration of  18 degrees of freedom as
           vibrations may cause significant error
 Vibrational temperatures:     62.11   101.16   164.66   238.21   253.35
          (Kelvin)            263.03   298.28   362.59   416.07   500.49
                              548.92   633.72   694.21   709.27   761.03
                              781.42   812.48   866.99   896.67   953.46
                             1006.83  1043.78  1119.84  1161.62  1198.81
                             1218.76  1249.16  1273.67  1380.44  1397.58
                             1404.84  1433.74  1434.17  1443.13  1516.32
                             1572.29  1659.49  1696.54  1724.86  1738.88
                             1812.99  1851.62  1872.26  1935.24  1999.62
                             2016.24  2023.49  2069.55  2117.04  2137.08
                             2177.85  2249.23  2336.09  2358.56  2412.21
                             2417.32  2569.94  4046.27  4548.98  4590.37
                             4610.69  4611.23  4632.27  4635.71  4648.06
                             5346.52

 Zero-point correction=                           0.183706 (Hartree/Particle)
 Thermal correction to Energy=                    0.195699
 Thermal correction to Enthalpy=                  0.196644
 Thermal correction to Gibbs Free Energy=         0.145015
 Sum of electronic and zero-point Energies=           -667.733245
 Sum of electronic and thermal Energies=              -667.721251
 Sum of electronic and thermal Enthalpies=            -667.720307
 Sum of electronic and thermal Free Energies=         -667.771935

                     E (Thermal)             CV                S
                      KCal/Mol        Cal/Mol-Kelvin    Cal/Mol-Kelvin
 Total                  122.803             46.657            108.661
 Electronic               0.000              0.000              0.000
 Translational            0.889              2.981             41.770
 Rotational               0.889              2.981             31.902
 Vibrational            121.026             40.695             34.989
 Vibration     1          0.595              1.980              5.108
 Vibration     2          0.598              1.968              4.145
 Vibration     3          0.607              1.937              3.192
 Vibration     4          0.624              1.885              2.485
 Vibration     5          0.628              1.872              2.370
 Vibration     6          0.630              1.863              2.299
 Vibration     7          0.641              1.829              2.067
 Vibration     8          0.664              1.759              1.716
 Vibration     9          0.686              1.694              1.479
 Vibration    10          0.725              1.580              1.176
 Vibration    11          0.751              1.510              1.033
 Vibration    12          0.800              1.382              0.825
 Vibration    13          0.839              1.289              0.703
 Vibration    14          0.849              1.266              0.676
 Vibration    15          0.884              1.186              0.590
 Vibration    16          0.898              1.155              0.559
 Vibration    17          0.921              1.108              0.515
 Vibration    18          0.961              1.026              0.445

 Optimization completed.
    -- Stationary point found.
 Normal termination of Gaussian 16 at Thu Dec 10 17:29:15 2020.

 ----------------------------------------------------------------------
 # B3LYP/6-311++G(d,p) empiricaldispersion=gd3bj scf=xqc pop=npa geom=c
 heck
 ----------------------------------------------------------------------

 -------------------------------------
 CID_2760927_JID_5814_Energie_neutraal
 -------------------------------------
 Structure from the checkpoint file:  "JID_5814.chk"
 Charge =  0 Multiplicity = 1

 SCF Done:  E(RB3LYP) =  -668.101405094     A.U. after   17 cycles
 Normal termination of Gaussian 16 at Thu Dec 10 17:33:03 2020.

 ----------------------------------------------------------------------
 # B3LYP/6-311++G(d,p) empiricaldispersion=gd3bj scf=xqc pop=npa geom=c
 heck
 ----------------------------------------------------------------------

 -----------------------------------
 CID_2760927_JID_5814_Energie_kation
 -----------------------------------
 Structure from the checkpoint file:  "JID_5814.chk"
 Charge =  1 Multiplicity = 2

 SCF Done:  E(UB3LYP) =  -667.798303762     A.U. after   27 cycles
 Normal termination of Gaussian 16 at Thu Dec 10 17:40:25 2020.
 Gaussian 16:  ES64L-G16RevA.03 25-Dec-2016

 ----------------------------------------------------------------------
 # B3LYP/6-311++G(d,p) empiricaldispersion=gd3bj scf=xqc pop=npa geom=c
 heck
 ----------------------------------------------------------------------

 ----------------------------------
 CID_2760927_JID_5814_Energie_anion
 ----------------------------------
 Structure from the checkpoint file:  "JID_5814.chk"
 Charge = -1 Multiplicity = 2

                         Standard orientation:
 ---------------------------------------------------------------------
 Center     Atomic      Atomic             Coordinates (Angstroms)
 Number     Number       Type             X           Y           Z
 ---------------------------------------------------------------------
      1          6           0       -1.991395   -2.125785   -0.533419
      2          6           0       -3.201382   -1.399100   -0.428014
      3          6           0       -3.177022   -0.048045   -0.172572
      4          6           0       -1.943578    0.633485   -0.007085
      5          6           0       -0.718650   -0.104649   -0.094510
      6          6           0       -0.779637   -1.494346   -0.371219
      7          6           0        0.502083    0.618596    0.077383
      8          6           0        0.422059    1.979338    0.295423
      9          6           0       -0.842352    2.610859    0.353091
     10          7           0       -1.989010    1.980373    0.216693
     11          6           0        1.832634   -0.041841    0.004192
     12          6           0        2.716909    0.388627   -0.935222
     13          8           0        3.979621   -0.014458   -1.155465
     14          6           0        2.193390   -1.074104    0.977516
     15          8           0        1.473495   -1.501033    1.860635
     16          1           0       -2.021159   -3.191095   -0.742876
     17          1           0       -4.149615   -1.913562   -0.554912
     18          1           0       -4.085279    0.540319   -0.094587
     19          1           0        0.140710   -2.060061   -0.454080
     20          1           0        1.324132    2.564254    0.447023
     21          1           0       -0.895767    3.684777    0.528693
     22          1           0        2.435420    1.158515   -1.647902
     23          1           0        4.241339   -0.696312   -0.513827
     24          1           0        3.230005   -1.483732    0.880866
 ---------------------------------------------------------------------

 SCF Done:  E(UB3LYP) =  -668.123946945     A.U. after   30 cycles

 The electronic state is 2-A.
 Alpha  occ. eigenvalues --  -19.03605 -18.94743 -14.16098 -10.09465 -10.08354
 Alpha  occ. eigenvalues --  -10.07436 -10.06660 -10.05231 -10.05209 -10.05146
 Alpha  occ. eigenvalues --  -10.04663 -10.04187 -10.04129 -10.03823 -10.03108
 Alpha  occ. eigenvalues --   -0.94848  -0.88469  -0.80588  -0.71828  -0.69133
 Alpha  occ. eigenvalues --   -0.62832  -0.61817  -0.60465  -0.53121  -0.50940
 Alpha  occ. eigenvalues --   -0.49661  -0.47169  -0.43339  -0.40132  -0.38564
 Alpha  occ. eigenvalues --   -0.38311  -0.35758  -0.33509  -0.32594  -0.30663
 Alpha  occ. eigenvalues --   -0.29400  -0.28772  -0.28261  -0.28026  -0.27749
 Alpha  occ. eigenvalues --   -0.26231  -0.24697  -0.24171  -0.22629  -0.21977
 Alpha  occ. eigenvalues --   -0.21450  -0.17325  -0.12461  -0.12357  -0.11638
 Alpha  occ. eigenvalues --   -0.10593  -0.09779   0.03554
 Alpha virt. eigenvalues --    0.06705   0.08535   0.08745   0.09606   0.10589
 Alpha virt. eigenvalues --    0.10800   0.11318   0.11941   0.12960   0.13348
 Alpha virt. eigenvalues --    0.13666   0.14469   0.15898   0.16339   0.17223

  Beta  occ. eigenvalues --  -19.03451 -18.94387 -14.15873 -10.09267 -10.07751
  Beta  occ. eigenvalues --  -10.07470 -10.06578 -10.05205 -10.05184 -10.05023
  Beta  occ. eigenvalues --  -10.04624 -10.04113 -10.04037 -10.03822 -10.03236
  Beta  occ. eigenvalues --   -0.94430  -0.87841  -0.80285  -0.71662  -0.68830
  Beta  occ. eigenvalues --   -0.62483  -0.61701  -0.60194  -0.52374  -0.50593
  Beta  occ. eigenvalues --   -0.49609  -0.46940  -0.42998  -0.39905  -0.38412
  Beta  occ. eigenvalues --   -0.38160  -0.35531  -0.33257  -0.32493  -0.30557
  Beta  occ. eigenvalues --   -0.29285  -0.28444  -0.27644  -0.27460  -0.26887
  Beta  occ. eigenvalues --   -0.25983  -0.24333  -0.23191  -0.22175  -0.21847
  Beta  occ. eigenvalues --   -0.20844  -0.16582  -0.12180  -0.12012  -0.10832
  Beta  occ. eigenvalues --   -0.09900  -0.08795
  Beta virt. eigenvalues --    0.07840   0.08593   0.08751   0.09555   0.10034
  Beta virt. eigenvalues --    0.10570   0.11005   0.11321   0.11937   0.12940
  Beta virt. eigenvalues --    0.13541   0.14154   0.14518   0.15893   0.16370

 Mulliken charges and spin densities:
               1          2
     1  C   -0.565124   0.076522
     2  C   -0.252739  -0.004791
     3  C   -0.547678   0.049369
     4  C   -0.936897  -0.060870
     5  C    1.075137  -0.069132
     6  C   -0.462423  -0.002392
     7  C    1.509243   0.057602
     8  C   -0.796970   0.097878
     9  C    0.054647   0.056644
    10  N   -0.027013   0.096022
    11  C    0.658189  -0.005670
    12  C   -0.899956   0.421382
    13  O   -0.182894   0.029126
    14  C   -0.427910   0.169104
    15  O   -0.344751   0.106243
    16  H    0.117066   0.000514
    17  H    0.119661  -0.000625
    18  H    0.141405  -0.005568
    19  H    0.157415  -0.003566
    20  H    0.147102   0.000284
    21  H    0.144271  -0.007212
    22  H    0.144514  -0.006455
    23  H    0.215293   0.013204
    24  H   -0.039587  -0.007613
 Sum of Mulliken charges =  -1.00000   1.00000

 Dipole moment (field-independent basis, Debye):
    X=              0.2678    Y=             -0.4013    Z=             -1.9997  Tot=              2.0571
 Quadrupole moment (field-independent basis, Debye-Ang):
   XX=           -115.3873   YY=           -101.7641   ZZ=           -106.6707
   XY=              5.4139   XZ=              1.5021   YZ=              5.7287

 Summary of Natural Population Analysis:

                                       Natural Population
                Natural  -----------------------------------------------
    Atom  No    Charge         Core      Valence    Rydberg      Total
 -----------------------------------------------------------------------
      C    1   -0.10650      0.99957     2.09771    0.00922     3.10650
      C    2   -0.10921      0.99957     2.10050    0.00914     3.10921
      C    3   -0.08413      0.99953     2.07468    0.00991     3.08413
      C    4    0.07763      0.99948     1.91052    0.01238     2.92237
      C    5   -0.04460      0.99945     2.03401    0.01114     3.04460
      C    6   -0.06671      0.99954     2.05879    0.00838     3.06671
      C    7    0.04927      0.99947     1.93702    0.01424     2.95073
      C    8   -0.12532      0.99951     2.11826    0.00754     3.12532
      C    9    0.04594      0.99962     1.93982    0.01463     2.95406
      N   10   -0.21562      0.99969     2.70376    0.01217     3.71562
      C   11   -0.17643      0.99945     2.16643    0.01055     3.17643
      C   12    0.24361      0.99944     1.74346    0.01349     2.75639
      O   13   -0.32789      0.99988     3.32138    0.00662     4.32789
      C   14    0.21716      0.99966     1.76216    0.02103     2.78284
      O   15   -0.26130      0.99988     3.25317    0.00825     4.26130
      H   16    0.09213      0.00000     0.40690    0.00098     0.40787
      H   17    0.09144      0.00000     0.40753    0.00103     0.40856
      H   18    0.09791      0.00000     0.40038    0.00171     0.40209
      H   19    0.10437      0.00000     0.39426    0.00138     0.39563
      H   20    0.09879      0.00000     0.40016    0.00106     0.40121
      H   21    0.07805      0.00000     0.42059    0.00136     0.42195
      H   22    0.07229      0.00000     0.42638    0.00134     0.42771
      H   23    0.22830      0.00000     0.26741    0.00429     0.27170
      H   24    0.02083      0.00000     0.47598    0.00319     0.47917
 =======================================================================
   * Total *   -0.00000     14.99374    36.82125    0.18501    52.00000

 Normal termination of Gaussian 16 at Thu Dec 10 17:49:04 2020.
