 Gaussian 16, Revision A.03,

 -----------------------------------------------------------
 # opt freq B3LYP/6-31G(d) empiricaldispersion=gd3bj scf=xqc
 -----------------------------------------------------------

 -------------------------------
 CID_126982949_JID_4619_neutraal
 -------------------------------
 Symbolic Z-matrix:
 Charge =  0 Multiplicity = 1

 SCF Done:  E(RB3LYP) =  -630.820851777     A.U. after   15 cycles
 SCF Done:  E(RB3LYP) =  -630.825331084     A.U. after   12 cycles
 SCF Done:  E(RB3LYP) =  -630.825948502     A.U. after   12 cycles
 SCF Done:  E(RB3LYP) =  -630.826125318     A.U. after   12 cycles
 SCF Done:  E(RB3LYP) =  -630.826183763     A.U. after   11 cycles
 SCF Done:  E(RB3LYP) =  -630.826203158     A.U. after   10 cycles
 SCF Done:  E(RB3LYP) =  -630.826216232     A.U. after   10 cycles
 SCF Done:  E(RB3LYP) =  -630.826227265     A.U. after   10 cycles
 SCF Done:  E(RB3LYP) =  -630.826232034     A.U. after   10 cycles
 SCF Done:  E(RB3LYP) =  -630.826234144     A.U. after    9 cycles
 SCF Done:  E(RB3LYP) =  -630.826234285     A.U. after    8 cycles
 SCF Done:  E(RB3LYP) =  -630.826234305     A.U. after    8 cycles
 Optimization completed.
    -- Stationary point found.
 Normal termination of Gaussian 16 at Thu Dec 10 10:14:52 2020.

 --------------------------------------------------------------------
 #N Geom=AllCheck Guess=TCheck SCRF=Check GenChk RB3LYP/6-31G(d) Freq
 --------------------------------------------------------------------

 Structure from the checkpoint file:  "JID_4619.chk"
 -------------------------------
 CID_126982949_JID_4619_neutraal
 -------------------------------
 Charge =  0 Multiplicity = 1

 SCF Done:  E(RB3LYP) =  -630.826234305     A.U. after    1 cycles

  Exact polarizability: 154.731  -5.837 140.642  16.528  -4.257  89.483
 Approx polarizability: 214.824 -11.056 224.220  36.300  -9.821 134.610

                      1                      2                      3
                      A                      A                      A
 Frequencies --     24.1453                54.3701                79.2451
 Red. masses --      3.9706                 4.2875                 2.9880
 Frc consts  --      0.0014                 0.0075                 0.0111
 IR Inten    --      1.0267                 0.1280                 0.0617

                      4                      5                      6
                      A                      A                      A
 Frequencies --    105.8589               120.9567               154.3033
 Red. masses --      3.3361                 3.1391                 2.1799
 Frc consts  --      0.0220                 0.0271                 0.0306
 IR Inten    --      6.6396                 1.1821                 0.1836

                      7                      8                      9
                      A                      A                      A
 Frequencies --    191.9000               220.4789               228.9192
 Red. masses --      1.4507                 2.4783                 1.1187
 Frc consts  --      0.0315                 0.0710                 0.0345
 IR Inten    --      1.1181                 2.1876                 0.3919

                     10                     11                     12
                      A                      A                      A
 Frequencies --    245.2115               279.6868               296.1074
 Red. masses --      1.4740                 2.6471                 2.2484
 Frc consts  --      0.0522                 0.1220                 0.1162
 IR Inten    --      0.7478                 1.4566                 0.1160

                     13                     14                     15
                      A                      A                      A
 Frequencies --    316.9266               333.7346               343.4050
 Red. masses --      2.7162                 1.5537                 2.9364
 Frc consts  --      0.1607                 0.1020                 0.2040
 IR Inten    --      4.1680                20.6290                 1.2636

                     16                     17                     18
                      A                      A                      A
 Frequencies --    373.8062               407.9637               478.0664
 Red. masses --      2.4176                 2.6683                 3.7223
 Frc consts  --      0.1990                 0.2617                 0.5012
 IR Inten    --     11.2040                13.6771                 5.4606

                     19                     20                     21
                      A                      A                      A
 Frequencies --    507.9102               541.9783               578.3628
 Red. masses --      3.7261                 3.6749                 3.6047
 Frc consts  --      0.5663                 0.6360                 0.7104
 IR Inten    --      2.5103                 4.3171                 3.1172

                     22                     23                     24
                      A                      A                      A
 Frequencies --    603.8593               615.4669               622.0779
 Red. masses --      2.1488                 5.2757                 4.4449
 Frc consts  --      0.4617                 1.1774                 1.0135
 IR Inten    --     28.2625                13.8001                20.7711

                     25                     26                     27
                      A                      A                      A
 Frequencies --    713.6747               756.8757               780.5195
 Red. masses --      2.1274                 5.1256                 2.6957
 Frc consts  --      0.6384                 1.7300                 0.9676
 IR Inten    --     62.6583                 5.5071                45.0046

                     28                     29                     30
                      A                      A                      A
 Frequencies --    803.3634               827.2304               872.9415
 Red. masses --      1.3849                 3.3813                 3.0662
 Frc consts  --      0.5266                 1.3633                 1.3766
 IR Inten    --     49.1915                29.0800                17.1497

                     31                     32                     33
                      A                      A                      A
 Frequencies --    901.4630               915.1882               927.5981
 Red. masses --      1.5320                 1.3964                 1.8517
 Frc consts  --      0.7335                 0.6891                 0.9388
 IR Inten    --    123.5761                 3.7572                 2.4220

                     34                     35                     36
                      A                      A                      A
 Frequencies --    954.2937               961.8736              1015.4664
 Red. masses --      1.2966                 1.7718                 1.3727
 Frc consts  --      0.6957                 0.9659                 0.8340
 IR Inten    --      1.1778                 2.0066                 1.2777

                     37                     38                     39
                      A                      A                      A
 Frequencies --   1043.2526              1055.6732              1061.1561
 Red. masses --      1.8918                 1.5751                 5.2697
 Frc consts  --      1.2131                 1.0342                 3.4962
 IR Inten    --     23.0370                 4.7272                55.3369

                     40                     41                     42
                      A                      A                      A
 Frequencies --   1100.6253              1136.9369              1146.8795
 Red. masses --      2.1230                 1.6961                 2.1767
 Frc consts  --      1.5152                 1.2917                 1.6869
 IR Inten    --      6.7600                32.9771                38.2326

                     43                     44                     45
                      A                      A                      A
 Frequencies --   1181.9030              1187.5614              1190.3920
 Red. masses --      2.1189                 1.2662                 2.0337
 Frc consts  --      1.7439                 1.0522                 1.6979
 IR Inten    --     37.1551                 0.6290                 5.3707

                     46                     47                     48
                      A                      A                      A
 Frequencies --   1212.3172              1243.2971              1280.2247
 Red. masses --      1.4711                 2.3896                 1.5922
 Frc consts  --      1.2738                 2.1763                 1.5375
 IR Inten    --      8.8076               101.1491                 0.9459

                     49                     50                     51
                      A                      A                      A
 Frequencies --   1297.4358              1335.4594              1348.7901
 Red. masses --      4.3172                 1.6527                 1.3775
 Frc consts  --      4.2818                 1.7366                 1.4765
 IR Inten    --    170.9013                20.6646                 7.2385

                     52                     53                     54
                      A                      A                      A
 Frequencies --   1352.7808              1378.5761              1396.4409
 Red. masses --      1.4169                 1.9159                 1.8842
 Frc consts  --      1.5278                 2.1453                 2.1648
 IR Inten    --     15.0823                13.8911                12.3931

                     55                     56                     57
                      A                      A                      A
 Frequencies --   1432.5008              1438.4080              1449.6530
 Red. masses --      1.2081                 1.3544                 1.3731
 Frc consts  --      1.4607                 1.6511                 1.7001
 IR Inten    --      1.9070                32.7580                 3.8440

                     58                     59                     60
                      A                      A                      A
 Frequencies --   1458.7658              1506.8762              1507.1991
 Red. masses --      1.7264                 1.8604                 1.2189
 Frc consts  --      2.1645                 2.4890                 1.6314
 IR Inten    --    115.8715                59.1426                19.1720

                     61                     62                     63
                      A                      A                      A
 Frequencies --   1513.9063              1519.2551              1521.3987
 Red. masses --      1.2491                 1.0531                 1.2107
 Frc consts  --      1.6868                 1.4322                 1.6510
 IR Inten    --     24.8089                 4.7469                64.7312

                     64                     65                     66
                      A                      A                      A
 Frequencies --   1529.9837              1532.3364              1538.0965
 Red. masses --      1.1163                 1.0698                 1.0489
 Frc consts  --      1.5396                 1.4800                 1.4620
 IR Inten    --      4.6043                 5.6650                 0.6606

                     67                     68                     69
                      A                      A                      A
 Frequencies --   1550.0613              1646.1011              1650.5798
 Red. masses --      1.5291                 7.0161                 4.3762
 Frc consts  --      2.1646                11.2011                 7.0246
 IR Inten    --    126.7922                48.3790                23.7730

                     70                     71                     72
                      A                      A                      A
 Frequencies --   1701.3814              3043.4908              3049.7731
 Red. masses --      1.0948                 1.0632                 1.0425
 Frc consts  --      1.8672                 5.8022                 5.7128
 IR Inten    --     17.2399                 7.6036                29.7664

                     73                     74                     75
                      A                      A                      A
 Frequencies --   3050.5618              3057.2622              3067.3339
 Red. masses --      1.0614                 1.0812                 1.0290
 Frc consts  --      5.8196                 5.9540                 5.7043
 IR Inten    --     16.9973                26.9522                51.0341

                     76                     77                     78
                      A                      A                      A
 Frequencies --   3109.2629              3119.9875              3136.5294
 Red. masses --      1.1009                 1.0924                 1.1011
 Frc consts  --      6.2705                 6.2652                 6.3824
 IR Inten    --     41.5121                24.9071                27.4781

                     79                     80                     81
                      A                      A                      A
 Frequencies --   3139.5216              3147.8370              3169.0626
 Red. masses --      1.1071                 1.1032                 1.1071
 Frc consts  --      6.4295                 6.4404                 6.5507
 IR Inten    --     24.4502                19.8998                23.5785

                     82                     83                     84
                      A                      A                      A
 Frequencies --   3186.8668              3202.9634              3218.7636
 Red. masses --      1.0877                 1.0897                 1.0968
 Frc consts  --      6.5089                 6.5865                 6.6948
 IR Inten    --      9.6501                26.1075                18.7105

                     85                     86                     87
                      A                      A                      A
 Frequencies --   3460.6659              3552.2122              3557.7871
 Red. masses --      1.0483                 1.0911                 1.0758
 Frc consts  --      7.3973                 8.1114                 8.0227
 IR Inten    --      4.6655                 2.2650                11.2039

 - Thermochemistry -
 -------------------
 Temperature   298.150 Kelvin.  Pressure   1.00000 Atm.
 Atom     1 has atomic number  6 and mass  12.00000

 Molecular mass:   195.13716 amu.
 Principal axes and moments of inertia in atomic units:
                           1         2         3
     Eigenvalues --  1768.737173848.333674578.33285
           X            0.99989   0.01447   0.00422
           Y           -0.01443   0.99985  -0.01004
           Z           -0.00437   0.00997   0.99994
 This molecule is an asymmetric top.
 Rotational symmetry number  1.
 Warning -- assumption of classical behavior for rotation
           may cause significant error
 Rotational temperatures (Kelvin)      0.04897     0.02251     0.01892
 Rotational constants (GHZ):           1.02036     0.46897     0.39419
 Zero-point vibrational energy     711008.4 (Joules/Mol)
                                  169.93508 (Kcal/Mol)
 Warning -- explicit consideration of  23 degrees of freedom as
           vibrations may cause significant error
 Vibrational temperatures:     34.74    78.23   114.02   152.31   174.03
          (Kelvin)            222.01   276.10   317.22   329.36   352.80
                              402.41   426.03   455.99   480.17   494.08
                              537.82   586.97   687.83   730.77   779.79
                              832.14   868.82   885.52   895.03  1026.82
                             1088.98  1122.99  1155.86  1190.20  1255.97
                             1297.00  1316.75  1334.61  1373.02  1383.92
                             1461.03  1501.01  1518.88  1526.77  1583.55
                             1635.80  1650.10  1700.49  1708.64  1712.71
                             1744.25  1788.83  1841.96  1866.72  1921.43
                             1940.61  1946.35  1983.46  2009.17  2061.05
                             2069.55  2085.73  2098.84  2168.06  2168.52
                             2178.17  2185.87  2188.95  2201.31  2204.69
                             2212.98  2230.19  2368.37  2374.82  2447.91
                             4378.90  4387.94  4389.08  4398.72  4413.21
                             4473.54  4488.97  4512.77  4517.07  4529.04
                             4559.57  4585.19  4608.35  4631.08  4979.13
                             5110.84  5118.86

 Zero-point correction=                           0.270809 (Hartree/Particle)
 Thermal correction to Energy=                    0.285386
 Thermal correction to Enthalpy=                  0.286330
 Thermal correction to Gibbs Free Energy=         0.229042
 Sum of electronic and zero-point Energies=           -630.555426
 Sum of electronic and thermal Energies=              -630.540849
 Sum of electronic and thermal Enthalpies=            -630.539905
 Sum of electronic and thermal Free Energies=         -630.597192

                     E (Thermal)             CV                S
                      KCal/Mol        Cal/Mol-Kelvin    Cal/Mol-Kelvin
 Total                  179.082             55.300            120.571
 Electronic               0.000              0.000              0.000
 Translational            0.889              2.981             41.711
 Rotational               0.889              2.981             31.811
 Vibrational            177.305             49.339             47.050
 Vibration     1          0.593              1.985              6.260
 Vibration     2          0.596              1.976              4.652
 Vibration     3          0.600              1.963              3.909
 Vibration     4          0.605              1.945              3.343
 Vibration     5          0.609              1.932              3.085
 Vibration     6          0.620              1.898              2.618
 Vibration     7          0.634              1.851              2.209
 Vibration     8          0.647              1.810              1.955
 Vibration     9          0.652              1.797              1.887
 Vibration    10          0.660              1.771              1.765
 Vibration    11          0.680              1.711              1.536
 Vibration    12          0.690              1.681              1.439
 Vibration    13          0.704              1.641              1.326
 Vibration    14          0.715              1.608              1.242
 Vibration    15          0.722              1.589              1.196
 Vibration    16          0.745              1.526              1.064
 Vibration    17          0.773              1.453              0.934
 Vibration    18          0.835              1.299              0.715
 Vibration    19          0.863              1.232              0.639
 Vibration    20          0.897              1.157              0.561
 Vibration    21          0.935              1.078              0.488
 Vibration    22          0.962              1.024              0.443
 Vibration    23          0.975              0.999              0.424

                           ! Non-Optimized Parameters !
 Normal termination of Gaussian 16 at Thu Dec 10 10:23:58 2020.

 ----------------------------------------------------------------------
 # B3LYP/6-311++G(d,p) empiricaldispersion=gd3bj scf=xqc pop=npa geom=c
 heck
 ----------------------------------------------------------------------

 ---------------------------------------
 CID_126982949_JID_4619_Energie_neutraal
 ---------------------------------------
 Structure from the checkpoint file:  "JID_4619.chk"
 Charge =  0 Multiplicity = 1

 SCF Done:  E(RB3LYP) =  -631.010960087     A.U. after   15 cycles
 Normal termination of Gaussian 16 at Thu Dec 10 10:28:12 2020.

 ----------------------------------------------------------------------
 # B3LYP/6-311++G(d,p) empiricaldispersion=gd3bj scf=xqc pop=npa geom=c
 heck
 ----------------------------------------------------------------------

 -------------------------------------
 CID_126982949_JID_4619_Energie_kation
 -------------------------------------
 Structure from the checkpoint file:  "JID_4619.chk"
 Charge =  1 Multiplicity = 2

 SCF Done:  E(UB3LYP) =  -630.739539747     A.U. after   22 cycles
 Normal termination of Gaussian 16 at Thu Dec 10 10:39:06 2020.
 Gaussian 16:  ES64L-G16RevA.03 25-Dec-2016

 ----------------------------------------------------------------------
 # B3LYP/6-311++G(d,p) empiricaldispersion=gd3bj scf=xqc pop=npa geom=c
 heck
 ----------------------------------------------------------------------

 ------------------------------------
 CID_126982949_JID_4619_Energie_anion
 ------------------------------------
 Structure from the checkpoint file:  "JID_4619.chk"
 Charge = -1 Multiplicity = 2

                         Standard orientation:
 ---------------------------------------------------------------------
 Center     Atomic      Atomic             Coordinates (Angstroms)
 Number     Number       Type             X           Y           Z
 ---------------------------------------------------------------------
      1          6           0       -3.429956   -0.592491    1.366815
      2          6           0       -2.076571   -0.113525    0.842268
      3          6           0       -1.889932   -0.414755   -0.675695
      4          6           0       -2.942836    0.235730   -1.571518
      5          7           0       -0.565320    0.016540   -1.147060
      6          6           0        0.585945   -0.519207   -0.566577
      7          6           0        1.633316    0.343671   -0.149477
      8          7           0        2.783468   -0.053320    0.353390
      9          6           0        2.981274   -1.377277    0.507727
     10          6           0        2.023791   -2.318647    0.162864
     11          6           0        0.810827   -1.882089   -0.383994
     12          8           0        1.373264    1.678470   -0.287442
     13          6           0        2.409419    2.574911    0.120255
     14          7           0       -1.875550    1.287331    1.223084
     15          1           0       -4.250807    0.013521    0.964499
     16          1           0       -3.460112   -0.509220    2.456695
     17          1           0       -3.616787   -1.636253    1.088286
     18          1           0       -1.292292   -0.680777    1.359671
     19          1           0       -1.951352   -1.501605   -0.810573
     20          1           0       -2.949676    1.325853   -1.442151
     21          1           0       -2.723594    0.026278   -2.622130
     22          1           0       -3.945610   -0.135152   -1.342852
     23          1           0       -0.502627    1.028340   -1.185535
     24          1           0        3.938436   -1.670870    0.930947
     25          1           0        2.213631   -3.377203    0.308616
     26          1           0        0.048823   -2.597367   -0.676955
     27          1           0        2.012635    3.575899   -0.056586
     28          1           0        2.649823    2.436894    1.178211
     29          1           0        3.316847    2.411825   -0.468229
     30          1           0       -0.948958    1.604537    0.941703
     31          1           0       -2.554348    1.885766    0.754018
 ---------------------------------------------------------------------

 SCF Done:  E(UB3LYP) =  -630.997022487     A.U. after   33 cycles
 SCF Done:  E(UB3LYP) =  -630.997022487     a.u. after    1 cycles

 The electronic state is 2-A.
 Alpha  occ. eigenvalues --  -19.06725 -14.22022 -14.21407 -14.19025 -10.16514
 Alpha  occ. eigenvalues --  -10.12644 -10.12124 -10.10633 -10.10559 -10.09777
 Alpha  occ. eigenvalues --  -10.08563 -10.08113 -10.06159 -10.05983  -0.98712
 Alpha  occ. eigenvalues --   -0.85153  -0.83460  -0.78231  -0.70355  -0.68001
 Alpha  occ. eigenvalues --   -0.64851  -0.62089  -0.60961  -0.55196  -0.52752
 Alpha  occ. eigenvalues --   -0.51776  -0.46896  -0.45093  -0.43393  -0.40427
 Alpha  occ. eigenvalues --   -0.39923  -0.38203  -0.37365  -0.36923  -0.35217
 Alpha  occ. eigenvalues --   -0.34332  -0.33473  -0.31469  -0.30477  -0.30168
 Alpha  occ. eigenvalues --   -0.29187  -0.28849  -0.27462  -0.26846  -0.26047
 Alpha  occ. eigenvalues --   -0.25556  -0.23911  -0.23463  -0.21883  -0.17987
 Alpha  occ. eigenvalues --   -0.16829  -0.14447  -0.10916   0.04327
 Alpha virt. eigenvalues --    0.06271   0.06445   0.06782   0.08031   0.08298
 Alpha virt. eigenvalues --    0.08644   0.09139   0.09813   0.10316   0.10428
 Alpha virt. eigenvalues --    0.10798   0.11608   0.11960   0.12507   0.12666

  Beta  occ. eigenvalues --  -19.06718 -14.22019 -14.21382 -14.18997 -10.16512
  Beta  occ. eigenvalues --  -10.12614 -10.12118 -10.10621 -10.10551 -10.09772
  Beta  occ. eigenvalues --  -10.08531 -10.08105 -10.06116 -10.05954  -0.98696
  Beta  occ. eigenvalues --   -0.85124  -0.83432  -0.78186  -0.70310  -0.67964
  Beta  occ. eigenvalues --   -0.64812  -0.62039  -0.60915  -0.55130  -0.52724
  Beta  occ. eigenvalues --   -0.51718  -0.46841  -0.45064  -0.43354  -0.40402
  Beta  occ. eigenvalues --   -0.39882  -0.38172  -0.37332  -0.36893  -0.35183
  Beta  occ. eigenvalues --   -0.34291  -0.33429  -0.31417  -0.30436  -0.30128
  Beta  occ. eigenvalues --   -0.29150  -0.28804  -0.27422  -0.26816  -0.26009
  Beta  occ. eigenvalues --   -0.25514  -0.23872  -0.23425  -0.21822  -0.17935
  Beta  occ. eigenvalues --   -0.16775  -0.14415  -0.10877
  Beta virt. eigenvalues --    0.06440   0.06933   0.07192   0.07220   0.08648
  Beta virt. eigenvalues --    0.08778   0.09149   0.09218   0.10139   0.10461
  Beta virt. eigenvalues --    0.10953   0.11235   0.11935   0.12279   0.12822

 Mulliken charges and spin densities:
               1          2
     1  C    0.938894  -1.745080
     2  C   -0.326195   0.597394
     3  C   -1.518943   0.939268
     4  C    1.519484  -2.169889
     5  N    0.132311   0.032189
     6  C   -0.638091   0.362366
     7  C   -0.666730   0.538170
     8  N   -0.127866   0.053928
     9  C   -0.195162  -0.029311
    10  C    0.159706  -0.590064
    11  C    1.188823  -0.781597
    12  O   -0.191163   0.006811
    13  C    0.730324  -1.040504
    14  N   -0.253176  -0.060427
    15  H   -0.123080   0.265876
    16  H    0.027273   0.130324
    17  H   -0.314249   0.459732
    18  H    0.257316  -0.051326
    19  H    0.001861   0.162960
    20  H   -0.306419   0.466335
    21  H   -0.244883   0.408003
    22  H   -0.324850   0.483153
    23  H    0.411619  -0.100539
    24  H   -0.050429   0.212453
    25  H   -0.288786   0.458212
    26  H   -0.418302   0.590431
    27  H   -0.429101   0.580989
    28  H   -0.037201   0.220502
    29  H   -0.022819   0.195774
    30  H    0.080133   0.203552
    31  H    0.029701   0.200313
 Sum of Mulliken charges =  -1.00000   1.00000

 Dipole moment (field-independent basis, Debye):
    X=              3.6374    Y=             -0.3724    Z=              0.4808  Tot=              3.6879
 Quadrupole moment (field-independent basis, Debye-Ang):
   XX=           -152.9649   YY=           -139.4167   ZZ=           -121.9435
   XY=             -2.8088   XZ=             -3.6834   YZ=             -2.9327

 Summary of Natural Population Analysis:

                                       Natural Population
                Natural  -----------------------------------------------
    Atom  No    Charge         Core      Valence    Rydberg      Total
 -----------------------------------------------------------------------
      C    1   -0.28821      0.99965     2.28249    0.00608     3.28821
      C    2   -0.02178      0.99959     2.01050    0.01169     3.02178
      C    3   -0.01199      0.99957     1.99953    0.01289     3.01199
      C    4   -0.29270      0.99964     2.28594    0.00712     3.29270
      N    5   -0.32228      0.99968     2.80973    0.01287     3.82228
      C    6    0.05827      0.99945     1.92983    0.01245     2.94173
      C    7    0.25644      0.99941     1.72923    0.01491     2.74356
      N    8   -0.25759      0.99965     2.74775    0.01018     3.75759
      C    9    0.01036      0.99958     1.97631    0.01375     2.98964
      C   10   -0.12802      0.99957     2.11862    0.00984     3.12802
      C   11   -0.10008      0.99953     2.09071    0.00984     3.10008
      O   12   -0.28465      0.99986     3.27536    0.00943     4.28465
      C   13   -0.10040      0.99959     2.09137    0.00943     3.10040
      N   14   -0.42602      0.99976     2.91519    0.01107     3.92602
      H   15    0.09729      0.00000     0.40169    0.00102     0.40271
      H   16    0.10353      0.00000     0.39554    0.00093     0.39647
      H   17    0.10055      0.00000     0.39830    0.00115     0.39945
      H   18    0.09302      0.00000     0.40494    0.00203     0.40698
      H   19    0.09542      0.00000     0.40218    0.00240     0.40458
      H   20    0.09637      0.00000     0.40183    0.00180     0.40363
      H   21    0.10669      0.00000     0.39192    0.00140     0.39331
      H   22    0.10453      0.00000     0.39421    0.00126     0.39547
      H   23    0.18928      0.00000     0.30650    0.00422     0.31072
      H   24    0.08895      0.00000     0.41005    0.00100     0.41105
      H   25    0.10383      0.00000     0.39512    0.00105     0.39617
      H   26    0.10653      0.00000     0.39205    0.00142     0.39347
      H   27    0.09193      0.00000     0.40664    0.00144     0.40807
      H   28    0.09069      0.00000     0.40778    0.00153     0.40931
      H   29    0.08896      0.00000     0.40962    0.00142     0.41104
      H   30    0.17858      0.00000     0.31862    0.00280     0.32142
      H   31    0.17251      0.00000     0.32539    0.00210     0.32749
 =======================================================================
   * Total *   -0.00000     13.99455    38.82493    0.18052    53.00000

 Normal termination of Gaussian 16 at Thu Dec 10 10:55:14 2020.
