 Gaussian 16, Revision A.03,

 -----------------------------------------------------------
 # opt freq B3LYP/6-31G(d) empiricaldispersion=gd3bj scf=xqc
 -----------------------------------------------------------

 -------------------------------
 CID_131295252_JID_5234_neutraal
 -------------------------------
 Symbolic Z-matrix:
 Charge =  0 Multiplicity = 1

 SCF Done:  E(RB3LYP) =  -1081.13770329     A.U. after   15 cycles
 SCF Done:  E(RB3LYP) =  -1081.14489289     A.U. after   14 cycles
 SCF Done:  E(RB3LYP) =  -1081.14526221     A.U. after   13 cycles
 SCF Done:  E(RB3LYP) =  -1081.14663132     A.U. after   13 cycles
 SCF Done:  E(RB3LYP) =  -1081.14710319     A.U. after   12 cycles
 SCF Done:  E(RB3LYP) =  -1081.14744860     A.U. after   13 cycles
 SCF Done:  E(RB3LYP) =  -1081.14760315     A.U. after   13 cycles
 SCF Done:  E(RB3LYP) =  -1081.14768529     A.U. after   11 cycles
 SCF Done:  E(RB3LYP) =  -1081.14771745     A.U. after   11 cycles
 SCF Done:  E(RB3LYP) =  -1081.14772729     A.U. after   10 cycles
 SCF Done:  E(RB3LYP) =  -1081.14774540     A.U. after    9 cycles
 SCF Done:  E(RB3LYP) =  -1081.14774647     A.U. after    9 cycles
 SCF Done:  E(RB3LYP) =  -1081.14774730     A.U. after    9 cycles
 SCF Done:  E(RB3LYP) =  -1081.14774838     A.U. after    9 cycles
 SCF Done:  E(RB3LYP) =  -1081.14774908     A.U. after    9 cycles
 SCF Done:  E(RB3LYP) =  -1081.14774920     A.U. after    8 cycles
 Optimization completed.
    -- Stationary point found.
 Normal termination of Gaussian 16 at Thu Dec 10 14:54:55 2020.

 --------------------------------------------------------------------
 #N Geom=AllCheck Guess=TCheck SCRF=Check GenChk RB3LYP/6-31G(d) Freq
 --------------------------------------------------------------------

 Structure from the checkpoint file:  "JID_5234.chk"
 -------------------------------
 CID_131295252_JID_5234_neutraal
 -------------------------------
 Charge =  0 Multiplicity = 1

 SCF Done:  E(RB3LYP) =  -1081.14774920     A.U. after    1 cycles

  Exact polarizability: 180.382   2.463 141.487   4.239   9.360  74.095
 Approx polarizability: 294.152  23.975 234.653  18.408  30.427 128.303

                      1                      2                      3
                      A                      A                      A
 Frequencies --     34.2573                37.5395                65.2052
 Red. masses --      6.3251                10.0506                 1.1704
 Frc consts  --      0.0044                 0.0083                 0.0029
 IR Inten    --      0.5648                 1.6405                 0.1346

                      4                      5                      6
                      A                      A                      A
 Frequencies --     80.0259                95.0504               125.4227
 Red. masses --      3.6745                 5.1253                 5.4467
 Frc consts  --      0.0139                 0.0273                 0.0505
 IR Inten    --      0.3172                 1.5944                 0.8551

                      7                      8                      9
                      A                      A                      A
 Frequencies --    160.7929               171.4057               206.2741
 Red. masses --      5.1327                 1.1422                 3.3459
 Frc consts  --      0.0782                 0.0198                 0.0839
 IR Inten    --      0.6416                 0.3144                 1.1426

                     10                     11                     12
                      A                      A                      A
 Frequencies --    267.7180               298.9510               309.4681
 Red. masses --      5.1248                 6.0073                 4.1138
 Frc consts  --      0.2164                 0.3163                 0.2321
 IR Inten    --      1.8576                 0.8925                 0.2065

                     13                     14                     15
                      A                      A                      A
 Frequencies --    342.4715               374.5260               396.0282
 Red. masses --      3.8309                 6.7377                 5.6662
 Frc consts  --      0.2647                 0.5568                 0.5236
 IR Inten    --      2.1897                 5.3196                 2.6301

                     16                     17                     18
                      A                      A                      A
 Frequencies --    431.0100               527.6352               564.3760
 Red. masses --      6.1301                 5.6852                 2.0571
 Frc consts  --      0.6709                 0.9325                 0.3861
 IR Inten    --      2.1384                 1.2085                36.3061

                     19                     20                     21
                      A                      A                      A
 Frequencies --    578.6499               612.8512               619.2557
 Red. masses --      4.1041                 5.3958                 4.1760
 Frc consts  --      0.8097                 1.1940                 0.9435
 IR Inten    --     12.9575                 6.5278                 5.9025

                     22                     23                     24
                      A                      A                      A
 Frequencies --    635.3179               647.3834               681.9132
 Red. masses --      3.2157                 6.0011                 4.7743
 Frc consts  --      0.7647                 1.4819                 1.3080
 IR Inten    --     42.2626                 6.7515                28.7313

                     25                     26                     27
                      A                      A                      A
 Frequencies --    711.7758               758.1658               773.0388
 Red. masses --      5.1781                 6.0234                 7.9370
 Frc consts  --      1.5456                 2.0400                 2.7945
 IR Inten    --     17.6519                17.6647                23.7588

                     28                     29                     30
                      A                      A                      A
 Frequencies --    782.3335               877.6545               958.2194
 Red. masses --      7.5580                 1.4270                 8.8502
 Frc consts  --      2.7255                 0.6476                 4.7878
 IR Inten    --     11.9483                 9.5051                31.3924

                     31                     32                     33
                      A                      A                      A
 Frequencies --    989.6411               997.3028              1020.3403
 Red. masses --      4.3538                 2.1098                 4.7116
 Frc consts  --      2.5123                 1.2364                 2.8901
 IR Inten    --      8.0231                22.0209                 0.9881

                     34                     35                     36
                      A                      A                      A
 Frequencies --   1052.3676              1063.9576              1079.4777
 Red. masses --      2.1310                 1.4160                 1.5187
 Frc consts  --      1.3905                 0.9444                 1.0427
 IR Inten    --      3.1584                 1.3276                 2.3943

                     37                     38                     39
                      A                      A                      A
 Frequencies --   1163.8948              1190.3701              1233.7075
 Red. masses --      3.6464                 2.5237                 2.6052
 Frc consts  --      2.9103                 2.1069                 2.3362
 IR Inten    --    232.4631                41.1642                18.9135

                     40                     41                     42
                      A                      A                      A
 Frequencies --   1254.4577              1286.1474              1319.3579
 Red. masses --      7.1742                 3.0323                 2.5808
 Frc consts  --      6.6517                 2.9553                 2.6468
 IR Inten    --     44.8387                17.1138                 8.4006

                     43                     44                     45
                      A                      A                      A
 Frequencies --   1380.5491              1433.9922              1438.2465
 Red. masses --      3.1389                 1.2612                 1.6431
 Frc consts  --      3.5248                 1.5280                 2.0025
 IR Inten    --     74.2147                 0.2587                26.4573

                     46                     47                     48
                      A                      A                      A
 Frequencies --   1457.5586              1495.5316              1498.8868
 Red. masses --      3.1232                 1.6775                 1.3657
 Frc consts  --      3.9094                 2.2106                 1.8077
 IR Inten    --      2.8276                23.2733                26.4774

                     49                     50                     51
                      A                      A                      A
 Frequencies --   1507.1209              1510.3120              1520.5549
 Red. masses --      1.0436                 1.3462                 1.7031
 Frc consts  --      1.3966                 1.8093                 2.3200
 IR Inten    --      9.6148                15.3387                35.4310

                     52                     53                     54
                      A                      A                      A
 Frequencies --   1550.5770              1581.5842              1654.5257
 Red. masses --      3.1617                 4.7659                 9.4589
 Frc consts  --      4.4787                 7.0239                15.2559
 IR Inten    --     13.6743                25.9046                 4.6647

                     55                     56                     57
                      A                      A                      A
 Frequencies --   1837.8584              3057.6176              3064.6418
 Red. masses --     10.3526                 1.0372                 1.0381
 Frc consts  --     20.6027                 5.7131                 5.7442
 IR Inten    --    449.2433                17.6404                 7.9170

                     58                     59                     60
                      A                      A                      A
 Frequencies --   3112.9757              3124.7096              3160.1064
 Red. masses --      1.1015                 1.0992                 1.1027
 Frc consts  --      6.2892                 6.3236                 6.4882
 IR Inten    --      9.3537                 7.5851                 6.6741

                     61                     62                     63
                      A                      A                      A
 Frequencies --   3161.2488              3240.1883              3693.3630
 Red. masses --      1.1009                 1.0930                 1.0641
 Frc consts  --      6.4821                 6.7613                 8.5523
 IR Inten    --      3.9071                 7.8737                89.9740

 - Thermochemistry -
 -------------------
 Temperature   298.150 Kelvin.  Pressure   1.00000 Atm.
 Atom     1 has atomic number  6 and mass  12.00000

 Molecular mass:   224.02556 amu.
 Principal axes and moments of inertia in atomic units:
                           1         2         3
     Eigenvalues --  2110.498764371.446706166.25487
           X            0.99978  -0.02092  -0.00279
           Y            0.02092   0.99978  -0.00059
           Z            0.00281   0.00053   1.00000
 This molecule is an asymmetric top.
 Rotational symmetry number  1.
 Warning -- assumption of classical behavior for rotation
           may cause significant error
 Rotational temperatures (Kelvin)      0.04104     0.01981     0.01405
 Rotational constants (GHZ):           0.85513     0.41285     0.29268
 Zero-point vibrational energy     432198.2 (Joules/Mol)
                                  103.29784 (Kcal/Mol)
 Warning -- explicit consideration of  21 degrees of freedom as
           vibrations may cause significant error
 Vibrational temperatures:     49.29    54.01    93.82   115.14   136.76
          (Kelvin)            180.46   231.35   246.61   296.78   385.19
                              430.12   445.26   492.74   538.86   569.80
                              620.13   759.15   812.01   832.55   881.76
                              890.97   914.08   931.44   981.12  1024.09
                             1090.83  1112.23  1125.60  1262.75  1378.66
                             1423.87  1434.90  1468.04  1514.12  1530.80
                             1553.13  1674.58  1712.68  1775.03  1804.88
                             1850.48  1898.26  1986.30  2063.19  2069.32
                             2097.10  2151.74  2156.56  2168.41  2173.00
                             2187.74  2230.93  2275.55  2380.49  2644.27
                             4399.23  4409.34  4478.88  4495.76  4546.69
                             4548.33  4661.91  5313.93

 Zero-point correction=                           0.164616 (Hartree/Particle)
 Thermal correction to Energy=                    0.178632
 Thermal correction to Enthalpy=                  0.179576
 Thermal correction to Gibbs Free Energy=         0.121890
 Sum of electronic and zero-point Energies=          -1080.983134
 Sum of electronic and thermal Energies=             -1080.969117
 Sum of electronic and thermal Enthalpies=           -1080.968173
 Sum of electronic and thermal Free Energies=        -1081.025859

                     E (Thermal)             CV                S
                      KCal/Mol        Cal/Mol-Kelvin    Cal/Mol-Kelvin
 Total                  112.093             50.474            121.410
 Electronic               0.000              0.000              0.000
 Translational            0.889              2.981             42.122
 Rotational               0.889              2.981             32.409
 Vibrational            110.316             44.512             46.879
 Vibration     1          0.594              1.983              5.566
 Vibration     2          0.594              1.982              5.385
 Vibration     3          0.597              1.971              4.293
 Vibration     4          0.600              1.963              3.890
 Vibration     5          0.603              1.953              3.553
 Vibration     6          0.610              1.928              3.015
 Vibration     7          0.622              1.890              2.540
 Vibration     8          0.626              1.878              2.420
 Vibration     9          0.641              1.831              2.076
 Vibration    10          0.673              1.732              1.611
 Vibration    11          0.692              1.676              1.423
 Vibration    12          0.699              1.656              1.365
 Vibration    13          0.722              1.591              1.201
 Vibration    14          0.746              1.524              1.061
 Vibration    15          0.763              1.479              0.977
 Vibration    16          0.792              1.403              0.855
 Vibration    17          0.883              1.189              0.593
 Vibration    18          0.920              1.108              0.515
 Vibration    19          0.935              1.077              0.488
 Vibration    20          0.972              1.005              0.428
 Vibration    21          0.979              0.991              0.418

 Optimization completed.
    -- Stationary point found.
 Normal termination of Gaussian 16 at Thu Dec 10 15:01:43 2020.

 ----------------------------------------------------------------------
 # B3LYP/6-311++G(d,p) empiricaldispersion=gd3bj scf=xqc pop=npa geom=c
 heck
 ----------------------------------------------------------------------

 ---------------------------------------
 CID_131295252_JID_5234_Energie_neutraal
 ---------------------------------------
 Structure from the checkpoint file:  "JID_5234.chk"
 Charge =  0 Multiplicity = 1

 SCF Done:  E(RB3LYP) =  -1081.36644363     A.U. after   17 cycles
 Normal termination of Gaussian 16 at Thu Dec 10 15:05:03 2020.

 ----------------------------------------------------------------------
 # B3LYP/6-311++G(d,p) empiricaldispersion=gd3bj scf=xqc pop=npa geom=c
 heck
 ----------------------------------------------------------------------

 -------------------------------------
 CID_131295252_JID_5234_Energie_kation
 -------------------------------------
 Structure from the checkpoint file:  "JID_5234.chk"
 Charge =  1 Multiplicity = 2

 SCF Done:  E(UB3LYP) =  -1081.05062820     A.U. after   25 cycles
 Normal termination of Gaussian 16 at Thu Dec 10 15:12:07 2020.
 Gaussian 16:  ES64L-G16RevA.03 25-Dec-2016

 ----------------------------------------------------------------------
 # B3LYP/6-311++G(d,p) empiricaldispersion=gd3bj scf=xqc pop=npa geom=c
 heck
 ----------------------------------------------------------------------

 ------------------------------------
 CID_131295252_JID_5234_Energie_anion
 ------------------------------------
 Structure from the checkpoint file:  "JID_5234.chk"
 Charge = -1 Multiplicity = 2

                         Standard orientation:
 ---------------------------------------------------------------------
 Center     Atomic      Atomic             Coordinates (Angstroms)
 Number     Number       Type             X           Y           Z
 ---------------------------------------------------------------------
      1          6           0       -0.862728    3.178123   -0.213556
      2          6           0       -1.462513    1.811124   -0.136064
      3          7           0       -2.761400    1.654291   -0.261291
      4          8           0       -3.005337    0.295436   -0.165736
      5          6           0       -1.836118   -0.355694    0.018484
      6          6           0       -0.795278    0.546289    0.044580
      7          6           0        0.644385    0.381585    0.173863
      8          6           0        1.507607    1.206126    0.855770
      9          7           0        2.844115    0.917216    0.764229
     10          6           0        3.052153   -0.120314   -0.000402
     11         16           0        1.588483   -0.838669   -0.655002
     12          6           0        4.404358   -0.689899   -0.293999
     13          6           0       -1.971797   -1.815480    0.177101
     14          8           0       -3.014351   -2.421501    0.082319
     15          8           0       -0.784413   -2.401301    0.456511
     16          1           0       -1.588160    3.874313   -0.640237
     17          1           0       -0.580408    3.545483    0.779268
     18          1           0        0.040360    3.168814   -0.831416
     19          1           0        1.193231    2.045147    1.464622
     20          1           0        4.498268   -1.714108    0.084632
     21          1           0        4.606437   -0.713161   -1.370670
     22          1           0        5.155131   -0.064606    0.193862
     23          1           0       -0.967209   -3.355959    0.540005
 ---------------------------------------------------------------------

 SCF Done:  E(UB3LYP) =  -1081.39953820     A.U. after   23 cycles

 The electronic state is 2-A.
 Alpha  occ. eigenvalues --  -88.74542 -19.04684 -19.02716 -18.95300 -14.21093
 Alpha  occ. eigenvalues --  -14.18648 -10.14263 -10.10463 -10.07934 -10.07836
 Alpha  occ. eigenvalues --  -10.07821 -10.07613 -10.06385 -10.06259 -10.04572
 Alpha  occ. eigenvalues --   -7.83205  -5.79479  -5.79136  -5.78811  -0.99774
 Alpha  occ. eigenvalues --   -0.96375  -0.87175  -0.83522  -0.73738  -0.69124
 Alpha  occ. eigenvalues --   -0.66037  -0.64380  -0.60403  -0.57882  -0.53406
 Alpha  occ. eigenvalues --   -0.48827  -0.44363  -0.42768  -0.40718  -0.38682
 Alpha  occ. eigenvalues --   -0.35601  -0.34464  -0.34090  -0.33734  -0.33355
 Alpha  occ. eigenvalues --   -0.31223  -0.30461  -0.29141  -0.28876  -0.28470
 Alpha  occ. eigenvalues --   -0.27528  -0.26692  -0.25182  -0.24132  -0.23441
 Alpha  occ. eigenvalues --   -0.18968  -0.17722  -0.16528  -0.15175  -0.14964
 Alpha  occ. eigenvalues --   -0.14029  -0.13577  -0.10006   0.02674
 Alpha virt. eigenvalues --    0.07418   0.08790   0.09151   0.09869   0.10883
 Alpha virt. eigenvalues --    0.11410   0.11660   0.12595   0.13354   0.13474
 Alpha virt. eigenvalues --    0.14750   0.14814   0.15354   0.15538   0.16639

  Beta  occ. eigenvalues --  -88.74513 -19.04314 -19.02636 -18.94940 -14.20891
  Beta  occ. eigenvalues --  -14.18720 -10.14026 -10.10251 -10.07915 -10.07780
  Beta  occ. eigenvalues --  -10.07646 -10.07628 -10.06256 -10.06252 -10.04420
  Beta  occ. eigenvalues --   -7.83177  -5.79456  -5.79121  -5.78726  -0.99209
  Beta  occ. eigenvalues --   -0.96049  -0.86644  -0.83404  -0.73448  -0.68762
  Beta  occ. eigenvalues --   -0.65851  -0.64058  -0.60305  -0.57619  -0.52740
  Beta  occ. eigenvalues --   -0.48546  -0.44191  -0.42563  -0.40480  -0.38475
  Beta  occ. eigenvalues --   -0.35356  -0.33861  -0.33603  -0.33314  -0.33045
  Beta  occ. eigenvalues --   -0.30516  -0.30354  -0.28764  -0.28338  -0.28100
  Beta  occ. eigenvalues --   -0.27333  -0.26414  -0.24929  -0.23860  -0.23190
  Beta  occ. eigenvalues --   -0.17578  -0.17151  -0.16094  -0.15113  -0.14192
  Beta  occ. eigenvalues --   -0.13349  -0.12637  -0.08621
  Beta virt. eigenvalues --    0.07353   0.08233   0.08934   0.09709   0.10456
  Beta virt. eigenvalues --    0.10891   0.11466   0.12044   0.12626   0.13402
  Beta virt. eigenvalues --    0.13496   0.14727   0.14949   0.15437   0.15768

 Mulliken charges and spin densities:
               1          2
     1  C   -0.428957   0.012578
     2  C   -0.089046  -0.085444
     3  N   -0.442381   0.100418
     4  O    0.169856   0.083526
     5  C   -0.748935   0.201713
     6  C    0.516245   0.144953
     7  C   -0.029238   0.012034
     8  C   -0.108925   0.103610
     9  N   -0.005911  -0.039614
    10  C   -0.069546   0.098416
    11  S   -0.348333   0.074549
    12  C   -0.441933  -0.022789
    13  C    0.384522   0.140281
    14  O   -0.387963   0.124552
    15  O   -0.219954   0.014250
    16  H    0.138685   0.001689
    17  H    0.142797  -0.001130
    18  H    0.160858  -0.002057
    19  H    0.133976  -0.007791
    20  H    0.113784   0.041572
    21  H    0.146513   0.002384
    22  H    0.140879  -0.000194
    23  H    0.273008   0.002496
 Sum of Mulliken charges =  -1.00000   1.00000

 Dipole moment (field-independent basis, Debye):
    X=              6.2568    Y=              0.4403    Z=             -0.4756  Tot=              6.2903
 Quadrupole moment (field-independent basis, Debye-Ang):
   XX=           -147.5092   YY=           -107.2065   ZZ=           -100.4961
   XY=             -9.5612   XZ=             -5.9075   YZ=             -0.7748

 Summary of Natural Population Analysis:

                                       Natural Population
                Natural  -----------------------------------------------
    Atom  No    Charge         Core      Valence    Rydberg      Total
 -----------------------------------------------------------------------
      C    1   -0.29906      0.99963     2.29459    0.00485     3.29906
      C    2    0.06688      0.99959     1.91976    0.01377     2.93312
      N    3   -0.06518      0.99965     2.55125    0.01428     3.56518
      O    4   -0.12031      0.99985     3.10903    0.01142     4.12031
      C    5    0.17520      0.99940     1.81138    0.01402     2.82480
      C    6   -0.06896      0.99942     2.05959    0.00995     3.06896
      C    7   -0.10013      0.99946     2.09030    0.01037     3.10013
      C    8    0.00217      0.99949     1.98430    0.01403     2.99783
      N    9   -0.26825      0.99965     2.75553    0.01306     3.76825
      C   10    0.05741      0.99965     1.92529    0.01764     2.94259
      S   11    0.20244      4.99941     2.77865    0.01950     7.79756
      C   12   -0.30644      0.99961     2.30175    0.00508     3.30644
      C   13    0.40334      0.99968     1.57295    0.02402     2.59666
      O   14   -0.28101      0.99987     3.27274    0.00840     4.28101
      O   15   -0.34548      0.99988     3.33898    0.00662     4.34548
      H   16    0.10475      0.00000     0.39394    0.00132     0.39525
      H   17    0.09939      0.00000     0.39956    0.00106     0.40061
      H   18    0.10597      0.00000     0.39291    0.00112     0.39403
      H   19    0.09285      0.00000     0.40591    0.00125     0.40715
      H   20    0.10349      0.00000     0.39548    0.00103     0.39651
      H   21    0.10164      0.00000     0.39741    0.00096     0.39836
      H   22    0.10811      0.00000     0.39050    0.00139     0.39189
      H   23    0.23119      0.00000     0.26574    0.00307     0.26881
 =======================================================================
   * Total *    0.00000     18.99426    38.80755    0.19819    58.00000

 Normal termination of Gaussian 16 at Thu Dec 10 15:18:46 2020.
