 Gaussian 16, Revision A.03,

 -----------------------------------------------------------
 # opt freq B3LYP/6-31G(d) empiricaldispersion=gd3bj scf=xqc
 -----------------------------------------------------------

 -------------------------------
 CID_151309882_JID_3649_neutraal
 -------------------------------
 Symbolic Z-matrix:
 Charge =  0 Multiplicity = 1

 SCF Done:  E(RB3LYP) =  -614.844432249     A.U. after   16 cycles
 SCF Done:  E(RB3LYP) =  -614.855385146     A.U. after   16 cycles
 SCF Done:  E(RB3LYP) =  -614.858213009     A.U. after   16 cycles
 SCF Done:  E(RB3LYP) =  -614.859656017     A.U. after   15 cycles
 SCF Done:  E(RB3LYP) =  -614.859814277     A.U. after   12 cycles
 SCF Done:  E(RB3LYP) =  -614.859828318     A.U. after   10 cycles
 SCF Done:  E(RB3LYP) =  -614.859844771     A.U. after   10 cycles
 SCF Done:  E(RB3LYP) =  -614.859846448     A.U. after    9 cycles
 SCF Done:  E(RB3LYP) =  -614.859849027     A.U. after    9 cycles
 SCF Done:  E(RB3LYP) =  -614.859851645     A.U. after   10 cycles
 SCF Done:  E(RB3LYP) =  -614.859857365     A.U. after   10 cycles
 SCF Done:  E(RB3LYP) =  -614.859862540     A.U. after   10 cycles
 SCF Done:  E(RB3LYP) =  -614.859866608     A.U. after   10 cycles
 SCF Done:  E(RB3LYP) =  -614.859870066     A.U. after   10 cycles
 SCF Done:  E(RB3LYP) =  -614.859870245     A.U. after    8 cycles
 SCF Done:  E(RB3LYP) =  -614.859870292     A.U. after    7 cycles
 Optimization completed.
    -- Stationary point found.
 Normal termination of Gaussian 16 at Wed Dec  9 23:02:19 2020.

 --------------------------------------------------------------------
 #N Geom=AllCheck Guess=TCheck SCRF=Check GenChk RB3LYP/6-31G(d) Freq
 --------------------------------------------------------------------

 Structure from the checkpoint file:  "JID_3649.chk"
 -------------------------------
 CID_151309882_JID_3649_neutraal
 -------------------------------
 Charge =  0 Multiplicity = 1

 SCF Done:  E(RB3LYP) =  -614.859870292     A.U. after    1 cycles

  Exact polarizability: 188.876   1.747 106.212   0.001   0.000  44.050
 Approx polarizability: 302.389   9.892 226.748   0.002   0.002  68.422

                      1                      2                      3
                      A                      A                      A
 Frequencies --     56.7899                64.4803               110.8806
 Red. masses --      1.7043                 1.8963                10.0956
 Frc consts  --      0.0032                 0.0046                 0.0731
 IR Inten    --      0.9905                 0.6121                 0.3715

                      4                      5                      6
                      A                      A                      A
 Frequencies --    139.5556               208.1288               216.7774
 Red. masses --      6.6147                 3.4344                 5.1107
 Frc consts  --      0.0759                 0.0877                 0.1415
 IR Inten    --      0.7659                 2.2100                 0.7013

                      7                      8                      9
                      A                      A                      A
 Frequencies --    261.9575               363.8269               416.3498
 Red. masses --      4.6331                 7.1786                 8.8978
 Frc consts  --      0.1873                 0.5599                 0.9088
 IR Inten    --      2.0521                 1.1200                 1.1956

                     10                     11                     12
                      A                      A                      A
 Frequencies --    437.1581               468.3585               542.9208
 Red. masses --      8.6812                12.8417                 6.5130
 Frc consts  --      0.9775                 1.6597                 1.1311
 IR Inten    --      2.5735                15.5103                 7.7578

                     13                     14                     15
                      A                      A                      A
 Frequencies --    557.8947               606.1463               608.3099
 Red. masses --     13.7461                 6.6909                 2.6933
 Frc consts  --      2.5208                 1.4484                 0.5872
 IR Inten    --     11.5451                 0.5611                18.4866

                     16                     17                     18
                      A                      A                      A
 Frequencies --    620.0569               665.1701               692.0188
 Red. masses --      7.3566                 1.6488                 3.5101
 Frc consts  --      1.6664                 0.4298                 0.9904
 IR Inten    --      3.7112                47.1270                16.5913

                     19                     20                     21
                      A                      A                      A
 Frequencies --    745.7921               768.7578               808.5496
 Red. masses --      7.8586                 9.9156                10.1612
 Frc consts  --      2.5753                 3.4526                 3.9139
 IR Inten    --     21.7942                11.1822                 2.2951

                     22                     23                     24
                      A                      A                      A
 Frequencies --    870.8791               917.5794              1006.4906
 Red. masses --      8.7585                 1.4187                 1.6300
 Frc consts  --      3.9138                 0.7038                 0.9729
 IR Inten    --      4.3018                 8.8587                 3.8079

                     25                     26                     27
                      A                      A                      A
 Frequencies --   1028.9100              1073.4899              1106.1537
 Red. masses --      6.6542                 1.4369                 5.5606
 Frc consts  --      4.1505                 0.9756                 4.0087
 IR Inten    --      0.6091                 1.0616                35.2680

                     28                     29                     30
                      A                      A                      A
 Frequencies --   1179.5796              1198.7967              1282.2469
 Red. masses --      5.2094                 3.8837                 3.7982
 Frc consts  --      4.2706                 3.2884                 3.6793
 IR Inten    --     13.9920               101.9385                26.2397

                     31                     32                     33
                      A                      A                      A
 Frequencies --   1325.0297              1357.0617              1386.2065
 Red. masses --      2.1933                10.5871                 3.1861
 Frc consts  --      2.2688                11.4875                 3.6072
 IR Inten    --     45.4379               371.4328                19.8926

                     34                     35                     36
                      A                      A                      A
 Frequencies --   1424.4709              1441.0782              1465.6671
 Red. masses --      3.6221                 1.3869                 2.9480
 Frc consts  --      4.3303                 1.6970                 3.7312
 IR Inten    --    156.6685                 1.8496                20.2779

                     37                     38                     39
                      A                      A                      A
 Frequencies --   1514.8908              1515.6265              1539.9633
 Red. masses --      1.0426                 1.2479                 3.9301
 Frc consts  --      1.4097                 1.6889                 5.4913
 IR Inten    --      8.2247                24.1690                 1.9863

                     40                     41                     42
                      A                      A                      A
 Frequencies --   1560.0075              1602.3733              1645.7029
 Red. masses --      6.5464                 6.8284                 6.0574
 Frc consts  --      9.3865                10.3299                 9.6659
 IR Inten    --      8.1177                85.9536                53.6219

                     43                     44                     45
                      A                      A                      A
 Frequencies --   2292.0616              3047.9891              3100.1649
 Red. masses --     13.9929                 1.0386                 1.1021
 Frc consts  --     43.3123                 5.6849                 6.2406
 IR Inten    --    705.7358                34.3688                14.0463

                     46                     47                     48
                      A                      A                      A
 Frequencies --   3151.2185              3199.6624              3641.3506
 Red. masses --      1.0988                 1.0918                 1.0810
 Frc consts  --      6.4287                 6.5854                 8.4453
 IR Inten    --      2.4959                 8.4891               120.5381

 - Thermochemistry -
 -------------------
 Temperature   298.150 Kelvin.  Pressure   1.00000 Atm.
 Atom     1 has atomic number  6 and mass  12.00000

 Molecular mass:   175.06064 amu.
 Principal axes and moments of inertia in atomic units:
                           1         2         3
     Eigenvalues --   778.932093684.814564452.42655
           X            1.00000   0.00125  -0.00000
           Y           -0.00125   1.00000  -0.00000
           Z            0.00000   0.00000   1.00000
 This molecule is an asymmetric top.
 Rotational symmetry number  1.
 Warning -- assumption of classical behavior for rotation
           may cause significant error
 Rotational temperatures (Kelvin)      0.11120     0.02351     0.01945
 Rotational constants (GHZ):           2.31694     0.48978     0.40534
 Zero-point vibrational energy     330375.9 (Joules/Mol)
                                   78.96173 (Kcal/Mol)
 Warning -- explicit consideration of  16 degrees of freedom as
           vibrations may cause significant error
 Vibrational temperatures:     81.71    92.77   159.53   200.79   299.45
          (Kelvin)            311.89   376.90   523.47   599.03   628.97
                              673.86   781.14   802.69   872.11   875.22
                              892.12   957.03   995.66  1073.03  1106.07
                             1163.32  1253.00  1320.19  1448.12  1480.37
                             1544.51  1591.51  1697.15  1724.80  1844.87
                             1906.42  1952.51  1994.44  2049.50  2073.39
                             2108.77  2179.59  2180.65  2215.66  2244.50
                             2305.46  2367.80  3297.77  4385.38  4460.45
                             4533.90  4603.60  5239.09

 Zero-point correction=                           0.125834 (Hartree/Particle)
 Thermal correction to Energy=                    0.136074
 Thermal correction to Enthalpy=                  0.137018
 Thermal correction to Gibbs Free Energy=         0.088960
 Sum of electronic and zero-point Energies=           -614.734037
 Sum of electronic and thermal Energies=              -614.723796
 Sum of electronic and thermal Enthalpies=            -614.722852
 Sum of electronic and thermal Free Energies=         -614.770910

                     E (Thermal)             CV                S
                      KCal/Mol        Cal/Mol-Kelvin    Cal/Mol-Kelvin
 Total                   85.388             37.871            101.147
 Electronic               0.000              0.000              0.000
 Translational            0.889              2.981             41.387
 Rotational               0.889              2.981             30.925
 Vibrational             83.610             31.910             28.835
 Vibration     1          0.596              1.975              4.566
 Vibration     2          0.597              1.971              4.315
 Vibration     3          0.607              1.940              3.253
 Vibration     4          0.615              1.914              2.810
 Vibration     5          0.641              1.828              2.060
 Vibration     6          0.646              1.815              1.986
 Vibration     7          0.669              1.742              1.649
 Vibration     8          0.737              1.547              1.106
 Vibration     9          0.780              1.435              0.904
 Vibration    10          0.797              1.389              0.836
 Vibration    11          0.826              1.320              0.742
 Vibration    12          0.898              1.155              0.559
 Vibration    13          0.913              1.122              0.528
 Vibration    14          0.965              1.019              0.439
 Vibration    15          0.967              1.014              0.436
 Vibration    16          0.980              0.990              0.416

 Optimization completed.
    -- Stationary point found.
 Normal termination of Gaussian 16 at Wed Dec  9 23:06:12 2020.

 ----------------------------------------------------------------------
 # B3LYP/6-311++G(d,p) empiricaldispersion=gd3bj scf=xqc pop=npa geom=c
 heck
 ----------------------------------------------------------------------

 ---------------------------------------
 CID_151309882_JID_3649_Energie_neutraal
 ---------------------------------------
 Structure from the checkpoint file:  "JID_3649.chk"
 Charge =  0 Multiplicity = 1

 SCF Done:  E(RB3LYP) =  -615.021283660     A.U. after   16 cycles
 Normal termination of Gaussian 16 at Wed Dec  9 23:07:51 2020.

 ----------------------------------------------------------------------
 # B3LYP/6-311++G(d,p) empiricaldispersion=gd3bj scf=xqc pop=npa geom=c
 heck
 ----------------------------------------------------------------------

 -------------------------------------
 CID_151309882_JID_3649_Energie_kation
 -------------------------------------
 Structure from the checkpoint file:  "JID_3649.chk"
 Charge =  1 Multiplicity = 2

 SCF Done:  E(UB3LYP) =  -614.709467106     A.U. after   27 cycles
 Normal termination of Gaussian 16 at Wed Dec  9 23:11:47 2020.
 Gaussian 16:  ES64L-G16RevA.03 25-Dec-2016

 ----------------------------------------------------------------------
 # B3LYP/6-311++G(d,p) empiricaldispersion=gd3bj scf=xqc pop=npa geom=c
 heck
 ----------------------------------------------------------------------

 ------------------------------------
 CID_151309882_JID_3649_Energie_anion
 ------------------------------------
 Structure from the checkpoint file:  "JID_3649.chk"
 Charge = -1 Multiplicity = 2

                         Standard orientation:
 ---------------------------------------------------------------------
 Center     Atomic      Atomic             Coordinates (Angstroms)
 Number     Number       Type             X           Y           Z
 ---------------------------------------------------------------------
      1          6           0        3.856186    0.666370   -0.000050
      2          6           0        2.552014   -0.054280    0.000046
      3          6           0        1.236052    0.420369   -0.000004
      4          6           0        0.406333   -0.751831    0.000001
      5          7           0        1.133535   -1.877418    0.000006
      6          7           0        2.407122   -1.402106   -0.000002
      7          7           0       -0.950421   -0.677977    0.000009
      8          6           0       -1.404391    0.555463    0.000021
      9          6           0       -0.576259    1.737914    0.000009
     10          7           0        0.734548    1.682437    0.000015
     11          7           0       -2.790140    0.813398    0.000003
     12          7           0       -3.527687   -0.190044   -0.000012
     13          7           0       -4.305760   -1.015826   -0.000031
     14          1           0        4.455679    0.427932   -0.886898
     15          1           0        4.455910    0.427813    0.886612
     16          1           0        3.661911    1.741674    0.000060
     17          1           0        3.155930   -2.081046    0.000130
     18          1           0       -1.057435    2.712357    0.000049
 ---------------------------------------------------------------------

 SCF Done:  E(UB3LYP) =  -615.051126637     A.U. after   24 cycles

 The electronic state is 2-A.
 Alpha  occ. eigenvalues --  -14.33790 -14.24263 -14.23974 -14.22428 -14.17362
 Alpha  occ. eigenvalues --  -14.14644 -14.13630 -10.08574 -10.06759 -10.06731
 Alpha  occ. eigenvalues --  -10.06617 -10.04725 -10.04313  -1.00441  -0.90339
 Alpha  occ. eigenvalues --   -0.85471  -0.80204  -0.75010  -0.68273  -0.64538
 Alpha  occ. eigenvalues --   -0.59022  -0.57031  -0.49414  -0.44600  -0.42652
 Alpha  occ. eigenvalues --   -0.38789  -0.37765  -0.36712  -0.35260  -0.33280
 Alpha  occ. eigenvalues --   -0.32575  -0.31621  -0.29953  -0.29360  -0.29317
 Alpha  occ. eigenvalues --   -0.25117  -0.25084  -0.19742  -0.18161  -0.16674
 Alpha  occ. eigenvalues --   -0.15908  -0.15327  -0.09166  -0.08990  -0.08490
 Alpha  occ. eigenvalues --    0.03259
 Alpha virt. eigenvalues --    0.07558   0.09859   0.10197   0.10884   0.11555
 Alpha virt. eigenvalues --    0.12567   0.13359   0.14671   0.15073   0.15822
 Alpha virt. eigenvalues --    0.16673   0.17048   0.18375   0.18448   0.18644

  Beta  occ. eigenvalues --  -14.33628 -14.23987 -14.23662 -14.22567 -14.17251
  Beta  occ. eigenvalues --  -14.14058 -14.13109 -10.08415 -10.06760 -10.06671
  Beta  occ. eigenvalues --  -10.06593 -10.04705 -10.04372  -1.00123  -0.89935
  Beta  occ. eigenvalues --   -0.85277  -0.79556  -0.74148  -0.67915  -0.64179
  Beta  occ. eigenvalues --   -0.58790  -0.56540  -0.49199  -0.44403  -0.42346
  Beta  occ. eigenvalues --   -0.38581  -0.36885  -0.36522  -0.34926  -0.32740
  Beta  occ. eigenvalues --   -0.32190  -0.31240  -0.29760  -0.29301  -0.28666
  Beta  occ. eigenvalues --   -0.24936  -0.23511  -0.18164  -0.17829  -0.16426
  Beta  occ. eigenvalues --   -0.14794  -0.14636  -0.08452  -0.08174  -0.06881
  Beta virt. eigenvalues --    0.07516   0.09347   0.09999   0.10193   0.11152
  Beta virt. eigenvalues --    0.11593   0.13335   0.14093   0.14663   0.15017
  Beta virt. eigenvalues --    0.16659   0.16904   0.17322   0.18359   0.18450

 Mulliken charges and spin densities:
               1          2
     1  C   -0.671100  -0.008792
     2  C    0.281049   0.103223
     3  C   -0.307932  -0.051727
     4  C   -0.071339  -0.030148
     5  N   -0.208326   0.061866
     6  N   -0.178856   0.109999
     7  N   -0.208411   0.251192
     8  C   -0.557473   0.104821
     9  C    0.244342   0.044118
    10  N   -0.170884   0.264095
    11  N    0.115032  -0.073987
    12  N    0.051015   0.042767
    13  N   -0.182613   0.168493
    14  H    0.117124   0.014116
    15  H    0.117115   0.014095
    16  H    0.167682  -0.001981
    17  H    0.285949  -0.007105
    18  H    0.177626  -0.005045
 Sum of Mulliken charges =  -1.00000   1.00000

 Dipole moment (field-independent basis, Debye):
    X=              5.0766    Y=              0.9866    Z=              0.0001  Tot=              5.1716
 Quadrupole moment (field-independent basis, Debye-Ang):
   XX=            -99.8058   YY=            -95.1524   ZZ=            -79.5224
   XY=             -9.7388   XZ=              0.0005   YZ=             -0.0004

 Summary of Natural Population Analysis:

                                       Natural Population
                Natural  -----------------------------------------------
    Atom  No    Charge         Core      Valence    Rydberg      Total
 -----------------------------------------------------------------------
      C    1   -0.30226      0.99964     2.29839    0.00423     3.30226
      C    2    0.08904      0.99953     1.89979    0.01164     2.91096
      C    3    0.00423      0.99941     1.97994    0.01642     2.99577
      C    4    0.14442      0.99952     1.83836    0.01770     2.85558
      N    5   -0.16876      0.99971     2.65169    0.01735     3.66876
      N    6   -0.12006      0.99965     2.60936    0.01105     3.62006
      N    7   -0.18495      0.99962     2.67124    0.01409     3.68495
      C    8    0.18099      0.99953     1.80321    0.01628     2.81901
      C    9    0.00096      0.99959     1.98575    0.01371     2.99904
      N   10   -0.14193      0.99968     2.62961    0.01265     3.64193
      N   11   -0.21128      0.99965     2.69738    0.01424     3.71128
      N   12    0.14344      0.99971     2.33986    0.01700     3.35656
      N   13   -0.00935      0.99981     2.49598    0.01356     3.50935
      H   14    0.09718      0.00000     0.40169    0.00113     0.40282
      H   15    0.09718      0.00000     0.40170    0.00113     0.40282
      H   16    0.11443      0.00000     0.38445    0.00112     0.38557
      H   17    0.18303      0.00000     0.31536    0.00161     0.31697
      H   18    0.08369      0.00000     0.41494    0.00136     0.41631
 =======================================================================
   * Total *    0.00000     12.99506    31.81869    0.18625    45.00000

 Normal termination of Gaussian 16 at Wed Dec  9 23:15:20 2020.
