 Gaussian 16, Revision A.03,

 -----------------------------------------------------------
 # opt freq B3LYP/6-31G(d) empiricaldispersion=gd3bj scf=xqc
 -----------------------------------------------------------

 ------------------------------
 CID_13975020_JID_6240_neutraal
 ------------------------------
 Symbolic Z-matrix:
 Charge =  0 Multiplicity = 1

 SCF Done:  E(RB3LYP) =  -744.364163100     A.U. after   15 cycles
 SCF Done:  E(RB3LYP) =  -744.366667364     A.U. after   13 cycles
 SCF Done:  E(RB3LYP) =  -744.365023782     A.U. after   14 cycles
 SCF Done:  E(RB3LYP) =  -744.367403897     A.U. after   14 cycles
 SCF Done:  E(RB3LYP) =  -744.367686179     A.U. after   14 cycles
 SCF Done:  E(RB3LYP) =  -744.367759980     A.U. after   13 cycles
 SCF Done:  E(RB3LYP) =  -744.367964619     A.U. after   12 cycles
 SCF Done:  E(RB3LYP) =  -744.367996494     A.U. after   11 cycles
 SCF Done:  E(RB3LYP) =  -744.368003766     A.U. after   10 cycles
 SCF Done:  E(RB3LYP) =  -744.368005132     A.U. after    9 cycles
 SCF Done:  E(RB3LYP) =  -744.368005258     A.U. after    7 cycles
 SCF Done:  E(RB3LYP) =  -744.368005291     A.U. after    7 cycles
 Optimization completed.
    -- Stationary point found.
 Normal termination of Gaussian 16 at Thu Dec 10 21:34:02 2020.

 --------------------------------------------------------------------
 #N Geom=AllCheck Guess=TCheck SCRF=Check GenChk RB3LYP/6-31G(d) Freq
 --------------------------------------------------------------------

 Structure from the checkpoint file:  "JID_6240.chk"
 ------------------------------
 CID_13975020_JID_6240_neutraal
 ------------------------------
 Charge =  0 Multiplicity = 1

 SCF Done:  E(RB3LYP) =  -744.368005291     A.U. after    1 cycles

  Exact polarizability: 217.408 -15.281 130.192  -0.979  -5.562  72.538
 Approx polarizability: 303.851 -39.113 233.698  -0.168 -22.249 115.873

                      1                      2                      3
                      A                      A                      A
 Frequencies --     22.5931                36.9037                48.3062
 Red. masses --      5.0123                 3.6089                 4.2444
 Frc consts  --      0.0015                 0.0029                 0.0058
 IR Inten    --      0.5918                 0.0923                 0.1274

                      4                      5                      6
                      A                      A                      A
 Frequencies --     78.3586               108.7436               119.6289
 Red. masses --     10.1490                 5.6183                 4.0880
 Frc consts  --      0.0367                 0.0391                 0.0345
 IR Inten    --      7.0855                 2.4253                 1.7521

                      7                      8                      9
                      A                      A                      A
 Frequencies --    149.8374               194.1090               220.3495
 Red. masses --      6.8154                 7.0345                 6.3631
 Frc consts  --      0.0902                 0.1562                 0.1820
 IR Inten    --      5.8224                 0.2853                 0.2210

                     10                     11                     12
                      A                      A                      A
 Frequencies --    229.7343               236.2152               251.3948
 Red. masses --      4.4905                 1.1238                 1.0897
 Frc consts  --      0.1396                 0.0369                 0.0406
 IR Inten    --      5.5884                 0.1892                 0.1106

                     13                     14                     15
                      A                      A                      A
 Frequencies --    286.1021               346.1625               372.5916
 Red. masses --      7.7580                 5.2240                 3.6114
 Frc consts  --      0.3741                 0.3688                 0.2954
 IR Inten    --     18.0943                 8.3399                 4.7303

                     16                     17                     18
                      A                      A                      A
 Frequencies --    391.1750               410.1731               424.8415
 Red. masses --      4.5954                 2.9974                 4.8287
 Frc consts  --      0.4143                 0.2971                 0.5135
 IR Inten    --      0.3856                 0.1629                 2.8758

                     19                     20                     21
                      A                      A                      A
 Frequencies --    464.6932               498.8283               558.7454
 Red. masses --      6.0734                 2.8464                 7.3645
 Frc consts  --      0.7727                 0.4173                 1.3546
 IR Inten    --      8.4171                17.4216                 0.8142

                     22                     23                     24
                      A                      A                      A
 Frequencies --    565.1134               589.0658               653.5890
 Red. masses --      4.2639                 6.3348                 7.1526
 Frc consts  --      0.8023                 1.2951                 1.8002
 IR Inten    --      8.5049                 9.7433                 9.8618

                     25                     26                     27
                      A                      A                      A
 Frequencies --    673.8356               734.8763               762.7138
 Red. masses --      6.4208                 4.9912                 4.3342
 Frc consts  --      1.7177                 1.5881                 1.4855
 IR Inten    --     19.8048                 8.2025                14.2514

                     28                     29                     30
                      A                      A                      A
 Frequencies --    801.8877               816.0932               850.5859
 Red. masses --      6.2222                 3.2805                 6.5637
 Frc consts  --      2.3573                 1.2873                 2.7979
 IR Inten    --      9.0654                13.8915                26.4117

                     31                     32                     33
                      A                      A                      A
 Frequencies --    862.6207               881.8086               922.1284
 Red. masses --      1.2806                 1.9633                 3.0289
 Frc consts  --      0.5614                 0.8995                 1.5175
 IR Inten    --      1.9521                23.3833                 4.3523

                     34                     35                     36
                      A                      A                      A
 Frequencies --    951.3194               959.3713               985.4109
 Red. masses --      1.2387                 1.3534                 1.3412
 Frc consts  --      0.6605                 0.7339                 0.7673
 IR Inten    --      1.4766                 0.2666                 1.0967

                     37                     38                     39
                      A                      A                      A
 Frequencies --   1003.0898              1006.1644              1045.4894
 Red. masses --      1.3295                 5.8455                 2.6384
 Frc consts  --      0.7882                 3.4866                 1.6992
 IR Inten    --      0.2900               157.1276                 1.0283

                     40                     41                     42
                      A                      A                      A
 Frequencies --   1148.7382              1171.6675              1172.8225
 Red. masses --      1.3555                 1.9125                 2.1331
 Frc consts  --      1.0539                 1.5469                 1.7288
 IR Inten    --      2.0918                87.5129                16.5966

                     43                     44                     45
                      A                      A                      A
 Frequencies --   1206.8791              1219.9960              1230.7873
 Red. masses --      1.6946                 1.9252                 2.9985
 Frc consts  --      1.4542                 1.6883                 2.6762
 IR Inten    --    275.9844                 3.4132               261.6334

                     46                     47                     48
                      A                      A                      A
 Frequencies --   1239.2885              1340.1710              1345.2485
 Red. masses --      2.5394                 4.2110                 1.4807
 Frc consts  --      2.2979                 4.4561                 1.5787
 IR Inten    --    122.0339                45.1717                 8.2447

                     49                     50                     51
                      A                      A                      A
 Frequencies --   1356.1907              1392.3559              1428.9315
 Red. masses --      4.7547                 1.3167                 1.4561
 Frc consts  --      5.1525                 1.5040                 1.7517
 IR Inten    --     11.6039                 2.8993                18.1048

                     52                     53                     54
                      A                      A                      A
 Frequencies --   1429.8401              1444.2058              1452.9591
 Red. masses --      1.3353                 1.2433                 2.8727
 Frc consts  --      1.6085                 1.5279                 3.5731
 IR Inten    --     19.4811                19.0623                17.4988

                     55                     56                     57
                      A                      A                      A
 Frequencies --   1511.4294              1522.6533              1528.3670
 Red. masses --      1.0488                 1.0500                 1.0484
 Frc consts  --      1.4116                 1.4343                 1.4429
 IR Inten    --      0.2754                14.9852                 0.1263

                     58                     59                     60
                      A                      A                      A
 Frequencies --   1548.2574              1549.1916              1609.7364
 Red. masses --      1.1357                 2.0394                 6.6367
 Frc consts  --      1.6040                 2.8837                10.1323
 IR Inten    --      5.9868                 0.8363                10.2142

                     61                     62                     63
                      A                      A                      A
 Frequencies --   1665.7599              1776.2911              1793.3597
 Red. masses --      5.6142                12.9261                11.5545
 Frc consts  --      9.1783                24.0297                21.8945
 IR Inten    --     27.2125               193.1767               172.2228

                     64                     65                     66
                      A                      A                      A
 Frequencies --   2352.7044              3064.4556              3068.5094
 Red. masses --     12.6806                 1.0373                 1.0382
 Frc consts  --     41.3548                 5.7395                 5.7598
 IR Inten    --     16.4778                16.9526                11.3859

                     67                     68                     69
                      A                      A                      A
 Frequencies --   3099.4527              3128.9002              3132.8438
 Red. masses --      1.0866                 1.1020                 1.1019
 Frc consts  --      6.1503                 6.3566                 6.3719
 IR Inten    --     21.6510                17.0488                28.7385

                     70                     71                     72
                      A                      A                      A
 Frequencies --   3165.5212              3170.2627              3220.1536
 Red. masses --      1.1018                 1.1007                 1.0894
 Frc consts  --      6.5050                 6.5182                 6.6554
 IR Inten    --      1.5797                23.7605                 0.9513

                     73                     74                     75
                      A                      A                      A
 Frequencies --   3222.9006              3235.5745              3254.8091
 Red. masses --      1.0910                 1.0943                 1.0926
 Frc consts  --      6.6770                 6.7497                 6.8196
 IR Inten    --      2.1379                 2.5953                 1.3158

 - Thermochemistry -
 -------------------
 Temperature   298.150 Kelvin.  Pressure   1.00000 Atm.
 Atom     1 has atomic number  6 and mass  12.00000

 Molecular mass:   217.07389 amu.
 Principal axes and moments of inertia in atomic units:
                           1         2         3
     Eigenvalues --  1198.445978032.044388820.12188
           X            0.99989   0.01456   0.00027
           Y           -0.01456   0.99979   0.01443
           Z           -0.00006  -0.01444   0.99990
 This molecule is an asymmetric top.
 Rotational symmetry number  1.
 Warning -- assumption of classical behavior for rotation
           may cause significant error
 Rotational temperatures (Kelvin)      0.07227     0.01078     0.00982
 Rotational constants (GHZ):           1.50590     0.22469     0.20462
 Zero-point vibrational energy     548582.7 (Joules/Mol)
                                  131.11441 (Kcal/Mol)
 Warning -- explicit consideration of  23 degrees of freedom as
           vibrations may cause significant error
 Vibrational temperatures:     32.51    53.10    69.50   112.74   156.46
          (Kelvin)            172.12   215.58   279.28   317.03   330.54
                              339.86   361.70   411.64   498.05   536.08
                              562.81   590.15   611.25   668.59   717.70
                              803.91   813.07   847.53   940.37   969.50
                             1057.32  1097.37  1153.74  1174.18  1223.80
                             1241.12  1268.73  1326.74  1368.74  1380.32
                             1417.79  1443.22  1447.65  1504.23  1652.78
                             1685.77  1687.43  1736.43  1755.30  1770.83
                             1783.06  1928.21  1935.51  1951.26  2003.29
                             2055.91  2057.22  2077.89  2090.48  2174.61
                             2190.76  2198.98  2227.60  2228.94  2316.05
                             2396.66  2555.69  2580.24  3385.02  4409.07
                             4414.90  4459.42  4501.79  4507.46  4554.48
                             4561.30  4633.08  4637.04  4655.27  4682.94

 Zero-point correction=                           0.208944 (Hartree/Particle)
 Thermal correction to Energy=                    0.224136
 Thermal correction to Enthalpy=                  0.225080
 Thermal correction to Gibbs Free Energy=         0.164785
 Sum of electronic and zero-point Energies=           -744.159061
 Sum of electronic and thermal Energies=              -744.143869
 Sum of electronic and thermal Enthalpies=            -744.142925
 Sum of electronic and thermal Free Energies=         -744.203220

                     E (Thermal)             CV                S
                      KCal/Mol        Cal/Mol-Kelvin    Cal/Mol-Kelvin
 Total                  140.647             55.463            126.901
 Electronic               0.000              0.000              0.000
 Translational            0.889              2.981             42.028
 Rotational               0.889              2.981             32.807
 Vibrational            138.870             49.502             52.066
 Vibration     1          0.593              1.985              6.392
 Vibration     2          0.594              1.982              5.419
 Vibration     3          0.595              1.978              4.886
 Vibration     4          0.600              1.964              3.932
 Vibration     5          0.606              1.942              3.291
 Vibration     6          0.609              1.933              3.106
 Vibration     7          0.618              1.903              2.674
 Vibration     8          0.635              1.848              2.188
 Vibration     9          0.647              1.810              1.956
 Vibration    10          0.652              1.796              1.881
 Vibration    11          0.655              1.785              1.831
 Vibration    12          0.663              1.760              1.721
 Vibration    13          0.684              1.699              1.497
 Vibration    14          0.724              1.583              1.184
 Vibration    15          0.744              1.528              1.069
 Vibration    16          0.759              1.489              0.996
 Vibration    17          0.774              1.448              0.926
 Vibration    18          0.787              1.416              0.876
 Vibration    19          0.822              1.328              0.753
 Vibration    20          0.854              1.253              0.661
 Vibration    21          0.914              1.121              0.526
 Vibration    22          0.921              1.107              0.514
 Vibration    23          0.946              1.055              0.469

 Optimization completed.
    -- Stationary point found.
 Normal termination of Gaussian 16 at Thu Dec 10 21:41:51 2020.

 ----------------------------------------------------------------------
 # B3LYP/6-311++G(d,p) empiricaldispersion=gd3bj scf=xqc pop=npa geom=c
 heck
 ----------------------------------------------------------------------

 --------------------------------------
 CID_13975020_JID_6240_Energie_neutraal
 --------------------------------------
 Structure from the checkpoint file:  "JID_6240.chk"
 Charge =  0 Multiplicity = 1

 SCF Done:  E(RB3LYP) =  -744.573859693     A.U. after   15 cycles
 Normal termination of Gaussian 16 at Thu Dec 10 21:45:30 2020.

 ----------------------------------------------------------------------
 # B3LYP/6-311++G(d,p) empiricaldispersion=gd3bj scf=xqc pop=npa geom=c
 heck
 ----------------------------------------------------------------------

 ------------------------------------
 CID_13975020_JID_6240_Energie_kation
 ------------------------------------
 Structure from the checkpoint file:  "JID_6240.chk"
 Charge =  1 Multiplicity = 2

 SCF Done:  E(UB3LYP) =  -744.233687151     A.U. after   29 cycles
 Normal termination of Gaussian 16 at Thu Dec 10 21:55:20 2020.
 Gaussian 16:  ES64L-G16RevA.03 25-Dec-2016

 ----------------------------------------------------------------------
 # B3LYP/6-311++G(d,p) empiricaldispersion=gd3bj scf=xqc pop=npa geom=c
 heck
 ----------------------------------------------------------------------

 -----------------------------------
 CID_13975020_JID_6240_Energie_anion
 -----------------------------------
 Structure from the checkpoint file:  "JID_6240.chk"
 Charge = -1 Multiplicity = 2

                         Standard orientation:
 ---------------------------------------------------------------------
 Center     Atomic      Atomic             Coordinates (Angstroms)
 Number     Number       Type             X           Y           Z
 ---------------------------------------------------------------------
      1          6           0       -3.768370   -1.754696   -0.863739
      2          6           0       -3.960931   -0.282191   -0.519759
      3          6           0       -4.653875   -0.032187    0.814142
      4          8           0       -2.691482    0.454456   -0.598503
      5          6           0       -1.697662    0.161604    0.232378
      6          8           0       -1.683599   -0.702577    1.087232
      7          6           0       -0.521740    1.134687    0.021954
      8          8           0       -0.759675    2.321155   -0.111498
      9          6           0        0.866823    0.593558    0.040090
     10          6           0        1.158858   -0.772351    0.174846
     11          6           0        2.478299   -1.209205    0.145408
     12          6           0        3.519036   -0.282070   -0.017951
     13          6           0        3.231473    1.087915   -0.152493
     14          6           0        1.913420    1.515547   -0.124666
     15          6           0        4.878611   -0.732989   -0.048683
     16          7           0        5.982212   -1.098685   -0.074825
     17          1           0       -3.226724   -2.279055   -0.074389
     18          1           0       -3.220444   -1.860383   -1.805610
     19          1           0       -4.750113   -2.224630   -0.987365
     20          1           0       -4.529641    0.202173   -1.317803
     21          1           0       -4.123337   -0.520218    1.633900
     22          1           0       -4.715448    1.041431    1.017065
     23          1           0       -5.673245   -0.430848    0.768726
     24          1           0        0.358856   -1.486521    0.320490
     25          1           0        2.711457   -2.263028    0.251536
     26          1           0        4.043019    1.796306   -0.278688
     27          1           0        1.664537    2.565554   -0.231098
 ---------------------------------------------------------------------

 SCF Done:  E(UB3LYP) =  -744.629588863     A.U. after   21 cycles

 The electronic state is 2-A.
 Alpha  occ. eigenvalues --  -19.05250 -18.98706 -18.94516 -14.17822 -10.17046
 Alpha  occ. eigenvalues --  -10.14737 -10.09173 -10.08016 -10.07960 -10.07882
 Alpha  occ. eigenvalues --  -10.06965 -10.05808 -10.05545 -10.04585 -10.04417
 Alpha  occ. eigenvalues --  -10.04175  -0.99181  -0.90366  -0.88749  -0.78071
 Alpha  occ. eigenvalues --   -0.73580  -0.70722  -0.64784  -0.62721  -0.61270
 Alpha  occ. eigenvalues --   -0.57081  -0.53460  -0.49217  -0.47273  -0.42451
 Alpha  occ. eigenvalues --   -0.41766  -0.39885  -0.37221  -0.36302  -0.35685
 Alpha  occ. eigenvalues --   -0.33557  -0.32856  -0.32433  -0.31357  -0.30405
 Alpha  occ. eigenvalues --   -0.29944  -0.29405  -0.27869  -0.27092  -0.26917
 Alpha  occ. eigenvalues --   -0.25528  -0.24871  -0.24120  -0.23495  -0.22839
 Alpha  occ. eigenvalues --   -0.21106  -0.20549  -0.19700  -0.17711  -0.13983
 Alpha  occ. eigenvalues --   -0.13218  -0.10134   0.00526
 Alpha virt. eigenvalues --    0.06179   0.08397   0.09127   0.09360   0.09554
 Alpha virt. eigenvalues --    0.10306   0.10947   0.10976   0.12310   0.12416
 Alpha virt. eigenvalues --    0.12915   0.13511   0.14435   0.14736   0.15375

  Beta  occ. eigenvalues --  -19.05215 -18.98579 -18.93851 -14.17619 -10.16999
  Beta  occ. eigenvalues --  -10.14737 -10.08910 -10.08052 -10.07958 -10.07880
  Beta  occ. eigenvalues --  -10.06694 -10.05847 -10.05525 -10.04503 -10.04308
  Beta  occ. eigenvalues --  -10.04049  -0.99058  -0.90169  -0.87588  -0.77770
  Beta  occ. eigenvalues --   -0.73272  -0.70694  -0.64247  -0.62457  -0.61265
  Beta  occ. eigenvalues --   -0.56761  -0.52815  -0.49095  -0.46961  -0.42309
  Beta  occ. eigenvalues --   -0.41546  -0.39763  -0.36938  -0.36144  -0.35571
  Beta  occ. eigenvalues --   -0.33340  -0.32764  -0.32289  -0.31282  -0.30322
  Beta  occ. eigenvalues --   -0.29627  -0.28982  -0.27311  -0.26890  -0.26356
  Beta  occ. eigenvalues --   -0.25148  -0.23991  -0.23295  -0.23102  -0.22566
  Beta  occ. eigenvalues --   -0.20432  -0.19758  -0.19137  -0.17324  -0.13228
  Beta  occ. eigenvalues --   -0.11514  -0.09566
  Beta virt. eigenvalues --    0.06162   0.06590   0.08472   0.09121   0.09543
  Beta virt. eigenvalues --    0.10280   0.10478   0.10952   0.11719   0.12308
  Beta virt. eigenvalues --    0.12415   0.12955   0.13541   0.14474   0.14742

 Mulliken charges and spin densities:
               1          2
     1  C   -0.424974  -0.004142
     2  C   -0.039328  -0.000591
     3  C   -0.389613   0.001007
     4  O    0.093432  -0.003797
     5  C   -0.516884   0.071862
     6  O   -0.243795   0.042221
     7  C   -0.357566   0.129708
     8  O   -0.349353   0.243145
     9  C    1.993958   0.096350
    10  C   -1.131468   0.041589
    11  C   -0.788443   0.029186
    12  C    2.002484   0.202001
    13  C   -0.457105  -0.016233
    14  C    0.169830   0.151321
    15  C   -1.881993  -0.083284
    16  N   -0.283379   0.107595
    17  H    0.172122   0.000503
    18  H    0.140305   0.000161
    19  H    0.125793   0.002590
    20  H    0.155399   0.000439
    21  H    0.183835  -0.000163
    22  H    0.140887   0.000377
    23  H    0.134251   0.000696
    24  H    0.079847  -0.004104
    25  H    0.164903  -0.001135
    26  H    0.146670   0.002180
    27  H    0.160184  -0.009483
 Sum of Mulliken charges =  -1.00000   1.00000

 Dipole moment (field-independent basis, Debye):
    X=             -9.7939    Y=             -2.0156    Z=             -0.9240  Tot=             10.0417
 Quadrupole moment (field-independent basis, Debye-Ang):
   XX=           -165.7419   YY=           -111.1884   ZZ=           -102.4164
   XY=             17.2771   XZ=              2.8248   YZ=              2.5061

 Summary of Natural Population Analysis:

                                       Natural Population
                Natural  -----------------------------------------------
    Atom  No    Charge         Core      Valence    Rydberg      Total
 -----------------------------------------------------------------------
      C    1   -0.30140      0.99964     2.29712    0.00464     3.30140
      C    2    0.06400      0.99957     1.92534    0.01109     2.93600
      C    3   -0.30146      0.99964     2.29719    0.00462     3.30146
      O    4   -0.27308      0.99985     3.26334    0.00988     4.27308
      C    5    0.38490      0.99968     1.58930    0.02611     2.61510
      O    6   -0.31042      0.99987     3.30416    0.00639     4.31042
      C    7    0.25513      0.99959     1.72422    0.02106     2.74487
      O    8   -0.20893      0.99988     3.20250    0.00655     4.20893
      C    9   -0.03609      0.99948     2.02736    0.00925     3.03609
      C   10   -0.07244      0.99954     2.06489    0.00800     3.07244
      C   11   -0.08414      0.99955     2.07669    0.00790     3.08414
      C   12   -0.05230      0.99942     2.04255    0.01033     3.05230
      C   13   -0.09497      0.99954     2.08766    0.00777     3.09497
      C   14   -0.05969      0.99954     2.05085    0.00930     3.05969
      C   15    0.14727      0.99964     1.83471    0.01837     2.85273
      N   16   -0.17416      0.99979     2.66328    0.01109     3.67416
      H   17    0.11246      0.00000     0.38642    0.00112     0.38754
      H   18    0.10300      0.00000     0.39611    0.00089     0.39700
      H   19    0.09443      0.00000     0.40472    0.00084     0.40557
      H   20    0.08696      0.00000     0.41181    0.00124     0.41304
      H   21    0.11215      0.00000     0.38675    0.00109     0.38785
      H   22    0.10458      0.00000     0.39454    0.00088     0.39542
      H   23    0.09427      0.00000     0.40486    0.00087     0.40573
      H   24    0.10661      0.00000     0.39213    0.00126     0.39339
      H   25    0.09735      0.00000     0.40175    0.00090     0.40265
      H   26    0.09793      0.00000     0.40119    0.00089     0.40207
      H   27    0.10803      0.00000     0.39060    0.00137     0.39197
 =======================================================================
   * Total *    0.00000     15.99424    40.82204    0.18372    57.00000

 Normal termination of Gaussian 16 at Thu Dec 10 22:02:44 2020.
