 Gaussian 16, Revision A.03,

 -----------------------------------------------------------
 # opt freq B3LYP/6-31G(d) empiricaldispersion=gd3bj scf=xqc
 -----------------------------------------------------------

 -------------------------------
 CID_126546161_JID_6499_neutraal
 -------------------------------
 Symbolic Z-matrix:
 Charge =  0 Multiplicity = 1

 SCF Done:  E(RB3LYP) =  -692.207974372     A.U. after   14 cycles
 SCF Done:  E(RB3LYP) =  -692.213325331     A.U. after   12 cycles
 SCF Done:  E(RB3LYP) =  -692.214749065     A.U. after   12 cycles
 SCF Done:  E(RB3LYP) =  -692.216040751     A.U. after   12 cycles
 SCF Done:  E(RB3LYP) =  -692.216554257     A.U. after   11 cycles
 SCF Done:  E(RB3LYP) =  -692.216688119     A.U. after   11 cycles
 SCF Done:  E(RB3LYP) =  -692.216741780     A.U. after   10 cycles
 SCF Done:  E(RB3LYP) =  -692.216770037     A.U. after   10 cycles
 SCF Done:  E(RB3LYP) =  -692.216778705     A.U. after   10 cycles
 SCF Done:  E(RB3LYP) =  -692.216786930     A.U. after   10 cycles
 SCF Done:  E(RB3LYP) =  -692.216795412     A.U. after   10 cycles
 SCF Done:  E(RB3LYP) =  -692.216796538     A.U. after    8 cycles
 SCF Done:  E(RB3LYP) =  -692.216796790     A.U. after    8 cycles
 SCF Done:  E(RB3LYP) =  -692.216796848     A.U. after    7 cycles
 Optimization completed.
    -- Stationary point found.
 Normal termination of Gaussian 16 at Thu Dec 10 23:18:33 2020.

 --------------------------------------------------------------------
 #N Geom=AllCheck Guess=TCheck SCRF=Check GenChk RB3LYP/6-31G(d) Freq
 --------------------------------------------------------------------

 Structure from the checkpoint file:  "JID_6499.chk"
 -------------------------------
 CID_126546161_JID_6499_neutraal
 -------------------------------
 Charge =  0 Multiplicity = 1

 SCF Done:  E(RB3LYP) =  -692.216796848     A.U. after    1 cycles

  Exact polarizability: 202.511  -4.600 146.166   5.692   0.194 103.989
 Approx polarizability: 261.617 -10.911 243.231   7.416  -3.073 150.525

                      1                      2                      3
                      A                      A                      A
 Frequencies --     24.8770                37.1414                68.5025
 Red. masses --      5.1182                 2.9896                 4.0931
 Frc consts  --      0.0019                 0.0024                 0.0113
 IR Inten    --      0.7298                 0.4173                 0.3944

                      4                      5                      6
                      A                      A                      A
 Frequencies --     97.1210               118.9900               133.5620
 Red. masses --      3.1180                 3.5152                 3.3698
 Frc consts  --      0.0173                 0.0293                 0.0354
 IR Inten    --      0.0350                 1.7947                 1.5271

                      7                      8                      9
                      A                      A                      A
 Frequencies --    183.6244               209.1129               232.7935
 Red. masses --      3.1135                 3.9249                 1.0854
 Frc consts  --      0.0619                 0.1011                 0.0347
 IR Inten    --      1.4858                 3.5426                 1.2917

                     10                     11                     12
                      A                      A                      A
 Frequencies --    268.4150               281.1513               292.8814
 Red. masses --      1.1585                 2.2788                 2.2490
 Frc consts  --      0.0492                 0.1061                 0.1137
 IR Inten    --      0.1456                12.5219                 8.3888

                     13                     14                     15
                      A                      A                      A
 Frequencies --    310.1862               324.4452               327.8628
 Red. masses --      1.5712                 2.3640                 2.3747
 Frc consts  --      0.0891                 0.1466                 0.1504
 IR Inten    --     61.3440                 5.0644                 7.9524

                     16                     17                     18
                      A                      A                      A
 Frequencies --    334.3889               375.2155               391.8661
 Red. masses --      1.2139                 3.0035                 2.4097
 Frc consts  --      0.0800                 0.2491                 0.2180
 IR Inten    --      0.4745                 1.7825                 1.1352

                     19                     20                     21
                      A                      A                      A
 Frequencies --    398.2043               462.5391               491.6798
 Red. masses --      2.3372                 2.8772                 2.6595
 Frc consts  --      0.2183                 0.3627                 0.3788
 IR Inten    --      2.2976                 0.3224                 8.4155

                     22                     23                     24
                      A                      A                      A
 Frequencies --    509.0131               540.7565               627.3095
 Red. masses --      3.4762                 2.8054                 3.5586
 Frc consts  --      0.5307                 0.4833                 0.8251
 IR Inten    --      0.9577                 2.0432                 3.8307

                     25                     26                     27
                      A                      A                      A
 Frequencies --    638.7699               677.6641               703.3664
 Red. masses --      3.1392                 5.7330                 5.2231
 Frc consts  --      0.7547                 1.5512                 1.5224
 IR Inten    --      5.2464                 7.7445                 7.5927

                     28                     29                     30
                      A                      A                      A
 Frequencies --    754.9114               761.7100               806.2314
 Red. masses --      4.3674                 2.8235                 2.6275
 Frc consts  --      1.4665                 0.9652                 1.0063
 IR Inten    --      3.6245                 0.7081                 5.6240

                     31                     32                     33
                      A                      A                      A
 Frequencies --    826.3755               846.0735               862.1280
 Red. masses --      1.3522                 2.5247                 1.6663
 Frc consts  --      0.5440                 1.0648                 0.7297
 IR Inten    --     14.0088                 1.7885                15.7306

                     34                     35                     36
                      A                      A                      A
 Frequencies --    883.6428               936.7298               943.6146
 Red. masses --      2.0774                 2.8040                 1.7550
 Frc consts  --      0.9557                 1.4496                 0.9207
 IR Inten    --      1.8823                28.0527                 1.4022

                     37                     38                     39
                      A                      A                      A
 Frequencies --    949.0869               955.7311               969.5682
 Red. masses --      2.9028                 1.8132                 2.5551
 Frc consts  --      1.5406                 0.9758                 1.4152
 IR Inten    --      5.1385                 3.0044                24.3425

                     40                     41                     42
                      A                      A                      A
 Frequencies --    971.7631               975.7908              1011.6698
 Red. masses --      1.3494                 1.1964                 7.0663
 Frc consts  --      0.7508                 0.6712                 4.2611
 IR Inten    --      0.2341                 0.0983                 5.4608

                     43                     44                     45
                      A                      A                      A
 Frequencies --   1033.8725              1059.5419              1063.6067
 Red. masses --      1.5039                 1.4133                 1.3933
 Frc consts  --      0.9471                 0.9348                 0.9286
 IR Inten    --      1.4138                 0.9873                 0.0010

                     46                     47                     48
                      A                      A                      A
 Frequencies --   1075.2405              1103.3564              1136.4687
 Red. masses --      3.9712                 3.6157                 2.8478
 Frc consts  --      2.7051                 2.5935                 2.1670
 IR Inten    --      0.1779                53.0309                34.4554

                     49                     50                     51
                      A                      A                      A
 Frequencies --   1148.8216              1155.6794              1170.8060
 Red. masses --      1.9309                 2.4611                 1.5365
 Frc consts  --      1.5014                 1.9366                 1.2410
 IR Inten    --     12.4404                29.0862                 6.6696

                     52                     53                     54
                      A                      A                      A
 Frequencies --   1234.7615              1244.3035              1246.1034
 Red. masses --      1.1834                 2.7151                 2.2237
 Frc consts  --      1.0630                 2.4768                 2.0343
 IR Inten    --      4.2843                 2.8461                 6.6015

                     55                     56                     57
                      A                      A                      A
 Frequencies --   1251.8276              1281.0985              1284.7899
 Red. masses --      1.2561                 1.6195                 1.6733
 Frc consts  --      1.1597                 1.5660                 1.6274
 IR Inten    --     18.4054                 3.5942                 8.4873

                     58                     59                     60
                      A                      A                      A
 Frequencies --   1310.6508              1321.6319              1333.7282
 Red. masses --      2.6281                 1.3469                 1.3237
 Frc consts  --      2.6599                 1.3861                 1.3873
 IR Inten    --      3.8825                 0.7618                 1.0404

                     61                     62                     63
                      A                      A                      A
 Frequencies --   1345.0216              1357.4271              1380.4177
 Red. masses --      1.8347                 1.7251                 1.5978
 Frc consts  --      1.9556                 1.8728                 1.7939
 IR Inten    --      4.6015                99.3564                33.1423

                     64                     65                     66
                      A                      A                      A
 Frequencies --   1408.9093              1413.6297              1426.9551
 Red. masses --      1.4246                 1.5774                 1.2120
 Frc consts  --      1.6662                 1.8572                 1.4540
 IR Inten    --      3.3066                10.6093                 3.7766

                     67                     68                     69
                      A                      A                      A
 Frequencies --   1429.8231              1442.6670              1459.1239
 Red. masses --      1.2948                 1.6436                 1.2202
 Frc consts  --      1.5597                 2.0155                 1.5306
 IR Inten    --      1.5933                71.2339                 1.4347

                     70                     71                     72
                      A                      A                      A
 Frequencies --   1509.8830              1512.2898              1516.2186
 Red. masses --      1.1009                 1.0496                 1.0455
 Frc consts  --      1.4787                 1.4144                 1.4160
 IR Inten    --     13.7956                 0.0022                 0.1081

                     73                     74                     75
                      A                      A                      A
 Frequencies --   1520.1238              1527.4705              1532.9342
 Red. masses --      1.0536                 1.0833                 1.1143
 Frc consts  --      1.4344                 1.4891                 1.5428
 IR Inten    --      1.9032                 0.7205                 4.4322

                     76                     77                     78
                      A                      A                      A
 Frequencies --   1537.6335              1540.5755              1550.1995
 Red. masses --      1.0503                 1.4695                 1.0799
 Frc consts  --      1.4631                 2.0549                 1.5289
 IR Inten    --      5.4502                41.3453                 7.9286

                     79                     80                     81
                      A                      A                      A
 Frequencies --   1552.5392              1568.5978              1613.2569
 Red. masses --      1.5165                 2.0695                 5.4775
 Frc consts  --      2.1536                 3.0001                 8.3992
 IR Inten    --     52.9353               131.9418                48.7546

                     82                     83                     84
                      A                      A                      A
 Frequencies --   1666.8426              3042.3397              3046.6419
 Red. masses --      5.2247                 1.0630                 1.0350
 Frc consts  --      8.5526                 5.7968                 5.6600
 IR Inten    --    388.6233                51.8708                26.3034

                     85                     86                     87
                      A                      A                      A
 Frequencies --   3047.3211              3048.1732              3054.7797
 Red. masses --      1.0348                 1.0655                 1.0360
 Frc consts  --      5.6616                 5.8330                 5.6962
 IR Inten    --     21.5333                35.7666                24.0504

                     88                     89                     90
                      A                      A                      A
 Frequencies --   3075.5214              3090.7165              3113.4226
 Red. masses --      1.0753                 1.0821                 1.1022
 Frc consts  --      5.9926                 6.0903                 6.2950
 IR Inten    --      6.1205                32.9227                 4.4727

                     91                     92                     93
                      A                      A                      A
 Frequencies --   3113.7192              3114.0725              3121.1704
 Red. masses --      1.1012                 1.1025                 1.1031
 Frc consts  --      6.2906                 6.2994                 6.3316
 IR Inten    --     63.0803                 4.3757                15.2866

                     94                     95                     96
                      A                      A                      A
 Frequencies --   3121.8863              3122.6968              3125.4175
 Red. masses --      1.1016                 1.0998                 1.1023
 Frc consts  --      6.3255                 6.3189                 6.3439
 IR Inten    --    120.6181                41.0224                26.0340

                     97                     98                     99
                      A                      A                      A
 Frequencies --   3127.6314              3160.8550              3164.9561
 Red. masses --      1.1016                 1.0989                 1.0899
 Frc consts  --      6.3491                 6.4688                 6.4327
 IR Inten    --     41.5185                26.2355                33.0535

                    100                    101                    102
                      A                      A                      A
 Frequencies --   3182.8919              3241.7754              3641.3333
 Red. masses --      1.0893                 1.0913                 1.0769
 Frc consts  --      6.5021                 6.7573                 8.4130
 IR Inten    --     14.5204                 8.9280                22.9927

 - Thermochemistry -
 -------------------
 Temperature   298.150 Kelvin.  Pressure   1.00000 Atm.
 Atom     1 has atomic number  6 and mass  12.00000

 Molecular mass:   220.15756 amu.
 Principal axes and moments of inertia in atomic units:
                           1         2         3
     Eigenvalues --  1272.453677416.734777827.13787
           X            0.99998   0.00227   0.00517
           Y           -0.00232   0.99994   0.01047
           Z           -0.00515  -0.01048   0.99993
 This molecule is an asymmetric top.
 Rotational symmetry number  1.
 Warning -- assumption of classical behavior for rotation
           may cause significant error
 Rotational temperatures (Kelvin)      0.06807     0.01168     0.01107
 Rotational constants (GHZ):           1.41832     0.24333     0.23057
 Zero-point vibrational energy     834650.2 (Joules/Mol)
                                  199.48619 (Kcal/Mol)
 Warning -- explicit consideration of  23 degrees of freedom as
           vibrations may cause significant error
 Vibrational temperatures:     35.79    53.44    98.56   139.74   171.20
          (Kelvin)            192.17   264.19   300.87   334.94   386.19
                              404.51   421.39   446.29   466.80   471.72
                              481.11   539.85   563.81   572.93   665.49
                              707.42   732.36   778.03   902.56   919.05
                              975.01  1011.99  1086.15  1095.93  1159.99
                             1188.97  1217.31  1240.41  1271.36  1347.75
                             1357.65  1365.52  1375.08  1394.99  1398.15
                             1403.95  1455.57  1487.51  1524.44  1530.29
                             1547.03  1587.48  1635.12  1652.90  1662.76
                             1684.53  1776.55  1790.28  1792.86  1801.10
                             1843.21  1848.53  1885.73  1901.53  1918.94
                             1935.19  1953.03  1986.11  2027.11  2033.90
                             2053.07  2057.20  2075.68  2099.35  2172.38
                             2175.85  2181.50  2187.12  2197.69  2205.55
                             2212.31  2216.54  2230.39  2233.76  2256.86
                             2321.12  2398.21  4377.25  4383.44  4384.42
                             4385.64  4395.15  4424.99  4446.85  4479.52
                             4479.95  4480.46  4490.67  4491.70  4492.86
                             4496.78  4499.96  4547.77  4553.67  4579.47
                             4664.19  5239.07

 Zero-point correction=                           0.317901 (Hartree/Particle)
 Thermal correction to Energy=                    0.333622
 Thermal correction to Enthalpy=                  0.334566
 Thermal correction to Gibbs Free Energy=         0.274489
 Sum of electronic and zero-point Energies=           -691.898895
 Sum of electronic and thermal Energies=              -691.883175
 Sum of electronic and thermal Enthalpies=            -691.882231
 Sum of electronic and thermal Free Energies=         -691.942308

                     E (Thermal)             CV                S
                      KCal/Mol        Cal/Mol-Kelvin    Cal/Mol-Kelvin
 Total                  209.351             61.311            126.443
 Electronic               0.000              0.000              0.000
 Translational            0.889              2.981             42.070
 Rotational               0.889              2.981             32.668
 Vibrational            207.573             55.350             51.704
 Vibration     1          0.593              1.985              6.201
 Vibration     2          0.594              1.982              5.406
 Vibration     3          0.598              1.969              4.196
 Vibration     4          0.603              1.951              3.511
 Vibration     5          0.609              1.933              3.117
 Vibration     6          0.613              1.920              2.894
 Vibration     7          0.631              1.862              2.291
 Vibration     8          0.642              1.827              2.051
 Vibration     9          0.654              1.791              1.857
 Vibration    10          0.673              1.731              1.606
 Vibration    11          0.681              1.709              1.527
 Vibration    12          0.688              1.687              1.457
 Vibration    13          0.699              1.654              1.361
 Vibration    14          0.709              1.627              1.288
 Vibration    15          0.711              1.620              1.271
 Vibration    16          0.716              1.607              1.239
 Vibration    17          0.746              1.523              1.058
 Vibration    18          0.759              1.488              0.993
 Vibration    19          0.764              1.474              0.969
 Vibration    20          0.820              1.333              0.759
 Vibration    21          0.847              1.268              0.679
 Vibration    22          0.864              1.230              0.636
 Vibration    23          0.896              1.160              0.564

 Optimization completed.
    -- Stationary point found.
 Normal termination of Gaussian 16 at Thu Dec 10 23:31:24 2020.

 ----------------------------------------------------------------------
 # B3LYP/6-311++G(d,p) empiricaldispersion=gd3bj scf=xqc pop=npa geom=c
 heck
 ----------------------------------------------------------------------

 ---------------------------------------
 CID_126546161_JID_6499_Energie_neutraal
 ---------------------------------------
 Structure from the checkpoint file:  "JID_6499.chk"
 Charge =  0 Multiplicity = 1

 SCF Done:  E(RB3LYP) =  -692.406998880     A.U. after   14 cycles
 Normal termination of Gaussian 16 at Thu Dec 10 23:37:40 2020.

 ----------------------------------------------------------------------
 # B3LYP/6-311++G(d,p) empiricaldispersion=gd3bj scf=xqc pop=npa geom=c
 heck
 ----------------------------------------------------------------------

 -------------------------------------
 CID_126546161_JID_6499_Energie_kation
 -------------------------------------
 Structure from the checkpoint file:  "JID_6499.chk"
 Charge =  1 Multiplicity = 2

 SCF Done:  E(UB3LYP) =  -692.133453352     A.U. after   22 cycles
 Normal termination of Gaussian 16 at Thu Dec 10 23:51:36 2020.
 Gaussian 16:  ES64L-G16RevA.03 25-Dec-2016

 ----------------------------------------------------------------------
 # B3LYP/6-311++G(d,p) empiricaldispersion=gd3bj scf=xqc pop=npa geom=c
 heck
 ----------------------------------------------------------------------

 ------------------------------------
 CID_126546161_JID_6499_Energie_anion
 ------------------------------------
 Structure from the checkpoint file:  "JID_6499.chk"
 Charge = -1 Multiplicity = 2

                         Standard orientation:
 ---------------------------------------------------------------------
 Center     Atomic      Atomic             Coordinates (Angstroms)
 Number     Number       Type             X           Y           Z
 ---------------------------------------------------------------------
      1          6           0       -3.666615   -1.080194   -1.271268
      2          6           0       -3.437802   -0.162877   -0.050712
      3          6           0       -4.368781    1.053817   -0.177981
      4          6           0       -3.805241   -0.923442    1.241633
      5          6           0       -1.959901    0.243101    0.005635
      6          6           0       -0.974031   -0.731898    0.119481
      7          6           0        0.386412   -0.362201    0.170544
      8          7           0        0.786439    0.919614    0.111464
      9          6           0       -0.169460    1.848955    0.003668
     10          6           0       -1.531450    1.580816   -0.053234
     11          7           0        1.354735   -1.329366    0.311087
     12          6           0        2.789489   -1.111273    0.199087
     13          6           0        3.402016   -0.103766    1.215309
     14          6           0        4.104183    0.924845    0.316250
     15          8           0        4.410732    0.224808   -0.893029
     16          6           0        3.267244   -0.564135   -1.175120
     17          1           0       -4.719768   -1.379440   -1.328394
     18          1           0       -3.061399   -1.990305   -1.213125
     19          1           0       -3.406597   -0.562969   -2.201264
     20          1           0       -5.410607    0.717696   -0.214368
     21          1           0       -4.267283    1.731975    0.676128
     22          1           0       -4.169893    1.621691   -1.093234
     23          1           0       -3.203258   -1.829318    1.363880
     24          1           0       -3.645394   -0.293030    2.123113
     25          1           0       -4.860298   -1.220662    1.219480
     26          1           0       -1.237628   -1.784575    0.173057
     27          1           0        0.184110    2.877986   -0.042438
     28          1           0       -2.232641    2.400174   -0.143048
     29          1           0        1.037469   -2.281190    0.212454
     30          1           0        3.236874   -2.094730    0.365034
     31          1           0        4.122689   -0.615819    1.860302
     32          1           0        2.632192    0.349425    1.840110
     33          1           0        3.430044    1.765813    0.107716
     34          1           0        5.046008    1.303005    0.722408
     35          1           0        3.565832   -1.353675   -1.871181
     36          1           0        2.469101    0.037257   -1.630008
 ---------------------------------------------------------------------

 SCF Done:  E(UB3LYP) =  -692.397600460     A.U. after   33 cycles
 SCF Done:  E(UB3LYP) =  -692.397600460     a.u. after    1 cycles

 The electronic state is 2-A.
 Alpha  occ. eigenvalues --  -19.02795 -14.22759 -14.20170 -10.14648 -10.11709
 Alpha  occ. eigenvalues --  -10.11493 -10.11216 -10.10920 -10.10010 -10.09668
 Alpha  occ. eigenvalues --  -10.07217 -10.07139 -10.07072 -10.06846 -10.06565
 Alpha  occ. eigenvalues --  -10.06495  -0.94642  -0.87194  -0.80818  -0.74729
 Alpha  occ. eigenvalues --   -0.68590  -0.67764  -0.65092  -0.62806  -0.59676
 Alpha  occ. eigenvalues --   -0.59374  -0.54261  -0.53793  -0.50709  -0.49603
 Alpha  occ. eigenvalues --   -0.45532  -0.43548  -0.40930  -0.40445  -0.39197
 Alpha  occ. eigenvalues --   -0.37730  -0.36220  -0.35275  -0.35077  -0.33958
 Alpha  occ. eigenvalues --   -0.33606  -0.32707  -0.31917  -0.31070  -0.29874
 Alpha  occ. eigenvalues --   -0.28965  -0.28422  -0.27522  -0.27299  -0.27201
 Alpha  occ. eigenvalues --   -0.24747  -0.24635  -0.24007  -0.23905  -0.23193
 Alpha  occ. eigenvalues --   -0.20173  -0.17886  -0.17369  -0.15878  -0.11152
 Alpha  occ. eigenvalues --    0.04026
 Alpha virt. eigenvalues --    0.05872   0.06874   0.06980   0.07778   0.08124
 Alpha virt. eigenvalues --    0.08245   0.08947   0.09436   0.09612   0.09858
 Alpha virt. eigenvalues --    0.10398   0.10841   0.11131   0.11898   0.12029

  Beta  occ. eigenvalues --  -19.02794 -14.22723 -14.20164 -10.14650 -10.11707
  Beta  occ. eigenvalues --  -10.11475 -10.11207 -10.10916 -10.10007 -10.09667
  Beta  occ. eigenvalues --  -10.07193 -10.07131 -10.07066 -10.06819 -10.06538
  Beta  occ. eigenvalues --  -10.06467  -0.94637  -0.87164  -0.80776  -0.74712
  Beta  occ. eigenvalues --   -0.68562  -0.67742  -0.65073  -0.62774  -0.59627
  Beta  occ. eigenvalues --   -0.59321  -0.54231  -0.53754  -0.50688  -0.49569
  Beta  occ. eigenvalues --   -0.45469  -0.43492  -0.40905  -0.40408  -0.39163
  Beta  occ. eigenvalues --   -0.37698  -0.36203  -0.35242  -0.35040  -0.33935
  Beta  occ. eigenvalues --   -0.33571  -0.32671  -0.31898  -0.31053  -0.29846
  Beta  occ. eigenvalues --   -0.28933  -0.28392  -0.27492  -0.27273  -0.27180
  Beta  occ. eigenvalues --   -0.24722  -0.24610  -0.23993  -0.23871  -0.23164
  Beta  occ. eigenvalues --   -0.20157  -0.17873  -0.17358  -0.15869  -0.11125
  Beta virt. eigenvalues --    0.06166   0.06856   0.06899   0.07429   0.08260
  Beta virt. eigenvalues --    0.08532   0.08603   0.09115   0.09630   0.09878
  Beta virt. eigenvalues --    0.10223   0.10640   0.11125   0.11405   0.12045

 Mulliken charges and spin densities:
               1          2
     1  C    0.387616  -1.069685
     2  C   -1.358662   1.933840
     3  C    0.602336  -1.110491
     4  C    0.309227  -0.993568
     5  C    1.942080  -1.556585
     6  C    0.441506  -0.789540
     7  C   -0.133107  -0.092179
     8  N   -0.024582  -0.010451
     9  C   -0.035216  -0.283305
    10  C   -1.156432   0.866145
    11  N   -0.087933   0.072015
    12  C   -0.082014  -0.046706
    13  C    0.200515  -0.358567
    14  C   -0.341233  -0.087180
    15  O   -0.143904   0.000633
    16  C    0.183433  -0.482873
    17  H   -0.101549   0.251208
    18  H   -0.404343   0.558169
    19  H    0.033969   0.110828
    20  H   -0.144619   0.312224
    21  H   -0.083492   0.211871
    22  H   -0.058241   0.187181
    23  H   -0.315156   0.466014
    24  H    0.034776   0.109918
    25  H   -0.153899   0.306427
    26  H    0.125598   0.052900
    27  H    0.106628   0.042173
    28  H    0.009714   0.135123
    29  H   -0.460010   0.768234
    30  H   -0.664876   0.869478
    31  H   -0.066152   0.208545
    32  H    0.110912   0.061106
    33  H    0.167076   0.006995
    34  H    0.125941   0.028739
    35  H   -0.111048   0.278050
    36  H    0.145141   0.043313
 Sum of Mulliken charges =  -1.00000   1.00000

 Dipole moment (field-independent basis, Debye):
    X=              1.8300    Y=              6.5717    Z=              0.5305  Tot=              6.8423
 Quadrupole moment (field-independent basis, Debye-Ang):
   XX=           -190.5028   YY=           -148.0589   ZZ=           -128.1042
   XY=              3.8827   XZ=              3.5261   YZ=              1.7953

 Summary of Natural Population Analysis:

                                       Natural Population
                Natural  -----------------------------------------------
    Atom  No    Charge         Core      Valence    Rydberg      Total
 -----------------------------------------------------------------------
      C    1   -0.27920      0.99963     2.27241    0.00717     3.27920
      C    2   -0.05591      0.99955     2.04435    0.01201     3.05591
      C    3   -0.28690      0.99964     2.27948    0.00778     3.28690
      C    4   -0.27929      0.99963     2.27253    0.00713     3.27929
      C    5    0.01926      0.99949     1.96862    0.01263     2.98074
      C    6   -0.13656      0.99946     2.12772    0.00938     3.13656
      C    7    0.20615      0.99953     1.77800    0.01632     2.79385
      N    8   -0.27639      0.99968     2.76643    0.01028     3.77639
      C    9    0.03850      0.99959     1.94821    0.01370     2.96150
      C   10   -0.15193      0.99950     2.14457    0.00787     3.15193
      N   11   -0.30910      0.99966     2.79643    0.01301     3.80910
      C   12   -0.02016      0.99960     2.00468    0.01588     3.02016
      C   13   -0.20735      0.99962     2.19957    0.00816     3.20735
      C   14   -0.01278      0.99960     2.00261    0.01057     3.01278
      O   15   -0.30070      0.99990     3.29267    0.00813     4.30070
      C   16   -0.01598      0.99958     2.00315    0.01326     3.01598
      H   17    0.09911      0.00000     0.39985    0.00104     0.40089
      H   18    0.10431      0.00000     0.39434    0.00135     0.39569
      H   19    0.10026      0.00000     0.39882    0.00092     0.39974
      H   20    0.10273      0.00000     0.39632    0.00094     0.39727
      H   21    0.10056      0.00000     0.39846    0.00098     0.39944
      H   22    0.10055      0.00000     0.39848    0.00097     0.39945
      H   23    0.10372      0.00000     0.39506    0.00122     0.39628
      H   24    0.10018      0.00000     0.39893    0.00088     0.39982
      H   25    0.09943      0.00000     0.39953    0.00104     0.40057
      H   26    0.10718      0.00000     0.39033    0.00248     0.39282
      H   27    0.08599      0.00000     0.41299    0.00102     0.41401
      H   28    0.10518      0.00000     0.39383    0.00098     0.39482
      H   29    0.19940      0.00000     0.29070    0.00990     0.30060
      H   30    0.10420      0.00000     0.39291    0.00289     0.39580
      H   31    0.09727      0.00000     0.40167    0.00106     0.40273
      H   32    0.11160      0.00000     0.38731    0.00109     0.38840
      H   33    0.08539      0.00000     0.41321    0.00140     0.41461
      H   34    0.08468      0.00000     0.41417    0.00115     0.41532
      H   35    0.08998      0.00000     0.40869    0.00134     0.41002
      H   36    0.08660      0.00000     0.41189    0.00151     0.41340
 =======================================================================
   * Total *    0.00000     15.99364    43.79890    0.20746    60.00000

 Normal termination of Gaussian 16 at Fri Dec 11 00:12:38 2020.
