 Gaussian 16, Revision A.03,

 -----------------------------------------------------------
 # opt freq B3LYP/6-31G(d) empiricaldispersion=gd3bj scf=xqc
 -----------------------------------------------------------

 -------------------------------
 CID_113988985_JID_8804_neutraal
 -------------------------------
 Symbolic Z-matrix:
 Charge =  0 Multiplicity = 1

 SCF Done:  E(RB3LYP) =  -785.878266582     A.U. after   14 cycles
 SCF Done:  E(RB3LYP) =  -785.883720083     A.U. after   12 cycles
 SCF Done:  E(RB3LYP) =  -785.883998595     A.U. after   11 cycles
 SCF Done:  E(RB3LYP) =  -785.884022842     A.U. after   10 cycles
 SCF Done:  E(RB3LYP) =  -785.884027662     A.U. after    9 cycles
 SCF Done:  E(RB3LYP) =  -785.884031407     A.U. after   10 cycles
 SCF Done:  E(RB3LYP) =  -785.884032973     A.U. after    9 cycles
 SCF Done:  E(RB3LYP) =  -785.884033385     A.U. after    8 cycles
 SCF Done:  E(RB3LYP) =  -785.884033419     A.U. after    7 cycles
 Optimization completed.
    -- Stationary point found.
 Normal termination of Gaussian 16 at Fri Dec 11 22:07:05 2020.

 --------------------------------------------------------------------
 #N Geom=AllCheck Guess=TCheck SCRF=Check GenChk RB3LYP/6-31G(d) Freq
 --------------------------------------------------------------------

 Structure from the checkpoint file:  "JID_8804.chk"
 -------------------------------
 CID_113988985_JID_8804_neutraal
 -------------------------------
 Charge =  0 Multiplicity = 1

 SCF Done:  E(RB3LYP) =  -785.884033419     A.U. after    1 cycles

  Exact polarizability: 256.439  -7.857 150.335   2.000  -9.999  97.830
 Approx polarizability: 349.052 -13.978 253.717   9.466 -23.873 165.190

                      1                      2                      3
                      A                      A                      A
 Frequencies --     28.8462                40.6398                51.0488
 Red. masses --      5.7113                 4.1782                 4.9442
 Frc consts  --      0.0028                 0.0041                 0.0076
 IR Inten    --      0.0615                 0.8241                 0.2663

                      4                      5                      6
                      A                      A                      A
 Frequencies --    115.8613               130.8573               144.8128
 Red. masses --      3.6598                 3.4423                 5.8395
 Frc consts  --      0.0289                 0.0347                 0.0722
 IR Inten    --      0.9591                 0.7167                 1.2654

                      7                      8                      9
                      A                      A                      A
 Frequencies --    172.8151               224.6706               291.6573
 Red. masses --      5.7693                 2.4049                 5.1362
 Frc consts  --      0.1015                 0.0715                 0.2574
 IR Inten    --      0.5984                 4.0183                 2.3729

                     10                     11                     12
                      A                      A                      A
 Frequencies --    299.3326               303.4038               348.9169
 Red. masses --      4.4581                 1.1251                 4.4133
 Frc consts  --      0.2353                 0.0610                 0.3166
 IR Inten    --      3.3778               113.0289                 6.2078

                     13                     14                     15
                      A                      A                      A
 Frequencies --    360.5090               363.1971               417.8002
 Red. masses --      1.1345                 4.3395                 3.5092
 Frc consts  --      0.0869                 0.3373                 0.3609
 IR Inten    --    108.5237                10.4672                11.3900

                     16                     17                     18
                      A                      A                      A
 Frequencies --    420.9929               441.7298               460.5963
 Red. masses --      3.4162                 2.9921                 4.3104
 Frc consts  --      0.3567                 0.3440                 0.5388
 IR Inten    --      7.3134                 0.7620                 0.6632

                     19                     20                     21
                      A                      A                      A
 Frequencies --    478.0373               498.2721               529.1345
 Red. masses --      4.4673                 3.1061                 2.2661
 Frc consts  --      0.6015                 0.4544                 0.3738
 IR Inten    --      1.9764                33.7664                10.9525

                     22                     23                     24
                      A                      A                      A
 Frequencies --    542.6950               564.3265               598.5535
 Red. masses --      4.7515                 3.1021                 2.7282
 Frc consts  --      0.8245                 0.5821                 0.5759
 IR Inten    --      0.1974                56.3565                 6.9027

                     25                     26                     27
                      A                      A                      A
 Frequencies --    621.3090               651.7934               667.6055
 Red. masses --      2.4348                 3.9874                 4.3078
 Frc consts  --      0.5538                 0.9981                 1.1312
 IR Inten    --     76.8237                 7.0508                 2.5261

                     28                     29                     30
                      A                      A                      A
 Frequencies --    709.0109               721.8441               763.7762
 Red. masses --      4.2532                 3.5246                 5.5091
 Frc consts  --      1.2597                 1.0821                 1.8935
 IR Inten    --      3.5402                 2.6058                11.6478

                     31                     32                     33
                      A                      A                      A
 Frequencies --    792.1754               801.4262               804.8567
 Red. masses --      3.3794                 1.4411                 1.5790
 Frc consts  --      1.2495                 0.5454                 0.6027
 IR Inten    --     26.0329                 7.9345                23.7220

                     34                     35                     36
                      A                      A                      A
 Frequencies --    825.2822               829.9629               869.7078
 Red. masses --      2.3666                 1.7048                 2.0278
 Frc consts  --      0.9497                 0.6919                 0.9037
 IR Inten    --      5.4122                47.0193                 2.3138

                     37                     38                     39
                      A                      A                      A
 Frequencies --    878.7244               886.3989               900.7505
 Red. masses --      2.6828                 1.6827                 1.2923
 Frc consts  --      1.2205                 0.7789                 0.6178
 IR Inten    --      6.8012                15.7142                 0.6214

                     40                     41                     42
                      A                      A                      A
 Frequencies --    932.3727               941.1260               955.7978
 Red. masses --      1.2957                 1.2950                 3.3352
 Frc consts  --      0.6637                 0.6758                 1.7952
 IR Inten    --      0.0340                 0.3406                21.4253

                     43                     44                     45
                      A                      A                      A
 Frequencies --    973.7438               995.2608              1029.9702
 Red. masses --      2.2928                 2.7965                 2.6032
 Frc consts  --      1.2809                 1.6321                 1.6271
 IR Inten    --      0.8952                 4.2991                 0.0233

                     46                     47                     48
                      A                      A                      A
 Frequencies --   1061.9798              1109.8892              1133.2973
 Red. masses --      2.2389                 2.7721                 1.7691
 Frc consts  --      1.4877                 2.0120                 1.3387
 IR Inten    --     11.4312                10.3280                17.1843

                     49                     50                     51
                      A                      A                      A
 Frequencies --   1155.2097              1169.4941              1184.8035
 Red. masses --      1.6898                 1.4016                 1.5309
 Frc consts  --      1.3286                 1.1295                 1.2662
 IR Inten    --     60.9495                 7.0477                22.0810

                     52                     53                     54
                      A                      A                      A
 Frequencies --   1200.7519              1208.5621              1210.3364
 Red. masses --      1.3462                 1.1415                 1.3819
 Frc consts  --      1.1435                 0.9823                 1.1927
 IR Inten    --     51.2088                18.3828               181.5682

                     55                     56                     57
                      A                      A                      A
 Frequencies --   1217.7735              1246.2721              1286.3119
 Red. masses --      1.4238                 1.6150                 1.7472
 Frc consts  --      1.2440                 1.4779                 1.7033
 IR Inten    --     89.4571                13.6846               109.9806

                     58                     59                     60
                      A                      A                      A
 Frequencies --   1296.8729              1307.7946              1319.4386
 Red. masses --      1.5730                 2.9691                 1.9997
 Frc consts  --      1.5588                 2.9919                 2.0511
 IR Inten    --      8.2422                69.5930                43.1098

                     61                     62                     63
                      A                      A                      A
 Frequencies --   1322.4742              1333.0349              1343.0943
 Red. masses --      1.7835                 2.1311                 1.9402
 Frc consts  --      1.8378                 2.2312                 2.0621
 IR Inten    --     47.6079                24.6054                38.0544

                     64                     65                     66
                      A                      A                      A
 Frequencies --   1352.5493              1376.9171              1390.0507
 Red. masses --      1.7090                 1.4582                 2.4835
 Frc consts  --      1.8421                 1.6289                 2.8273
 IR Inten    --     10.5256                 9.9611               107.9381

                     67                     68                     69
                      A                      A                      A
 Frequencies --   1395.4891              1475.7559              1505.6767
 Red. masses --      3.2443                 2.1744                 1.8736
 Frc consts  --      3.7224                 2.7900                 2.5026
 IR Inten    --     60.3080               114.1806                18.2405

                     70                     71                     72
                      A                      A                      A
 Frequencies --   1512.5875              1524.9453              1541.9916
 Red. masses --      1.4719                 1.1207                 1.6616
 Frc consts  --      1.9841                 1.5355                 2.3278
 IR Inten    --      4.5401                 2.1830                 4.2094

                     73                     74                     75
                      A                      A                      A
 Frequencies --   1546.3002              1571.0479              1652.2125
 Red. masses --      2.9385                 2.7072                 6.8105
 Frc consts  --      4.1397                 3.9369                10.9537
 IR Inten    --     54.0226               385.2386                38.1948

                     76                     77                     78
                      A                      A                      A
 Frequencies --   1655.7149              1681.4064              1691.2292
 Red. masses --      5.3940                 6.6139                 6.1450
 Frc consts  --      8.7123                11.0167                10.3556
 IR Inten    --      7.8074                47.0959                 6.0657

                     79                     80                     81
                      A                      A                      A
 Frequencies --   3018.8017              3032.4121              3060.6407
 Red. masses --      1.0827                 1.0691                 1.0676
 Frc consts  --      5.8135                 5.7921                 5.8920
 IR Inten    --     21.4423                31.7252                25.2110

                     82                     83                     84
                      A                      A                      A
 Frequencies --   3090.6387              3126.5431              3161.6921
 Red. masses --      1.0933                 1.0997                 1.0869
 Frc consts  --      6.1528                 6.3339                 6.4016
 IR Inten    --     32.1801                31.7748                29.6213

                     85                     86                     87
                      A                      A                      A
 Frequencies --   3167.2488              3181.6793              3203.2289
 Red. masses --      1.0889                 1.0937                 1.0924
 Frc consts  --      6.4355                 6.5231                 6.6041
 IR Inten    --     24.7223                19.2301                11.6309

                     88                     89                     90
                      A                      A                      A
 Frequencies --   3206.4351              3207.6653              3222.7961
 Red. masses --      1.0874                 1.0912                 1.0933
 Frc consts  --      6.5868                 6.6153                 6.6907
 IR Inten    --     17.8136                 5.7176                12.0653

                     91                     92                     93
                      A                      A                      A
 Frequencies --   3547.6359              3752.4497              3757.2620
 Red. masses --      1.0749                 1.0659                 1.0659
 Frc consts  --      7.9709                 8.8428                 8.8660
 IR Inten    --      5.5519                47.0315                43.1037

 - Thermochemistry -
 -------------------
 Temperature   298.150 Kelvin.  Pressure   1.00000 Atm.
 Atom     1 has atomic number  6 and mass  12.00000

 Molecular mass:   241.11028 amu.
 Principal axes and moments of inertia in atomic units:
                           1         2         3
     Eigenvalues --  1215.85532********************
           X            1.00000   0.00108  -0.00145
           Y           -0.00109   0.99996  -0.00852
           Z            0.00144   0.00852   0.99996
 This molecule is an asymmetric top.
 Rotational symmetry number  1.
 Warning -- assumption of classical behavior for rotation
           may cause significant error
 Rotational temperatures (Kelvin)      0.07124     0.00777     0.00727
 Rotational constants (GHZ):           1.48434     0.16188     0.15157
 Zero-point vibrational energy     712376.2 (Joules/Mol)
                                  170.26199 (Kcal/Mol)
 Warning -- explicit consideration of  24 degrees of freedom as
           vibrations may cause significant error
 Vibrational temperatures:     41.50    58.47    73.45   166.70   188.27
          (Kelvin)            208.35   248.64   323.25   419.63   430.67
                              436.53   502.01   518.69   522.56   601.12
                              605.71   635.55   662.70   687.79   716.90
                              761.31   780.82   811.94   861.18   893.93
                              937.79   960.54  1020.11  1038.57  1098.90
                             1139.76  1153.07  1158.01  1187.40  1194.13
                             1251.32  1264.29  1275.33  1295.98  1341.48
                             1354.07  1375.18  1401.00  1431.96  1481.90
                             1527.95  1596.88  1630.56  1662.09  1682.64
                             1704.67  1727.61  1738.85  1741.40  1752.10
                             1793.11  1850.72  1865.91  1881.62  1898.38
                             1902.75  1917.94  1932.41  1946.02  1981.08
                             1999.97  2007.80  2123.28  2166.33  2176.28
                             2194.06  2218.58  2224.78  2260.39  2377.17
                             2382.20  2419.17  2433.30  4343.38  4362.96
                             4403.58  4446.74  4498.40  4548.97  4556.96
                             4577.73  4608.73  4613.34  4615.11  4636.88
                             5104.26  5398.94  5405.86

 Zero-point correction=                           0.271330 (Hartree/Particle)
 Thermal correction to Energy=                    0.286456
 Thermal correction to Enthalpy=                  0.287400
 Thermal correction to Gibbs Free Energy=         0.228264
 Sum of electronic and zero-point Energies=           -785.612704
 Sum of electronic and thermal Energies=              -785.597577
 Sum of electronic and thermal Enthalpies=            -785.596633
 Sum of electronic and thermal Free Energies=         -785.655770

                     E (Thermal)             CV                S
                      KCal/Mol        Cal/Mol-Kelvin    Cal/Mol-Kelvin
 Total                  179.754             61.086            124.463
 Electronic               0.000              0.000              0.000
 Translational            0.889              2.981             42.341
 Rotational               0.889              2.981             33.445
 Vibrational            177.976             55.125             48.677
 Vibration     1          0.593              1.984              5.907
 Vibration     2          0.594              1.981              5.228
 Vibration     3          0.595              1.977              4.776
 Vibration     4          0.608              1.936              3.168
 Vibration     5          0.612              1.922              2.933
 Vibration     6          0.616              1.908              2.739
 Vibration     7          0.626              1.876              2.405
 Vibration     8          0.649              1.803              1.921
 Vibration     9          0.687              1.689              1.464
 Vibration    10          0.692              1.675              1.421
 Vibration    11          0.695              1.667              1.398
 Vibration    12          0.726              1.577              1.171
 Vibration    13          0.735              1.554              1.120
 Vibration    14          0.737              1.548              1.108
 Vibration    15          0.781              1.432              0.899
 Vibration    16          0.783              1.425              0.889
 Vibration    17          0.801              1.379              0.821
 Vibration    18          0.818              1.337              0.764
 Vibration    19          0.835              1.299              0.715
 Vibration    20          0.854              1.254              0.662
 Vibration    21          0.884              1.186              0.589
 Vibration    22          0.898              1.156              0.560
 Vibration    23          0.920              1.108              0.515
 Vibration    24          0.957              1.035              0.452

 Optimization completed.
    -- Stationary point found.
 Normal termination of Gaussian 16 at Fri Dec 11 22:18:28 2020.

 ----------------------------------------------------------------------
 # B3LYP/6-311++G(d,p) empiricaldispersion=gd3bj scf=xqc pop=npa geom=c
 heck
 ----------------------------------------------------------------------

 ---------------------------------------
 CID_113988985_JID_8804_Energie_neutraal
 ---------------------------------------
 Structure from the checkpoint file:  "JID_8804.chk"
 Charge =  0 Multiplicity = 1

 SCF Done:  E(RB3LYP) =  -786.110187275     A.U. after   15 cycles
 Normal termination of Gaussian 16 at Fri Dec 11 22:23:31 2020.

 ----------------------------------------------------------------------
 # B3LYP/6-311++G(d,p) empiricaldispersion=gd3bj scf=xqc pop=npa geom=c
 heck
 ----------------------------------------------------------------------

 -------------------------------------
 CID_113988985_JID_8804_Energie_kation
 -------------------------------------
 Structure from the checkpoint file:  "JID_8804.chk"
 Charge =  1 Multiplicity = 2

 SCF Done:  E(UB3LYP) =  -785.855057704     A.U. after   22 cycles
 Normal termination of Gaussian 16 at Fri Dec 11 22:33:36 2020.
 Gaussian 16:  ES64L-G16RevA.03 25-Dec-2016

 ----------------------------------------------------------------------
 # B3LYP/6-311++G(d,p) empiricaldispersion=gd3bj scf=xqc pop=npa geom=c
 heck
 ----------------------------------------------------------------------

 ------------------------------------
 CID_113988985_JID_8804_Energie_anion
 ------------------------------------
 Structure from the checkpoint file:  "JID_8804.chk"
 Charge = -1 Multiplicity = 2

                         Standard orientation:
 ---------------------------------------------------------------------
 Center     Atomic      Atomic             Coordinates (Angstroms)
 Number     Number       Type             X           Y           Z
 ---------------------------------------------------------------------
      1          6           0        0.363061    1.711354    0.488112
      2          6           0        1.814893    2.234574    0.387240
      3          6           0        2.617148    0.973586    0.147221
      4          6           0        1.777089   -0.061183   -0.282271
      5          6           0        0.340270    0.407436   -0.364573
      6          7           0       -0.586125   -0.630698    0.056607
      7          6           0       -1.972708   -0.416878    0.035335
      8          6           0       -2.581775    0.544373   -0.789376
      9          6           0       -3.966896    0.683022   -0.828031
     10          6           0       -4.782835   -0.128140   -0.039355
     11          6           0       -4.191432   -1.083541    0.790470
     12          6           0       -2.807002   -1.223738    0.825276
     13          8           0       -6.142338    0.059925   -0.115037
     14          6           0        2.298403   -1.315550   -0.577219
     15          6           0        3.670561   -1.534530   -0.434643
     16          6           0        4.507501   -0.495853   -0.006807
     17          6           0        3.983913    0.770095    0.285893
     18          8           0        5.856740   -0.663611    0.151806
     19          1           0        0.140764    1.435866    1.526275
     20          1           0       -0.385979    2.442719    0.174074
     21          1           0        2.134368    2.785920    1.278287
     22          1           0        1.923888    2.920061   -0.465231
     23          1           0        0.099589    0.654368   -1.408402
     24          1           0       -0.273400   -1.086262    0.907341
     25          1           0       -1.975461    1.194192   -1.410090
     26          1           0       -4.428874    1.428650   -1.467204
     27          1           0       -4.812271   -1.722677    1.415985
     28          1           0       -2.362789   -1.977400    1.471608
     29          1           0       -6.573647   -0.569406    0.482547
     30          1           0        1.643691   -2.117625   -0.905884
     31          1           0        4.094276   -2.513246   -0.652182
     32          1           0        4.654984    1.554576    0.622091
     33          1           0        6.087368   -1.575537   -0.083260
 ---------------------------------------------------------------------

 SCF Done:  E(UB3LYP) =  -786.101603868     A.U. after   33 cycles
 SCF Done:  E(UB3LYP) =  -786.101603868     a.u. after    1 cycles

 The electronic state is 2-A.
 Alpha  occ. eigenvalues --  -19.06171 -19.05751 -14.23549 -10.15129 -10.13919
 Alpha  occ. eigenvalues --  -10.13134 -10.12406 -10.10079 -10.09871 -10.09338
 Alpha  occ. eigenvalues --  -10.09312 -10.08733 -10.08721 -10.08716 -10.08703
 Alpha  occ. eigenvalues --  -10.08680 -10.08630 -10.08542  -0.97247  -0.96637
 Alpha  occ. eigenvalues --   -0.85555  -0.78889  -0.75624  -0.72466  -0.67852
 Alpha  occ. eigenvalues --   -0.66535  -0.64352  -0.63385  -0.60331  -0.54324
 Alpha  occ. eigenvalues --   -0.53544  -0.52338  -0.51504  -0.50158  -0.46058
 Alpha  occ. eigenvalues --   -0.44773  -0.43926  -0.41730  -0.39746  -0.39263
 Alpha  occ. eigenvalues --   -0.37702  -0.36316  -0.35758  -0.34468  -0.34102
 Alpha  occ. eigenvalues --   -0.33620  -0.32768  -0.32380  -0.31927  -0.31100
 Alpha  occ. eigenvalues --   -0.29764  -0.28916  -0.28626  -0.28317  -0.27496
 Alpha  occ. eigenvalues --   -0.26203  -0.25576  -0.24997  -0.23834  -0.19243
 Alpha  occ. eigenvalues --   -0.17183  -0.16966  -0.13792  -0.10621   0.03674
 Alpha virt. eigenvalues --    0.04626   0.05646   0.06285   0.06765   0.07145
 Alpha virt. eigenvalues --    0.07470   0.08235   0.08356   0.08613   0.09018
 Alpha virt. eigenvalues --    0.09607   0.09952   0.10395   0.11254   0.11619

  Beta  occ. eigenvalues --  -19.06114 -19.05706 -14.23545 -10.15130 -10.13920
  Beta  occ. eigenvalues --  -10.13132 -10.12406 -10.10075 -10.09869 -10.09332
  Beta  occ. eigenvalues --  -10.09308 -10.08731 -10.08717 -10.08710 -10.08693
  Beta  occ. eigenvalues --  -10.08646 -10.08603 -10.08535  -0.97139  -0.96552
  Beta  occ. eigenvalues --   -0.85548  -0.78877  -0.75603  -0.72444  -0.67831
  Beta  occ. eigenvalues --   -0.66509  -0.64323  -0.63355  -0.60305  -0.54283
  Beta  occ. eigenvalues --   -0.53519  -0.52297  -0.51439  -0.50126  -0.46006
  Beta  occ. eigenvalues --   -0.44718  -0.43881  -0.41698  -0.39718  -0.39232
  Beta  occ. eigenvalues --   -0.37677  -0.36284  -0.35727  -0.34445  -0.34068
  Beta  occ. eigenvalues --   -0.33588  -0.32745  -0.32347  -0.31897  -0.31080
  Beta  occ. eigenvalues --   -0.29726  -0.28887  -0.28602  -0.28294  -0.27476
  Beta  occ. eigenvalues --   -0.26181  -0.25547  -0.24977  -0.23808  -0.19225
  Beta  occ. eigenvalues --   -0.17167  -0.16943  -0.13767  -0.10608
  Beta virt. eigenvalues --    0.05528   0.06097   0.06554   0.06783   0.06878
  Beta virt. eigenvalues --    0.07470   0.07552   0.08321   0.08372   0.09011
  Beta virt. eigenvalues --    0.09092   0.09701   0.09946   0.10545   0.11300

 Mulliken charges and spin densities:
               1          2
     1  C   -0.187539  -0.074066
     2  C   -0.287907  -0.432608
     3  C   -1.155040   1.349675
     4  C   -0.353351   0.257728
     5  C    0.826370  -1.095173
     6  N    0.253652  -0.030027
     7  C   -0.000257  -0.426538
     8  C    0.747165  -0.331056
     9  C   -0.407482   0.210101
    10  C    1.333135  -1.857588
    11  C   -0.292794   0.349219
    12  C   -0.866687   0.794319
    13  O   -0.285456   0.039212
    14  C    0.084502  -0.000311
    15  C   -0.475161   0.625923
    16  C    1.320197  -1.998098
    17  C    0.467326  -0.571179
    18  O   -0.253498   0.031874
    19  H    0.103468   0.085211
    20  H    0.162824  -0.027861
    21  H    0.147718   0.010696
    22  H    0.105664   0.060442
    23  H    0.081923   0.055949
    24  H    0.232803  -0.060690
    25  H    0.110933   0.030111
    26  H    0.110663   0.069682
    27  H   -0.961513   1.132990
    28  H   -0.084170   0.225425
    29  H   -0.196674   0.471961
    30  H    0.128247   0.058292
    31  H   -1.070158   1.254540
    32  H    0.083907   0.083081
    33  H   -0.422810   0.708764
 Sum of Mulliken charges =  -1.00000   1.00000

 Dipole moment (field-independent basis, Debye):
    X=              0.2205    Y=              7.2936    Z=             -0.8659  Tot=              7.3482
 Quadrupole moment (field-independent basis, Debye-Ang):
   XX=           -290.5615   YY=           -143.0949   ZZ=           -130.0293
   XY=             14.0517   XZ=             14.4816   YZ=              0.0757

 Summary of Natural Population Analysis:

                                       Natural Population
                Natural  -----------------------------------------------
    Atom  No    Charge         Core      Valence    Rydberg      Total
 -----------------------------------------------------------------------
      C    1   -0.19027      0.99963     2.18388    0.00676     3.19027
      C    2   -0.19704      0.99961     2.19031    0.00712     3.19704
      C    3   -0.00352      0.99948     1.99579    0.00825     3.00352
      C    4   -0.03895      0.99945     2.02900    0.01050     3.03895
      C    5   -0.01206      0.99955     2.00121    0.01129     3.01206
      N    6   -0.31501      0.99968     2.80502    0.01032     3.81501
      C    7    0.07519      0.99949     1.91454    0.01078     2.92481
      C    8   -0.12319      0.99953     2.11669    0.00696     3.12319
      C    9   -0.11652      0.99953     2.10797    0.00902     3.11652
      C   10    0.14036      0.99937     1.84648    0.01378     2.85964
      C   11   -0.12624      0.99953     2.11619    0.01053     3.12624
      C   12   -0.11051      0.99954     2.10179    0.00918     3.11051
      O   13   -0.34489      0.99988     3.33799    0.00703     4.34489
      C   14   -0.08704      0.99951     2.07781    0.00972     3.08704
      C   15   -0.13505      0.99953     2.12495    0.01057     3.13505
      C   16    0.16432      0.99940     1.82215    0.01414     2.83568
      C   17   -0.12589      0.99946     2.11740    0.00903     3.12589
      O   18   -0.34045      0.99988     3.33336    0.00722     4.34045
      H   19    0.09852      0.00000     0.40030    0.00119     0.40148
      H   20    0.10139      0.00000     0.39760    0.00101     0.39861
      H   21    0.10230      0.00000     0.39642    0.00128     0.39770
      H   22    0.10044      0.00000     0.39811    0.00144     0.39956
      H   23    0.09554      0.00000     0.40287    0.00159     0.40446
      H   24    0.18221      0.00000     0.31542    0.00237     0.31779
      H   25    0.09946      0.00000     0.39923    0.00131     0.40054
      H   26    0.10381      0.00000     0.39537    0.00082     0.39619
      H   27    0.10501      0.00000     0.39201    0.00298     0.39499
      H   28    0.09924      0.00000     0.39943    0.00133     0.40076
      H   29    0.23856      0.00000     0.25284    0.00860     0.26144
      H   30    0.10714      0.00000     0.39170    0.00115     0.39286
      H   31    0.10644      0.00000     0.39063    0.00293     0.39356
      H   32    0.10462      0.00000     0.39419    0.00120     0.39538
      H   33    0.24210      0.00000     0.24046    0.01743     0.25790
 =======================================================================
   * Total *   -0.00000     17.99205    45.78912    0.21882    64.00000

 Normal termination of Gaussian 16 at Fri Dec 11 22:49:18 2020.
