 Gaussian 16, Revision A.03,

 -----------------------------------------------------------
 # opt freq B3LYP/6-31G(d) empiricaldispersion=gd3bj scf=xqc
 -----------------------------------------------------------

 ------------------------------
 CID_61688508_JID_8296_neutraal
 ------------------------------
 Symbolic Z-matrix:
 Charge =  0 Multiplicity = 1

 SCF Done:  E(RB3LYP) =  -880.895118318     A.U. after   14 cycles
 SCF Done:  E(RB3LYP) =  -880.893108680     A.U. after   12 cycles
 SCF Done:  E(RB3LYP) =  -880.899427163     A.U. after   12 cycles
 SCF Done:  E(RB3LYP) =  -880.900104341     A.U. after   12 cycles
 SCF Done:  E(RB3LYP) =  -880.900825995     A.U. after   12 cycles
 SCF Done:  E(RB3LYP) =  -880.901192594     A.U. after   11 cycles
 SCF Done:  E(RB3LYP) =  -880.901734283     A.U. after   12 cycles
 SCF Done:  E(RB3LYP) =  -880.902161993     A.U. after   11 cycles
 SCF Done:  E(RB3LYP) =  -880.902278379     A.U. after   11 cycles
 SCF Done:  E(RB3LYP) =  -880.902268406     A.U. after   12 cycles
 SCF Done:  E(RB3LYP) =  -880.902720501     A.U. after    8 cycles
 SCF Done:  E(RB3LYP) =  -880.902720656     A.U. after    7 cycles
 SCF Done:  E(RB3LYP) =  -880.902720753     A.U. after    7 cycles
 SCF Done:  E(RB3LYP) =  -880.902720816     A.U. after    7 cycles
 SCF Done:  E(RB3LYP) =  -880.902720842     A.U. after    6 cycles
 Optimization completed.
    -- Stationary point found.
 Normal termination of Gaussian 16 at Fri Dec 11 20:20:28 2020.

 --------------------------------------------------------------------
 #N Geom=AllCheck Guess=TCheck SCRF=Check GenChk RB3LYP/6-31G(d) Freq
 --------------------------------------------------------------------

 Structure from the checkpoint file:  "JID_8296.chk"
 ------------------------------
 CID_61688508_JID_8296_neutraal
 ------------------------------
 Charge =  0 Multiplicity = 1

 SCF Done:  E(RB3LYP) =  -880.902720842     A.U. after    1 cycles

  Exact polarizability: 161.101 -14.187 139.838 -10.927  -1.564 144.220
 Approx polarizability: 217.737 -28.723 203.207 -15.248  -7.103 218.917

                      1                      2                      3
                      A                      A                      A
 Frequencies --     19.9479                25.7031                29.5084
 Red. masses --      3.7224                 4.3859                 3.6695
 Frc consts  --      0.0009                 0.0017                 0.0019
 IR Inten    --      0.3248                 0.6115                 0.3644

                      4                      5                      6
                      A                      A                      A
 Frequencies --     59.0661                73.4603                82.8736
 Red. masses --      4.1473                 3.5390                 4.0107
 Frc consts  --      0.0085                 0.0113                 0.0162
 IR Inten    --      0.8300                 3.5085                 4.2545

                      7                      8                      9
                      A                      A                      A
 Frequencies --     92.0178               101.4955               105.8610
 Red. masses --      3.0390                 1.8200                 1.9067
 Frc consts  --      0.0152                 0.0110                 0.0126
 IR Inten    --      0.6945                 0.3257                 2.1671

                     10                     11                     12
                      A                      A                      A
 Frequencies --    138.4767               163.7838               188.5306
 Red. masses --      2.8429                 4.1353                 3.8467
 Frc consts  --      0.0321                 0.0654                 0.0806
 IR Inten    --      5.1947                 0.9198                 2.4103

                     13                     14                     15
                      A                      A                      A
 Frequencies --    200.3333               220.9825               234.2043
 Red. masses --      2.0665                 3.8138                 1.9411
 Frc consts  --      0.0489                 0.1097                 0.0627
 IR Inten    --      0.6686                 6.4639                 6.7157

                     16                     17                     18
                      A                      A                      A
 Frequencies --    255.0329               274.6550               297.7172
 Red. masses --      2.3878                 3.1965                 2.4404
 Frc consts  --      0.0915                 0.1421                 0.1274
 IR Inten    --      0.8247                 1.2947                 1.1492

                     19                     20                     21
                      A                      A                      A
 Frequencies --    322.0338               351.3158               364.6178
 Red. masses --      2.1936                 3.1090                 2.7371
 Frc consts  --      0.1340                 0.2261                 0.2144
 IR Inten    --      5.8758                 2.1422                 3.2373

                     22                     23                     24
                      A                      A                      A
 Frequencies --    393.1318               415.8359               444.8152
 Red. masses --      2.4478                 3.6570                 2.9744
 Frc consts  --      0.2229                 0.3726                 0.3467
 IR Inten    --      0.5925                 6.3171                 2.1470

                     25                     26                     27
                      A                      A                      A
 Frequencies --    467.9124               500.7675               554.5266
 Red. masses --      3.2954                 3.2122                 2.0909
 Frc consts  --      0.4251                 0.4746                 0.3788
 IR Inten    --      5.3790                 4.5686                 6.4923

                     28                     29                     30
                      A                      A                      A
 Frequencies --    576.2075               610.7010               637.4160
 Red. masses --      1.1962                 3.2811                 5.2161
 Frc consts  --      0.2340                 0.7210                 1.2487
 IR Inten    --     61.5256                20.5547                 1.3768

                     31                     32                     33
                      A                      A                      A
 Frequencies --    639.3777               721.2662               776.9337
 Red. masses --      3.0774                 4.3276                 2.6707
 Frc consts  --      0.7412                 1.3264                 0.9498
 IR Inten    --      8.1630                 4.6052                12.5611

                     34                     35                     36
                      A                      A                      A
 Frequencies --    803.3407               813.7254               840.8787
 Red. masses --      1.2398                 1.5475                 2.6941
 Frc consts  --      0.4714                 0.6037                 1.1223
 IR Inten    --      5.1864                20.8093                26.9797

                     37                     38                     39
                      A                      A                      A
 Frequencies --    843.0185               870.5141               898.6011
 Red. masses --      2.1736                 2.6017                 1.8241
 Frc consts  --      0.9101                 1.1616                 0.8678
 IR Inten    --      6.8072                 9.3425                34.5718

                     40                     41                     42
                      A                      A                      A
 Frequencies --    914.8585               946.2313               952.2986
 Red. masses --      3.4487                 1.9275                 2.2578
 Frc consts  --      1.7006                 1.0168                 1.2064
 IR Inten    --     13.4955                28.5404                14.8869

                     43                     44                     45
                      A                      A                      A
 Frequencies --    969.1621              1007.2706              1013.4289
 Red. masses --      2.4396                 2.5929                 3.2383
 Frc consts  --      1.3501                 1.5500                 1.9595
 IR Inten    --     50.3199                18.8043                 7.3487

                     46                     47                     48
                      A                      A                      A
 Frequencies --   1018.6339              1038.0490              1044.0662
 Red. masses --      2.2181                 2.1070                 2.8440
 Frc consts  --      1.3560                 1.3377                 1.8266
 IR Inten    --      9.8843                 1.4130                15.2223

                     49                     50                     51
                      A                      A                      A
 Frequencies --   1067.7056              1075.9666              1080.4272
 Red. masses --      2.2512                 2.3741                 1.5075
 Frc consts  --      1.5120                 1.6193                 1.0368
 IR Inten    --     36.7388                45.9400                 3.8564

                     52                     53                     54
                      A                      A                      A
 Frequencies --   1106.9003              1114.2787              1120.1250
 Red. masses --      2.1227                 2.8675                 2.3628
 Frc consts  --      1.5323                 2.0977                 1.7466
 IR Inten    --     11.4972                38.2675                11.6353

                     55                     56                     57
                      A                      A                      A
 Frequencies --   1144.3283              1152.5800              1163.5768
 Red. masses --      2.5862                 3.3291                 2.7400
 Frc consts  --      1.9954                 2.6057                 2.1857
 IR Inten    --     40.3404               160.8119                14.0712

                     58                     59                     60
                      A                      A                      A
 Frequencies --   1165.3533              1195.5270              1218.3567
 Red. masses --      2.1705                 2.2695                 1.8839
 Frc consts  --      1.7367                 1.9111                 1.6477
 IR Inten    --     56.2645                27.0198                13.4709

                     61                     62                     63
                      A                      A                      A
 Frequencies --   1249.1793              1269.1286              1272.5690
 Red. masses --      1.2414                 1.1117                 1.3850
 Frc consts  --      1.1413                 1.0550                 1.3215
 IR Inten    --      0.3854                 1.9711                59.1880

                     64                     65                     66
                      A                      A                      A
 Frequencies --   1306.3742              1310.2826              1337.1481
 Red. masses --      2.2512                 1.5249                 1.1279
 Frc consts  --      2.2636                 1.5425                 1.1882
 IR Inten    --      2.9013                23.6419                 7.4995

                     67                     68                     69
                      A                      A                      A
 Frequencies --   1341.9278              1358.8276              1378.2672
 Red. masses --      1.3248                 1.1382                 1.2767
 Frc consts  --      1.4056                 1.2382                 1.4289
 IR Inten    --      6.4275                23.3462                10.8939

                     70                     71                     72
                      A                      A                      A
 Frequencies --   1381.9396              1402.1136              1408.2925
 Red. masses --      1.2585                 1.3232                 1.2534
 Frc consts  --      1.4160                 1.5327                 1.4646
 IR Inten    --     10.9629                 4.7390                 9.6317

                     73                     74                     75
                      A                      A                      A
 Frequencies --   1422.2954              1437.3665              1440.8696
 Red. masses --      1.2378                 1.3045                 1.2641
 Frc consts  --      1.4753                 1.5879                 1.5462
 IR Inten    --      0.2009                 0.8719                 2.5240

                     76                     77                     78
                      A                      A                      A
 Frequencies --   1444.6035              1450.6556              1461.8301
 Red. masses --      1.3125                 1.3922                 3.0108
 Frc consts  --      1.6138                 1.7262                 3.7908
 IR Inten    --     19.1245                 4.3794                63.6574

                     79                     80                     81
                      A                      A                      A
 Frequencies --   1470.0931              1503.7649              1505.2840
 Red. masses --      1.4639                 1.0425                 1.0823
 Frc consts  --      1.8641                 1.3889                 1.4449
 IR Inten    --    102.7684                 7.3247                 3.3306

                     82                     83                     84
                      A                      A                      A
 Frequencies --   1516.9196              1518.4091              1519.9522
 Red. masses --      1.2875                 1.0933                 1.0444
 Frc consts  --      1.7456                 1.4851                 1.4216
 IR Inten    --     16.5056                 4.3571                 4.2171

                     85                     86                     87
                      A                      A                      A
 Frequencies --   1521.9535              1529.5802              1531.9951
 Red. masses --      1.0600                 1.0826                 2.3052
 Frc consts  --      1.4467                 1.4923                 3.1876
 IR Inten    --      2.9088                 2.5966                14.0764

                     88                     89                     90
                      A                      A                      A
 Frequencies --   1533.4150              1543.6599              1547.4749
 Red. masses --      1.3860                 1.0957                 1.0942
 Frc consts  --      1.9202                 1.5382                 1.5438
 IR Inten    --      7.9732                 6.9704                11.1936

                     91                     92                     93
                      A                      A                      A
 Frequencies --   1589.0275              1658.9611              2993.4817
 Red. masses --      1.1525                 6.4888                 1.0622
 Frc consts  --      1.7146                10.5217                 5.6081
 IR Inten    --     17.7767                53.8876                33.7559

                     94                     95                     96
                      A                      A                      A
 Frequencies --   3014.7269              3016.7725              3032.1437
 Red. masses --      1.0720                 1.0646                 1.0677
 Frc consts  --      5.7404                 5.7087                 5.7835
 IR Inten    --     49.8965                16.9133                34.3433

                     97                     98                     99
                      A                      A                      A
 Frequencies --   3047.9131              3055.8490              3058.8550
 Red. masses --      1.0822                 1.0471                 1.0372
 Frc consts  --      5.9233                 5.7610                 5.7179
 IR Inten    --     40.1877                46.4668                16.1442

                    100                    101                    102
                      A                      A                      A
 Frequencies --   3066.0389              3066.3611              3072.4715
 Red. masses --      1.0836                 1.0611                 1.0807
 Frc consts  --      6.0015                 5.8784                 6.0108
 IR Inten    --     12.0532                37.2680                48.1307

                    103                    104                    105
                      A                      A                      A
 Frequencies --   3074.4799              3095.6962              3112.9402
 Red. masses --      1.0761                 1.0980                 1.1064
 Frc consts  --      5.9928                 6.1996                 6.3170
 IR Inten    --     51.2985                32.7228                15.4179

                    106                    107                    108
                      A                      A                      A
 Frequencies --   3114.8161              3115.4279              3121.8981
 Red. masses --      1.1014                 1.0991                 1.1078
 Frc consts  --      6.2960                 6.2855                 6.3616
 IR Inten    --      9.2707                 7.9701                41.5817

                    109                    110                    111
                      A                      A                      A
 Frequencies --   3125.6740              3139.0829              3152.8569
 Red. masses --      1.1008                 1.0987                 1.1012
 Frc consts  --      6.3363                 6.3785                 6.4496
 IR Inten    --     24.2788                28.8513                 7.9892

                    112                    113                    114
                      A                      A                      A
 Frequencies --   3289.7347              3461.0550              3606.6323
 Red. masses --      1.0983                 1.0738                 1.0648
 Frc consts  --      7.0029                 7.5787                 8.1609
 IR Inten    --      0.3072               114.4239                86.0132

 - Thermochemistry -
 -------------------
 Temperature   298.150 Kelvin.  Pressure   1.00000 Atm.
 Atom     1 has atomic number  6 and mass  12.00000

 Molecular mass:   258.15796 amu.
 Principal axes and moments of inertia in atomic units:
                           1         2         3
     Eigenvalues --  3739.304625968.529856907.99432
           X            0.99960   0.01233  -0.02561
           Y           -0.01335   0.99911  -0.04003
           Z            0.02509   0.04036   0.99887
 This molecule is an asymmetric top.
 Rotational symmetry number  1.
 Warning -- assumption of classical behavior for rotation
           may cause significant error
 Rotational temperatures (Kelvin)      0.02316     0.01451     0.01254
 Rotational constants (GHZ):           0.48264     0.30238     0.26125
 Zero-point vibrational energy     914657.4 (Joules/Mol)
                                  218.60837 (Kcal/Mol)
 Warning -- explicit consideration of  29 degrees of freedom as
           vibrations may cause significant error
 Vibrational temperatures:     28.70    36.98    42.46    84.98   105.69
          (Kelvin)            119.24   132.39   146.03   152.31   199.24
                              235.65   271.25   288.23   317.94   336.97
                              366.94   395.17   428.35   463.33   505.47
                              524.60   565.63   598.30   639.99   673.22
                              720.49   797.84   829.03   878.66   917.10
                              919.92  1037.74  1117.83  1155.83  1170.77
                             1209.84  1212.92  1252.48  1292.89  1316.28
                             1361.42  1370.15  1394.41  1449.24  1458.10
                             1465.59  1493.52  1502.18  1536.19  1548.08
                             1554.49  1592.58  1603.20  1611.61  1646.43
                             1658.31  1674.13  1676.68  1720.10  1752.94
                             1797.29  1825.99  1830.94  1879.58  1885.20
                             1923.86  1930.73  1955.05  1983.02  1988.30
                             2017.33  2026.22  2046.37  2068.05  2073.09
                             2078.46  2087.17  2103.25  2115.14  2163.58
                             2165.77  2182.51  2184.65  2186.87  2189.75
                             2200.72  2204.20  2206.24  2220.98  2226.47
                             2286.26  2386.88  4306.95  4337.52  4340.46
                             4362.58  4385.27  4396.69  4401.01  4411.35
                             4411.81  4420.60  4423.49  4454.02  4478.83
                             4481.53  4482.41  4491.72  4497.15  4516.44
                             4536.26  4733.19  4979.69  5189.14

 Zero-point correction=                           0.348375 (Hartree/Particle)
 Thermal correction to Energy=                    0.367931
 Thermal correction to Enthalpy=                  0.368875
 Thermal correction to Gibbs Free Energy=         0.298048
 Sum of electronic and zero-point Energies=           -880.554346
 Sum of electronic and thermal Energies=              -880.534790
 Sum of electronic and thermal Enthalpies=            -880.533846
 Sum of electronic and thermal Free Energies=         -880.604673

                     E (Thermal)             CV                S
                      KCal/Mol        Cal/Mol-Kelvin    Cal/Mol-Kelvin
 Total                  230.880             71.281            149.069
 Electronic               0.000              0.000              0.000
 Translational            0.889              2.981             42.545
 Rotational               0.889              2.981             33.399
 Vibrational            229.103             65.319             73.124
 Vibration     1          0.593              1.986              6.639
 Vibration     2          0.593              1.985              6.136
 Vibration     3          0.593              1.984              5.862
 Vibration     4          0.596              1.974              4.488
 Vibration     5          0.599              1.967              4.058
 Vibration     6          0.600              1.961              3.822
 Vibration     7          0.602              1.955              3.617
 Vibration     8          0.604              1.948              3.425
 Vibration     9          0.605              1.945              3.343
 Vibration    10          0.614              1.915              2.825
 Vibration    11          0.623              1.887              2.506
 Vibration    12          0.633              1.856              2.242
 Vibration    13          0.638              1.839              2.130
 Vibration    14          0.648              1.809              1.951
 Vibration    15          0.654              1.789              1.846
 Vibration    16          0.665              1.754              1.696
 Vibration    17          0.677              1.720              1.567
 Vibration    18          0.691              1.678              1.430
 Vibration    19          0.707              1.631              1.300
 Vibration    20          0.728              1.573              1.160
 Vibration    21          0.738              1.545              1.102
 Vibration    22          0.760              1.485              0.988
 Vibration    23          0.779              1.436              0.906
 Vibration    24          0.804              1.372              0.812
 Vibration    25          0.825              1.321              0.743
 Vibration    26          0.856              1.248              0.656
 Vibration    27          0.910              1.130              0.535
 Vibration    28          0.933              1.083              0.492
 Vibration    29          0.970              1.009              0.432

 Optimization completed.
    -- Stationary point found.
 Normal termination of Gaussian 16 at Fri Dec 11 20:42:41 2020.

 ----------------------------------------------------------------------
 # B3LYP/6-311++G(d,p) empiricaldispersion=gd3bj scf=xqc pop=npa geom=c
 heck
 ----------------------------------------------------------------------

 --------------------------------------
 CID_61688508_JID_8296_Energie_neutraal
 --------------------------------------
 Structure from the checkpoint file:  "JID_8296.chk"
 Charge =  0 Multiplicity = 1

 SCF Done:  E(RB3LYP) =  -881.165257033     A.U. after   15 cycles
 Normal termination of Gaussian 16 at Fri Dec 11 20:52:37 2020.

 ----------------------------------------------------------------------
 # B3LYP/6-311++G(d,p) empiricaldispersion=gd3bj scf=xqc pop=npa geom=c
 heck
 ----------------------------------------------------------------------

 ------------------------------------
 CID_61688508_JID_8296_Energie_kation
 ------------------------------------
 Structure from the checkpoint file:  "JID_8296.chk"
 Charge =  1 Multiplicity = 2

 SCF Done:  E(UB3LYP) =  -880.858110928     A.U. after   28 cycles
 Normal termination of Gaussian 16 at Fri Dec 11 21:19:09 2020.
 Gaussian 16:  ES64L-G16RevA.03 25-Dec-2016

 ----------------------------------------------------------------------
 # B3LYP/6-311++G(d,p) empiricaldispersion=gd3bj scf=xqc pop=npa geom=c
 heck
 ----------------------------------------------------------------------

 -----------------------------------
 CID_61688508_JID_8296_Energie_anion
 -----------------------------------
 Structure from the checkpoint file:  "JID_8296.chk"
 Charge = -1 Multiplicity = 2

                         Standard orientation:
 ---------------------------------------------------------------------
 Center     Atomic      Atomic             Coordinates (Angstroms)
 Number     Number       Type             X           Y           Z
 ---------------------------------------------------------------------
      1          6           0        0.809216    3.480889   -1.584632
      2          6           0       -0.244381    2.552498   -0.992275
      3          8           0        0.314494    1.547604   -0.146020
      4          6           0        0.677222    1.988765    1.155581
      5          6           0        0.987429    0.782216    2.035159
      6          8           0        2.315736    0.292069    1.979593
      7          6           0        2.870340   -0.055435    0.711251
      8          6           0        2.671916   -1.529876    0.314307
      9          6           0        1.220739   -1.925301    0.019698
     10          7           0        0.791277   -1.234136   -1.198254
     11          6           0       -0.504928   -1.658470   -1.734738
     12          6           0       -1.670647   -1.125982   -0.941728
     13          7           0       -2.326886   -0.081890   -1.398724
     14          8           0       -3.255658    0.250293   -0.399362
     15          6           0       -3.129282   -0.615009    0.630748
     16          6           0       -2.144618   -1.513903    0.348268
     17          6           0       -4.042762   -0.419980    1.789420
     18          8           0        3.465777   -1.792936   -0.835247
     19          1           0        1.329386    4.055037   -0.810316
     20          1           0        0.340145    4.194225   -2.271812
     21          1           0        1.554841    2.905148   -2.143222
     22          1           0       -0.996101    3.122257   -0.424685
     23          1           0       -0.774680    2.001452   -1.772700
     24          1           0        1.544393    2.664240    1.129427
     25          1           0       -0.169813    2.540298    1.594995
     26          1           0        0.852166    1.074516    3.082033
     27          1           0        0.241334    0.007315    1.807872
     28          1           0        2.506724    0.607538   -0.081528
     29          1           0        3.948205    0.105899    0.803820
     30          1           0        3.050086   -2.153498    1.132840
     31          1           0        1.193261   -3.003651   -0.180482
     32          1           0        0.586152   -1.737419    0.898150
     33          1           0        0.731692   -0.233517   -1.000623
     34          1           0       -0.598287   -1.291883   -2.761990
     35          1           0       -0.529159   -2.753297   -1.767574
     36          1           0       -1.810084   -2.338510    0.958805
     37          1           0       -3.904680    0.572253    2.233632
     38          1           0       -5.090895   -0.500598    1.480244
     39          1           0       -3.845930   -1.174508    2.554676
     40          1           0        2.866256   -1.589817   -1.580775
 ---------------------------------------------------------------------

 SCF Done:  E(UB3LYP) =  -881.156091385     A.U. after   33 cycles
 SCF Done:  E(UB3LYP) =  -881.156091385     a.u. after    1 cycles

 The electronic state is 2-A.
 Alpha  occ. eigenvalues --  -19.11247 -19.04462 -19.03725 -19.03057 -14.26402
 Alpha  occ. eigenvalues --  -14.22109 -10.15351 -10.13355 -10.13056 -10.12908
 Alpha  occ. eigenvalues --  -10.12717 -10.12527 -10.12448 -10.12132 -10.11052
 Alpha  occ. eigenvalues --  -10.08419 -10.08345 -10.08067  -1.04706  -0.95884
 Alpha  occ. eigenvalues --   -0.94497  -0.93527  -0.83311  -0.78056  -0.71553
 Alpha  occ. eigenvalues --   -0.69329  -0.67355  -0.64790  -0.62623  -0.61621
 Alpha  occ. eigenvalues --   -0.58233  -0.54411  -0.51943  -0.51586  -0.49460
 Alpha  occ. eigenvalues --   -0.46987  -0.43470  -0.42915  -0.41766  -0.41034
 Alpha  occ. eigenvalues --   -0.40625  -0.39299  -0.38329  -0.37260  -0.37072
 Alpha  occ. eigenvalues --   -0.36461  -0.35623  -0.35045  -0.33738  -0.32548
 Alpha  occ. eigenvalues --   -0.32019  -0.31447  -0.31106  -0.30839  -0.30248
 Alpha  occ. eigenvalues --   -0.30070  -0.29311  -0.28983  -0.28248  -0.27470
 Alpha  occ. eigenvalues --   -0.24142  -0.23992  -0.22254  -0.21848  -0.20692
 Alpha  occ. eigenvalues --   -0.20393  -0.18301  -0.16789  -0.16521  -0.15687
 Alpha  occ. eigenvalues --    0.03987
 Alpha virt. eigenvalues --    0.05754   0.06505   0.06925   0.07448   0.08121
 Alpha virt. eigenvalues --    0.08275   0.08905   0.09047   0.09959   0.10166
 Alpha virt. eigenvalues --    0.10764   0.10903   0.11022   0.11729   0.12137

  Beta  occ. eigenvalues --  -19.11236 -19.04458 -19.03723 -19.03055 -14.26390
  Beta  occ. eigenvalues --  -14.22108 -10.15347 -10.13353 -10.13032 -10.12898
  Beta  occ. eigenvalues --  -10.12699 -10.12523 -10.12446 -10.12128 -10.11043
  Beta  occ. eigenvalues --  -10.08351 -10.08325 -10.08049  -1.04688  -0.95874
  Beta  occ. eigenvalues --   -0.94491  -0.93522  -0.83305  -0.78035  -0.71521
  Beta  occ. eigenvalues --   -0.69305  -0.67341  -0.64766  -0.62541  -0.61601
  Beta  occ. eigenvalues --   -0.58215  -0.54381  -0.51905  -0.51551  -0.49433
  Beta  occ. eigenvalues --   -0.46953  -0.43450  -0.42899  -0.41731  -0.41005
  Beta  occ. eigenvalues --   -0.40597  -0.39278  -0.38295  -0.37240  -0.37048
  Beta  occ. eigenvalues --   -0.36451  -0.35591  -0.35015  -0.33710  -0.32498
  Beta  occ. eigenvalues --   -0.31969  -0.31412  -0.31086  -0.30802  -0.30208
  Beta  occ. eigenvalues --   -0.30053  -0.29289  -0.28955  -0.28229  -0.27452
  Beta  occ. eigenvalues --   -0.24121  -0.23981  -0.22242  -0.21826  -0.20659
  Beta  occ. eigenvalues --   -0.20380  -0.18284  -0.16753  -0.16508  -0.15674
  Beta virt. eigenvalues --    0.05961   0.06632   0.06904   0.07313   0.07777
  Beta virt. eigenvalues --    0.08346   0.08726   0.09143   0.09581   0.10055
  Beta virt. eigenvalues --    0.10595   0.10862   0.11347   0.11474   0.11880

 Mulliken charges and spin densities:
               1          2
     1  C    0.323123  -0.849272
     2  C   -0.569160   0.393291
     3  O   -0.086379   0.017514
     4  C    0.373408  -0.584216
     5  C   -0.208940  -0.267563
     6  O   -0.054409   0.000057
     7  C   -0.072539  -0.147655
     8  C   -0.838966   0.089014
     9  C    0.244587  -0.291019
    10  N   -0.166233   0.031268
    11  C   -0.356537  -0.459967
    12  C    0.839999  -0.249918
    13  N   -0.296169   0.092897
    14  O    0.211473  -0.021472
    15  C   -2.182661   1.935302
    16  C   -0.188552   0.018598
    17  C    3.045105  -3.569326
    18  O   -0.157852   0.001960
    19  H   -0.134000   0.282755
    20  H   -0.093776   0.237118
    21  H    0.057294   0.083955
    22  H   -0.059650   0.201551
    23  H    0.183582   0.023338
    24  H    0.174719  -0.006234
    25  H   -0.249662   0.391400
    26  H   -0.590480   0.800840
    27  H    0.462936  -0.275447
    28  H    0.144541   0.023113
    29  H    0.134114   0.044586
    30  H    0.115201   0.104117
    31  H    0.097670   0.098864
    32  H    0.060826  -0.040443
    33  H    0.446981  -0.095093
    34  H    0.139540   0.065554
    35  H    0.088037   0.076900
    36  H   -0.655272   0.850863
    37  H   -0.470023   0.660248
    38  H   -0.291486   0.459186
    39  H   -0.681560   0.861563
    40  H    0.261169   0.011775
 Sum of Mulliken charges =  -1.00000   1.00000

 Dipole moment (field-independent basis, Debye):
    X=              5.1361    Y=             -0.9700    Z=             -6.3298  Tot=              8.2090
 Quadrupole moment (field-independent basis, Debye-Ang):
   XX=           -188.9105   YY=           -159.9974   ZZ=           -164.8342
   XY=              0.9787   XZ=             17.2495   YZ=              0.9818

 Summary of Natural Population Analysis:

                                       Natural Population
                Natural  -----------------------------------------------
    Atom  No    Charge         Core      Valence    Rydberg      Total
 -----------------------------------------------------------------------
      C    1   -0.30072      0.99966     2.29657    0.00448     3.30072
      C    2   -0.01220      0.99959     2.00070    0.01191     3.01220
      O    3   -0.31599      0.99988     3.30395    0.01216     4.31599
      C    4   -0.02612      0.99957     2.01447    0.01208     3.02612
      C    5   -0.02051      0.99955     2.00666    0.01430     3.02051
      O    6   -0.30185      0.99989     3.29299    0.00898     4.30185
      C    7   -0.02364      0.99954     2.01122    0.01288     3.02364
      C    8    0.04997      0.99957     1.93695    0.01351     2.95003
      C    9   -0.10453      0.99960     2.09338    0.01154     3.10453
      N   10   -0.36364      0.99974     2.85203    0.01187     3.86364
      C   11   -0.09862      0.99958     2.08759    0.01144     3.09862
      C   12    0.07601      0.99959     1.90901    0.01539     2.92399
      N   13   -0.08990      0.99966     2.57767    0.01257     3.58990
      O   14   -0.16846      0.99985     3.16007    0.00854     4.16846
      C   15    0.18585      0.99951     1.79922    0.01542     2.81415
      C   16   -0.17812      0.99943     2.16867    0.01001     3.17812
      C   17   -0.31020      0.99962     2.30404    0.00654     3.31020
      O   18   -0.37897      0.99990     3.37218    0.00689     4.37897
      H   19    0.09835      0.00000     0.40065    0.00100     0.40165
      H   20    0.10111      0.00000     0.39810    0.00080     0.39889
      H   21    0.09830      0.00000     0.40068    0.00102     0.40170
      H   22    0.08205      0.00000     0.41639    0.00156     0.41795
      H   23    0.09837      0.00000     0.40009    0.00154     0.40163
      H   24    0.08386      0.00000     0.41478    0.00136     0.41614
      H   25    0.09110      0.00000     0.40669    0.00221     0.40890
      H   26    0.09637      0.00000     0.40209    0.00154     0.40363
      H   27    0.08376      0.00000     0.41336    0.00288     0.41624
      H   28    0.08647      0.00000     0.41169    0.00184     0.41353
      H   29    0.09144      0.00000     0.40742    0.00114     0.40856
      H   30    0.08799      0.00000     0.41082    0.00119     0.41201
      H   31    0.09485      0.00000     0.40391    0.00125     0.40515
      H   32    0.09137      0.00000     0.40681    0.00182     0.40863
      H   33    0.19623      0.00000     0.29980    0.00397     0.30377
      H   34    0.10344      0.00000     0.39549    0.00107     0.39656
      H   35    0.09855      0.00000     0.40036    0.00109     0.40145
      H   36    0.11730      0.00000     0.38132    0.00138     0.38270
      H   37    0.11767      0.00000     0.37933    0.00301     0.38233
      H   38    0.11120      0.00000     0.38743    0.00137     0.38880
      H   39    0.11535      0.00000     0.38109    0.00356     0.38465
      H   40    0.23651      0.00000     0.26031    0.00318     0.26349
 =======================================================================
   * Total *   -0.00000     17.99373    51.76599    0.24027    70.00000

 Normal termination of Gaussian 16 at Fri Dec 11 21:50:51 2020.
