 Gaussian 16, Revision A.03,

 -----------------------------------------------------------
 # opt freq B3LYP/6-31G(d) empiricaldispersion=gd3bj scf=xqc
 -----------------------------------------------------------

 -------------------------------
 CID_114290388_JID_5986_neutraal
 -------------------------------
 Symbolic Z-matrix:
 Charge =  0 Multiplicity = 1

 SCF Done:  E(RB3LYP) =  -656.479575701     A.U. after   15 cycles
 SCF Done:  E(RB3LYP) =  -656.484840579     A.U. after   12 cycles
 SCF Done:  E(RB3LYP) =  -656.482990701     A.U. after   12 cycles
 SCF Done:  E(RB3LYP) =  -656.483722324     A.U. after   12 cycles
 SCF Done:  E(RB3LYP) =  -656.485560510     A.U. after    9 cycles
 SCF Done:  E(RB3LYP) =  -656.486273943     A.U. after   11 cycles
 SCF Done:  E(RB3LYP) =  -656.486065607     A.U. after   12 cycles
 SCF Done:  E(RB3LYP) =  -656.486079152     A.U. after   11 cycles
 SCF Done:  E(RB3LYP) =  -656.486610061     A.U. after    8 cycles
 SCF Done:  E(RB3LYP) =  -656.486764569     A.U. after   10 cycles
 SCF Done:  E(RB3LYP) =  -656.488044295     A.U. after   10 cycles
 SCF Done:  E(RB3LYP) =  -656.488044301     A.U. after    8 cycles
 SCF Done:  E(RB3LYP) =  -656.488044893     A.U. after    8 cycles
 SCF Done:  E(RB3LYP) =  -656.488044916     A.U. after    6 cycles
 SCF Done:  E(RB3LYP) =  -656.488044927     A.U. after    6 cycles
 Optimization completed.
    -- Stationary point found.
 Normal termination of Gaussian 16 at Thu Dec 10 18:12:54 2020.

 --------------------------------------------------------------------
 #N Geom=AllCheck Guess=TCheck SCRF=Check GenChk RB3LYP/6-31G(d) Freq
 --------------------------------------------------------------------

 Structure from the checkpoint file:  "JID_5986.chk"
 -------------------------------
 CID_114290388_JID_5986_neutraal
 -------------------------------
 Charge =  0 Multiplicity = 1

 SCF Done:  E(RB3LYP) =  -656.488044927     A.U. after    1 cycles

  Exact polarizability: 150.825  -3.292 135.105  -0.202  -3.015 127.897
 Approx polarizability: 192.413  -6.973 193.453  -0.570 -14.429 196.320

                      1                      2                      3
                      A                      A                      A
 Frequencies --     28.0606                38.0324                60.5418
 Red. masses --      3.2255                 3.6582                 2.7189
 Frc consts  --      0.0015                 0.0031                 0.0059
 IR Inten    --      0.4643                 0.7634                 1.4672

                      4                      5                      6
                      A                      A                      A
 Frequencies --     71.5553               105.1219               142.3310
 Red. masses --      2.8774                 3.3866                 2.9721
 Frc consts  --      0.0087                 0.0220                 0.0355
 IR Inten    --      3.2322                 1.3574                 0.8572

                      7                      8                      9
                      A                      A                      A
 Frequencies --    146.2720               167.2175               188.6629
 Red. masses --      3.1085                 1.8981                 1.4798
 Frc consts  --      0.0392                 0.0313                 0.0310
 IR Inten    --      0.1783                 0.6502                 0.0177

                     10                     11                     12
                      A                      A                      A
 Frequencies --    212.3559               226.1881               235.5969
 Red. masses --      1.4354                 2.2910                 1.4581
 Frc consts  --      0.0381                 0.0691                 0.0477
 IR Inten    --      1.0814                 1.1830                 6.3727

                     13                     14                     15
                      A                      A                      A
 Frequencies --    243.7447               246.6329               265.8531
 Red. masses --      1.2691                 1.3886                 2.3164
 Frc consts  --      0.0444                 0.0498                 0.0965
 IR Inten    --     13.7180                15.8022                 3.3670

                     16                     17                     18
                      A                      A                      A
 Frequencies --    276.2276               295.0466               316.9809
 Red. masses --      1.4793                 2.2490                 2.0534
 Frc consts  --      0.0665                 0.1154                 0.1216
 IR Inten    --      0.6128                 2.2193                 0.5040

                     19                     20                     21
                      A                      A                      A
 Frequencies --    348.9631               361.2835               378.4610
 Red. masses --      2.9485                 2.2967                 2.6775
 Frc consts  --      0.2115                 0.1766                 0.2260
 IR Inten    --      7.8994                 1.3329                 8.5769

                     22                     23                     24
                      A                      A                      A
 Frequencies --    395.7769               419.0018               460.9496
 Red. masses --      2.6787                 3.6624                 3.0752
 Frc consts  --      0.2472                 0.3788                 0.3850
 IR Inten    --      0.6351                 5.1106                 0.7208

                     25                     26                     27
                      A                      A                      A
 Frequencies --    517.3811               546.5099               561.0694
 Red. masses --      3.3512                 2.8039                 3.7878
 Frc consts  --      0.5285                 0.4934                 0.7025
 IR Inten    --     10.9878                 6.8387                 3.5317

                     28                     29                     30
                      A                      A                      A
 Frequencies --    623.8179               678.8658               751.0666
 Red. masses --      2.6014                 4.5859                 6.2817
 Frc consts  --      0.5964                 1.2452                 2.0878
 IR Inten    --      2.0327                 8.0719                 6.6252

                     31                     32                     33
                      A                      A                      A
 Frequencies --    756.3338               784.8815               803.3496
 Red. masses --      2.6532                 1.3954                 1.1707
 Frc consts  --      0.8942                 0.5065                 0.4451
 IR Inten    --      6.3440                 6.9858                 1.6555

                     34                     35                     36
                      A                      A                      A
 Frequencies --    824.3816               838.2358               866.8898
 Red. masses --      1.5470                 1.2196                 1.2793
 Frc consts  --      0.6194                 0.5049                 0.5664
 IR Inten    --      4.5697                 6.5104                97.9979

                     37                     38                     39
                      A                      A                      A
 Frequencies --    894.3283               926.7547               928.2863
 Red. masses --      2.0481                 1.8695                 2.9418
 Frc consts  --      0.9651                 0.9460                 1.4936
 IR Inten    --     13.0516                 1.9814                 3.0715

                     40                     41                     42
                      A                      A                      A
 Frequencies --    968.4580              1007.1004              1033.0700
 Red. masses --      2.4229                 1.6557                 1.6829
 Frc consts  --      1.3389                 0.9894                 1.0582
 IR Inten    --      4.5983                 4.5169                15.7616

                     43                     44                     45
                      A                      A                      A
 Frequencies --   1040.9124              1053.2130              1072.2685
 Red. masses --      1.6750                 1.7885                 1.4439
 Frc consts  --      1.0693                 1.1689                 0.9781
 IR Inten    --     11.4576                 7.6913                 4.9475

                     46                     47                     48
                      A                      A                      A
 Frequencies --   1078.1241              1088.2258              1090.3983
 Red. masses --      1.7264                 1.3760                 2.6889
 Frc consts  --      1.1823                 0.9601                 1.8837
 IR Inten    --     33.7652                 0.8129                 5.5489

                     49                     50                     51
                      A                      A                      A
 Frequencies --   1098.7310              1107.5127              1129.6350
 Red. masses --      1.6552                 1.6031                 1.8274
 Frc consts  --      1.1773                 1.1586                 1.3739
 IR Inten    --     35.4774                25.5946                 7.8116

                     52                     53                     54
                      A                      A                      A
 Frequencies --   1148.8274              1153.0321              1158.0796
 Red. masses --      1.1263                 1.5386                 1.5619
 Frc consts  --      0.8758                 1.2052                 1.2342
 IR Inten    --      3.2938                23.2690                19.2566

                     55                     56                     57
                      A                      A                      A
 Frequencies --   1188.6901              1202.1485              1217.6013
 Red. masses --      1.8474                 2.4352                 1.3887
 Frc consts  --      1.5380                 2.0735                 1.2131
 IR Inten    --      2.2509                 0.5529                 3.6698

                     58                     59                     60
                      A                      A                      A
 Frequencies --   1223.3857              1243.5772              1258.4305
 Red. masses --      2.3939                 3.4318                 1.9123
 Frc consts  --      2.1110                 3.1270                 1.7843
 IR Inten    --      5.2823                13.7620                13.0714

                     61                     62                     63
                      A                      A                      A
 Frequencies --   1274.6415              1327.2087              1357.9293
 Red. masses --      2.0707                 1.2081                 1.4190
 Frc consts  --      1.9822                 1.2538                 1.5416
 IR Inten    --      6.6455                 9.4475                65.0524

                     64                     65                     66
                      A                      A                      A
 Frequencies --   1367.5457              1384.6456              1395.9812
 Red. masses --      1.3786                 1.7836                 1.3593
 Frc consts  --      1.5190                 2.0148                 1.5608
 IR Inten    --     12.8722                87.6643                 1.8064

                     67                     68                     69
                      A                      A                      A
 Frequencies --   1417.9443              1431.8721              1432.7560
 Red. masses --      1.6531                 1.2574                 1.2595
 Frc consts  --      1.9582                 1.5189                 1.5233
 IR Inten    --     15.3483                 5.7931                 7.2080

                     70                     71                     72
                      A                      A                      A
 Frequencies --   1434.8265              1450.3892              1468.1571
 Red. masses --      1.2800                 1.2845                 1.2456
 Frc consts  --      1.5527                 1.5920                 1.5819
 IR Inten    --      3.6736                19.4173                15.9227

                     73                     74                     75
                      A                      A                      A
 Frequencies --   1491.8951              1503.7007              1508.3475
 Red. masses --      1.0988                 1.1531                 1.1443
 Frc consts  --      1.4410                 1.5362                 1.5339
 IR Inten    --      3.7178                 1.2934                11.2667

                     76                     77                     78
                      A                      A                      A
 Frequencies --   1515.7770              1519.9921              1528.7452
 Red. masses --      1.0797                 1.0553                 1.1718
 Frc consts  --      1.4615                 1.4364                 1.6135
 IR Inten    --      3.3201                 5.1406                12.1507

                     79                     80                     81
                      A                      A                      A
 Frequencies --   1535.1013              1538.0209              1538.4685
 Red. masses --      1.0918                 1.1824                 1.0701
 Frc consts  --      1.5159                 1.6479                 1.4923
 IR Inten    --      0.9330                 9.6891                 5.2261

                     82                     83                     84
                      A                      A                      A
 Frequencies --   1545.0496              1548.1144              1554.1468
 Red. masses --      1.1746                 1.0512                 1.1054
 Frc consts  --      1.6520                 1.4844                 1.5730
 IR Inten    --     28.1467                 1.7194                25.0396

                     85                     86                     87
                      A                      A                      A
 Frequencies --   1559.7097              1696.7448              1720.4828
 Red. masses --      1.0778                 1.1123                 7.7552
 Frc consts  --      1.5448                 1.8867                13.5252
 IR Inten    --      4.7927                48.7096               194.2865

                     88                     89                     90
                      A                      A                      A
 Frequencies --   2955.3353              3026.8849              3028.2214
 Red. masses --      1.0760                 1.0625                 1.0687
 Frc consts  --      5.5372                 5.7354                 5.7741
 IR Inten    --     81.5431                 4.2594                49.2818

                     91                     92                     93
                      A                      A                      A
 Frequencies --   3035.6094              3056.8999              3057.5954
 Red. masses --      1.0721                 1.0398                 1.0442
 Frc consts  --      5.8205                 5.7247                 5.7519
 IR Inten    --     64.9022                22.1412                44.0599

                     94                     95                     96
                      A                      A                      A
 Frequencies --   3061.5459              3099.6348              3100.4600
 Red. masses --      1.0411                 1.0960                 1.0942
 Frc consts  --      5.7494                 6.2042                 6.1971
 IR Inten    --     36.7693                 6.1695                24.2945

                     97                     98                     99
                      A                      A                      A
 Frequencies --   3116.6766              3121.0882              3122.2615
 Red. masses --      1.0977                 1.0874                 1.0995
 Frc consts  --      6.2823                 6.2410                 6.3154
 IR Inten    --     50.8984                12.7776                19.5842

                    100                    101                    102
                      A                      A                      A
 Frequencies --   3124.4026              3136.2890              3144.5461
 Red. masses --      1.0933                 1.0847                 1.1020
 Frc consts  --      6.2880                 6.2861                 6.4200
 IR Inten    --     53.5757                30.5170                25.5978

                    103                    104                    105
                      A                      A                      A
 Frequencies --   3145.9385              3156.8228              3168.2694
 Red. masses --      1.0549                 1.0625                 1.0988
 Frc consts  --      6.1513                 6.2387                 6.4986
 IR Inten    --     22.6136                29.0781                14.6364

                    106                    107                    108
                      A                      A                      A
 Frequencies --   3195.9992              3224.6147              3231.1611
 Red. masses --      1.0969                 1.1170                 1.0896
 Frc consts  --      6.6013                 6.8435                 6.7026
 IR Inten    --      6.0400                20.8664                14.3334

                    109                    110                    111
                      A                      A                      A
 Frequencies --   3259.3144              3481.9178              3565.3914
 Red. masses --      1.1124                 1.0498                 1.0924
 Frc consts  --      6.9625                 7.4985                 8.1819
 IR Inten    --      2.6907                 0.6925                 0.2126

 - Thermochemistry -
 -------------------
 Temperature   298.150 Kelvin.  Pressure   1.00000 Atm.
 Atom     1 has atomic number  6 and mass  12.00000

 Molecular mass:   212.18886 amu.
 Principal axes and moments of inertia in atomic units:
                           1         2         3
     Eigenvalues --  2107.439654116.915894585.12918
           X            0.99993  -0.01147  -0.00387
           Y            0.01149   0.99993   0.00420
           Z            0.00382  -0.00424   0.99998
 This molecule is an asymmetric top.
 Rotational symmetry number  1.
 Warning -- assumption of classical behavior for rotation
           may cause significant error
 Rotational temperatures (Kelvin)      0.04110     0.02104     0.01889
 Rotational constants (GHZ):           0.85637     0.43837     0.39361
 Zero-point vibrational energy     934041.3 (Joules/Mol)
                                  223.24122 (Kcal/Mol)
 Warning -- explicit consideration of  27 degrees of freedom as
           vibrations may cause significant error
 Vibrational temperatures:     40.37    54.72    87.11   102.95   151.25
          (Kelvin)            204.78   210.45   240.59   271.44   305.53
                              325.43   338.97   350.69   354.85   382.50
                              397.43   424.51   456.06   502.08   519.81
                              544.52   569.43   602.85   663.20   744.40
                              786.31   807.25   897.53   976.74  1080.62
                             1088.20  1129.27  1155.84  1186.10  1206.03
                             1247.26  1286.74  1333.39  1335.60  1393.40
                             1448.99  1486.36  1497.64  1515.34  1542.76
                             1551.18  1565.71  1568.84  1580.83  1593.46
                             1625.29  1652.91  1658.96  1666.22  1710.26
                             1729.62  1751.86  1760.18  1789.23  1810.60
                             1833.92  1909.56  1953.76  1967.59  1992.20
                             2008.51  2040.11  2060.14  2061.42  2064.40
                             2086.79  2112.35  2146.50  2163.49  2170.18
                             2180.86  2186.93  2199.52  2208.67  2212.87
                             2213.51  2222.98  2227.39  2236.07  2244.07
                             2441.24  2475.39  4252.07  4355.01  4356.94
                             4367.56  4398.20  4399.20  4404.88  4459.68
                             4460.87  4484.20  4490.55  4492.24  4495.32
                             4512.42  4524.30  4526.30  4541.96  4558.43
                             4598.33  4639.50  4648.92  4689.43  5009.70
                             5129.80

 Zero-point correction=                           0.355758 (Hartree/Particle)
 Thermal correction to Energy=                    0.373569
 Thermal correction to Enthalpy=                  0.374514
 Thermal correction to Gibbs Free Energy=         0.310579
 Sum of electronic and zero-point Energies=           -656.132287
 Sum of electronic and thermal Energies=              -656.114476
 Sum of electronic and thermal Enthalpies=            -656.113531
 Sum of electronic and thermal Free Energies=         -656.177466

                     E (Thermal)             CV                S
                      KCal/Mol        Cal/Mol-Kelvin    Cal/Mol-Kelvin
 Total                  234.418             67.176            134.561
 Electronic               0.000              0.000              0.000
 Translational            0.889              2.981             41.960
 Rotational               0.889              2.981             32.053
 Vibrational            232.641             61.214             60.547
 Vibration     1          0.593              1.984              5.962
 Vibration     2          0.594              1.982              5.359
 Vibration     3          0.597              1.973              4.439
 Vibration     4          0.598              1.968              4.110
 Vibration     5          0.605              1.945              3.357
 Vibration     6          0.616              1.911              2.772
 Vibration     7          0.617              1.907              2.720
 Vibration     8          0.624              1.883              2.467
 Vibration     9          0.633              1.855              2.241
 Vibration    10          0.643              1.822              2.023
 Vibration    11          0.650              1.801              1.909
 Vibration    12          0.655              1.786              1.836
 Vibration    13          0.659              1.773              1.775
 Vibration    14          0.661              1.768              1.755
 Vibration    15          0.672              1.736              1.623
 Vibration    16          0.678              1.717              1.557
 Vibration    17          0.689              1.683              1.445
 Vibration    18          0.704              1.641              1.326
 Vibration    19          0.726              1.577              1.171
 Vibration    20          0.735              1.552              1.117
 Vibration    21          0.749              1.516              1.045
 Vibration    22          0.763              1.479              0.978
 Vibration    23          0.782              1.429              0.895
 Vibration    24          0.819              1.337              0.763
 Vibration    25          0.872              1.211              0.616
 Vibration    26          0.902              1.147              0.551
 Vibration    27          0.917              1.116              0.522

 Optimization completed.
    -- Stationary point found.
 Normal termination of Gaussian 16 at Thu Dec 10 18:28:21 2020.

 ----------------------------------------------------------------------
 # B3LYP/6-311++G(d,p) empiricaldispersion=gd3bj scf=xqc pop=npa geom=c
 heck
 ----------------------------------------------------------------------

 ---------------------------------------
 CID_114290388_JID_5986_Energie_neutraal
 ---------------------------------------
 Structure from the checkpoint file:  "JID_5986.chk"
 Charge =  0 Multiplicity = 1

 SCF Done:  E(RB3LYP) =  -656.679750318     A.U. after   15 cycles
 Normal termination of Gaussian 16 at Thu Dec 10 18:35:22 2020.

 ----------------------------------------------------------------------
 # B3LYP/6-311++G(d,p) empiricaldispersion=gd3bj scf=xqc pop=npa geom=c
 heck
 ----------------------------------------------------------------------

 -------------------------------------
 CID_114290388_JID_5986_Energie_kation
 -------------------------------------
 Structure from the checkpoint file:  "JID_5986.chk"
 Charge =  1 Multiplicity = 2

 SCF Done:  E(UB3LYP) =  -656.379104010     A.U. after   30 cycles
 Normal termination of Gaussian 16 at Thu Dec 10 18:53:57 2020.
 Gaussian 16:  ES64L-G16RevA.03 25-Dec-2016

 ----------------------------------------------------------------------
 # B3LYP/6-311++G(d,p) empiricaldispersion=gd3bj scf=xqc pop=npa geom=c
 heck
 ----------------------------------------------------------------------

 ------------------------------------
 CID_114290388_JID_5986_Energie_anion
 ------------------------------------
 Structure from the checkpoint file:  "JID_5986.chk"
 Charge = -1 Multiplicity = 2

                         Standard orientation:
 ---------------------------------------------------------------------
 Center     Atomic      Atomic             Coordinates (Angstroms)
 Number     Number       Type             X           Y           Z
 ---------------------------------------------------------------------
      1          6           0       -2.483410    2.391605   -0.670509
      2          6           0       -2.617185    0.865313   -0.657772
      3          6           0       -1.735445    0.085070    0.363863
      4          6           0       -1.872419    0.771613    1.740170
      5          6           0       -2.283566   -1.361311    0.438002
      6          7           0       -1.955658   -2.118324   -0.773856
      7          6           0       -0.270727    0.097181   -0.176724
      8          8           0       -0.017560    0.792613   -1.161555
      9          7           0        0.719600   -0.651435    0.405418
     10          6           0        0.599937   -1.453940    1.612749
     11          6           0        2.001786   -0.894439   -0.308087
     12          6           0        1.845186   -1.189590   -1.804288
     13          6           0        3.073949    0.152807   -0.020348
     14          6           0        2.864919    1.627380   -0.240725
     15          6           0        2.998240    1.086051    1.163547
     16          1           0       -2.807550    2.841067    0.274254
     17          1           0       -3.115073    2.811089   -1.461978
     18          1           0       -1.451854    2.686856   -0.867663
     19          1           0       -3.662051    0.608156   -0.433204
     20          1           0       -2.397726    0.495537   -1.663338
     21          1           0       -2.930500    0.969159    1.948048
     22          1           0       -1.493531    0.168207    2.568336
     23          1           0       -1.346083    1.729739    1.757554
     24          1           0       -1.848101   -1.900034    1.282092
     25          1           0       -3.366051   -1.289529    0.647690
     26          1           0       -2.315117   -3.067418   -0.696041
     27          1           0       -2.417544   -1.702804   -1.579996
     28          1           0        0.404860   -2.509588    1.378126
     29          1           0        1.541515   -1.390795    2.167408
     30          1           0       -0.182884   -1.086165    2.267188
     31          1           0        2.362978   -1.826775    0.143543
     32          1           0        1.641826   -0.284809   -2.373652
     33          1           0        2.774160   -1.643529   -2.169487
     34          1           0        1.023800   -1.895749   -1.963136
     35          1           0        4.069234   -0.220069   -0.260107
     36          1           0        3.693418    2.199774   -0.649603
     37          1           0        1.882585    1.939912   -0.573706
     38          1           0        2.096451    1.060231    1.768319
     39          1           0        3.908521    1.288505    1.721590
 ---------------------------------------------------------------------

 SCF Done:  E(UB3LYP) =  -656.666394939     A.U. after   33 cycles
 SCF Done:  E(UB3LYP) =  -656.666394939     a.u. after    1 cycles

 The electronic state is 2-A.
 Alpha  occ. eigenvalues --  -18.97761 -14.23801 -14.19031 -10.16667 -10.11332
 Alpha  occ. eigenvalues --  -10.09772 -10.09429 -10.09063 -10.08031 -10.07261
 Alpha  occ. eigenvalues --  -10.07045 -10.06687 -10.06659 -10.05762 -10.05215
 Alpha  occ. eigenvalues --   -0.93396  -0.83178  -0.78549  -0.75785  -0.71028
 Alpha  occ. eigenvalues --   -0.66108  -0.63405  -0.60503  -0.57632  -0.55085
 Alpha  occ. eigenvalues --   -0.52996  -0.50665  -0.50123  -0.46613  -0.41776
 Alpha  occ. eigenvalues --   -0.40681  -0.39497  -0.38695  -0.38585  -0.36317
 Alpha  occ. eigenvalues --   -0.35283  -0.35115  -0.33445  -0.32836  -0.31777
 Alpha  occ. eigenvalues --   -0.31437  -0.30434  -0.30023  -0.28937  -0.28645
 Alpha  occ. eigenvalues --   -0.27710  -0.27274  -0.26834  -0.26178  -0.25930
 Alpha  occ. eigenvalues --   -0.24444  -0.23855  -0.22960  -0.21719  -0.19855
 Alpha  occ. eigenvalues --   -0.18541  -0.15221  -0.14085  -0.13723   0.04345
 Alpha virt. eigenvalues --    0.06081   0.06922   0.07265   0.08193   0.08614
 Alpha virt. eigenvalues --    0.08742   0.09431   0.09836   0.10681   0.11011
 Alpha virt. eigenvalues --    0.11223   0.11765   0.12106   0.12124   0.12792

  Beta  occ. eigenvalues --  -18.97759 -14.23799 -14.18992 -10.16661 -10.11325
  Beta  occ. eigenvalues --  -10.09735 -10.09429 -10.09034 -10.08024 -10.07247
  Beta  occ. eigenvalues --  -10.07026 -10.06683 -10.06645 -10.05757 -10.05208
  Beta  occ. eigenvalues --   -0.93391  -0.83168  -0.78490  -0.75771  -0.71000
  Beta  occ. eigenvalues --   -0.66091  -0.63381  -0.60453  -0.57574  -0.55062
  Beta  occ. eigenvalues --   -0.52937  -0.50635  -0.50095  -0.46583  -0.41741
  Beta  occ. eigenvalues --   -0.40654  -0.39456  -0.38647  -0.38553  -0.36285
  Beta  occ. eigenvalues --   -0.35256  -0.35080  -0.33415  -0.32804  -0.31748
  Beta  occ. eigenvalues --   -0.31408  -0.30409  -0.30004  -0.28902  -0.28624
  Beta  occ. eigenvalues --   -0.27687  -0.27251  -0.26815  -0.26162  -0.25910
  Beta  occ. eigenvalues --   -0.24425  -0.23838  -0.22932  -0.21697  -0.19841
  Beta  occ. eigenvalues --   -0.18526  -0.15199  -0.14072  -0.13696
  Beta virt. eigenvalues --    0.06481   0.06910   0.07553   0.07842   0.08587
  Beta virt. eigenvalues --    0.08968   0.09154   0.09731   0.10197   0.11145
  Beta virt. eigenvalues --    0.11300   0.11501   0.12158   0.12286   0.12378

 Mulliken charges and spin densities:
               1          2
     1  C   -0.638206   0.068199
     2  C   -0.208545  -0.082574
     3  C   -1.098841   1.984025
     4  C    0.933395  -1.642439
     5  C    1.497524  -2.038861
     6  N   -0.577079   0.282035
     7  C   -0.419978  -0.705280
     8  O   -0.223456   0.022885
     9  N    0.238549   0.166883
    10  C    0.806294  -1.173175
    11  C    0.319378  -0.243052
    12  C   -0.088616  -0.387626
    13  C   -0.751934   0.578143
    14  C    0.146968  -0.387625
    15  C    0.133224  -0.486579
    16  H    0.088673   0.032433
    17  H    0.042279   0.085833
    18  H    0.128665   0.057718
    19  H   -0.157654   0.311043
    20  H    0.208383  -0.040017
    21  H   -0.104445   0.282453
    22  H   -0.167771   0.289306
    23  H    0.160181   0.000040
    24  H   -0.420658   0.572614
    25  H   -0.364824   0.531590
    26  H   -0.275609   0.539947
    27  H    0.034947   0.172369
    28  H   -0.254967   0.468804
    29  H   -0.366360   0.528821
    30  H    0.109253  -0.005853
    31  H   -0.060329   0.236415
    32  H    0.191024  -0.024119
    33  H   -0.003403   0.149455
    34  H    0.112210   0.038479
    35  H   -0.139316   0.351765
    36  H    0.128900   0.022874
    37  H    0.173596  -0.003601
    38  H    0.141324   0.007436
    39  H   -0.272777   0.439236
 Sum of Mulliken charges =  -1.00000   1.00000

 Dipole moment (field-independent basis, Debye):
    X=              1.9724    Y=              5.3585    Z=             -2.2661  Tot=              6.1432
 Quadrupole moment (field-independent basis, Debye-Ang):
   XX=           -163.0027   YY=           -147.2351   ZZ=           -134.9933
   XY=             -9.6420   XZ=             -2.0315   YZ=              5.4336

 Summary of Natural Population Analysis:

                                       Natural Population
                Natural  -----------------------------------------------
    Atom  No    Charge         Core      Valence    Rydberg      Total
 -----------------------------------------------------------------------
      C    1   -0.28704      0.99966     2.28290    0.00448     3.28704
      C    2   -0.18713      0.99961     2.17699    0.01053     3.18713
      C    3   -0.07954      0.99953     2.06634    0.01366     3.07954
      C    4   -0.28273      0.99962     2.27620    0.00691     3.28273
      C    5   -0.08527      0.99958     2.07225    0.01343     3.08527
      N    6   -0.42194      0.99977     2.91107    0.01111     3.92194
      C    7    0.36688      0.99958     1.60734    0.02620     2.63312
      O    8   -0.33847      0.99988     3.33370    0.00489     4.33847
      N    9   -0.26189      0.99963     2.74827    0.01399     3.76189
      C   10   -0.17525      0.99961     2.16687    0.00877     3.17525
      C   11    0.00203      0.99955     1.98398    0.01443     2.99797
      C   12   -0.29156      0.99964     2.28575    0.00617     3.29156
      C   13   -0.11786      0.99956     2.10625    0.01205     3.11786
      C   14   -0.20250      0.99961     2.19538    0.00752     3.20250
      C   15   -0.19928      0.99962     2.19227    0.00739     3.19928
      H   16    0.09181      0.00000     0.40734    0.00085     0.40819
      H   17    0.09516      0.00000     0.40411    0.00073     0.40484
      H   18    0.10869      0.00000     0.39029    0.00102     0.39131
      H   19    0.09475      0.00000     0.40408    0.00118     0.40525
      H   20    0.10395      0.00000     0.39483    0.00122     0.39605
      H   21    0.10248      0.00000     0.39656    0.00096     0.39752
      H   22    0.09981      0.00000     0.39919    0.00100     0.40019
      H   23    0.10286      0.00000     0.39618    0.00096     0.39714
      H   24    0.09541      0.00000     0.40225    0.00233     0.40459
      H   25    0.08315      0.00000     0.41388    0.00297     0.41685
      H   26    0.18099      0.00000     0.31577    0.00324     0.31901
      H   27    0.17322      0.00000     0.32464    0.00214     0.32678
      H   28    0.09843      0.00000     0.39980    0.00178     0.40157
      H   29    0.09954      0.00000     0.39895    0.00151     0.40046
      H   30    0.09954      0.00000     0.39893    0.00153     0.40046
      H   31    0.09779      0.00000     0.40059    0.00162     0.40221
      H   32    0.11176      0.00000     0.38734    0.00090     0.38824
      H   33    0.09409      0.00000     0.40516    0.00075     0.40591
      H   34    0.10897      0.00000     0.39001    0.00101     0.39103
      H   35    0.10248      0.00000     0.39657    0.00095     0.39752
      H   36    0.09623      0.00000     0.40301    0.00077     0.40377
      H   37    0.11706      0.00000     0.38169    0.00124     0.38294
      H   38    0.10361      0.00000     0.39521    0.00119     0.39639
      H   39    0.09977      0.00000     0.39930    0.00093     0.40023
 =======================================================================
   * Total *   -0.00000     14.99445    43.81126    0.19429    59.00000

 Normal termination of Gaussian 16 at Thu Dec 10 19:14:15 2020.
