 Gaussian 16, Revision A.03,

 -----------------------------------------------------------
 # opt freq B3LYP/6-31G(d) empiricaldispersion=gd3bj scf=xqc
 -----------------------------------------------------------

 -------------------------------
 CID_136318914_JID_2922_neutraal
 -------------------------------
 Symbolic Z-matrix:
 Charge =  0 Multiplicity = 1

 SCF Done:  E(RB3LYP) =  -553.419778159     A.U. after   14 cycles
 SCF Done:  E(RB3LYP) =  -553.427052822     A.U. after   12 cycles
 SCF Done:  E(RB3LYP) =  -553.428510849     A.U. after   12 cycles
 SCF Done:  E(RB3LYP) =  -553.429234586     A.U. after   12 cycles
 SCF Done:  E(RB3LYP) =  -553.429516358     A.U. after   12 cycles
 SCF Done:  E(RB3LYP) =  -553.429575213     A.U. after   11 cycles
 SCF Done:  E(RB3LYP) =  -553.429631474     A.U. after   10 cycles
 SCF Done:  E(RB3LYP) =  -553.429650052     A.U. after   10 cycles
 SCF Done:  E(RB3LYP) =  -553.429660422     A.U. after    9 cycles
 SCF Done:  E(RB3LYP) =  -553.429665323     A.U. after    9 cycles
 SCF Done:  E(RB3LYP) =  -553.429665955     A.U. after    8 cycles
 SCF Done:  E(RB3LYP) =  -553.429665990     A.U. after    7 cycles
 Optimization completed.
    -- Stationary point found.
 Normal termination of Gaussian 16 at Wed Dec  9 18:15:27 2020.

 --------------------------------------------------------------------
 #N Geom=AllCheck Guess=TCheck SCRF=Check GenChk RB3LYP/6-31G(d) Freq
 --------------------------------------------------------------------

 Structure from the checkpoint file:  "JID_2922.chk"
 -------------------------------
 CID_136318914_JID_2922_neutraal
 -------------------------------
 Charge =  0 Multiplicity = 1

 SCF Done:  E(RB3LYP) =  -553.429665989     A.U. after    1 cycles

  Exact polarizability: 141.030  -0.791  99.340  -4.559  -4.588  79.621
 Approx polarizability: 196.848  -2.268 137.272  -9.063 -10.903 116.406

                      1                      2                      3
                      A                      A                      A
 Frequencies --     37.3533                58.8556                81.8005
 Red. masses --      3.2300                 4.5876                 2.9144
 Frc consts  --      0.0027                 0.0094                 0.0115
 IR Inten    --      0.1246                 0.1189                 0.1100

                      4                      5                      6
                      A                      A                      A
 Frequencies --    110.7276               118.4147               152.2867
 Red. masses --      2.1214                 2.1757                 3.9897
 Frc consts  --      0.0153                 0.0180                 0.0545
 IR Inten    --      0.4596                 0.5129                 1.0517

                      7                      8                      9
                      A                      A                      A
 Frequencies --    181.4175               219.3147               245.0877
 Red. masses --      2.3276                 2.0576                 1.2071
 Frc consts  --      0.0451                 0.0583                 0.0427
 IR Inten    --      0.7401                 2.4874                 0.7045

                     10                     11                     12
                      A                      A                      A
 Frequencies --    258.3601               311.3651               333.5038
 Red. masses --      1.7872                 4.4927                 2.8825
 Frc consts  --      0.0703                 0.2566                 0.1889
 IR Inten    --      3.5859                 2.2173                 0.4009

                     13                     14                     15
                      A                      A                      A
 Frequencies --    390.0333               445.5395               460.1275
 Red. masses --      2.0428                 2.3818                 1.8340
 Frc consts  --      0.1831                 0.2786                 0.2288
 IR Inten    --     14.4443                 4.2682                63.3413

                     16                     17                     18
                      A                      A                      A
 Frequencies --    516.1050               573.6582               582.4286
 Red. masses --      3.0856                 1.5678                 1.8141
 Frc consts  --      0.4842                 0.3040                 0.3626
 IR Inten    --      8.6825                80.4598                64.9562

                     19                     20                     21
                      A                      A                      A
 Frequencies --    659.7061               680.2266               706.7084
 Red. masses --      4.8160                 3.9592                 4.7089
 Frc consts  --      1.2349                 1.0794                 1.3856
 IR Inten    --     11.6036                 9.2847                 3.6385

                     22                     23                     24
                      A                      A                      A
 Frequencies --    717.5037               789.7195               800.1895
 Red. masses --      7.0237                 1.3123                 1.4300
 Frc consts  --      2.1304                 0.4822                 0.5395
 IR Inten    --     21.0971                 5.8008                 5.4957

                     25                     26                     27
                      A                      A                      A
 Frequencies --    872.9555               884.0780               925.5624
 Red. masses --      2.6749                 2.1230                 1.5321
 Frc consts  --      1.2010                 0.9777                 0.7733
 IR Inten    --      3.0380                 3.6173                 8.8489

                     28                     29                     30
                      A                      A                      A
 Frequencies --    953.4281               973.4334              1011.1607
 Red. masses --      2.4424                 2.5204                 1.8763
 Frc consts  --      1.3081                 1.4071                 1.1303
 IR Inten    --      2.6064                34.8994                 2.1345

                     31                     32                     33
                      A                      A                      A
 Frequencies --   1026.2667              1084.4233              1095.3321
 Red. masses --      1.8902                 2.4918                 2.6588
 Frc consts  --      1.1730                 1.7265                 1.8794
 IR Inten    --     10.9301                14.1068                 4.1174

                     34                     35                     36
                      A                      A                      A
 Frequencies --   1128.0398              1134.7494              1167.1392
 Red. masses --      2.0887                 2.0784                 1.9211
 Frc consts  --      1.5659                 1.5768                 1.5419
 IR Inten    --      3.8996                 6.1358                 8.6577

                     37                     38                     39
                      A                      A                      A
 Frequencies --   1182.5477              1234.0087              1284.8315
 Red. masses --      1.8526                 1.8503                 1.3124
 Frc consts  --      1.5264                 1.6601                 1.2764
 IR Inten    --      4.3196                30.5087                16.8901

                     40                     41                     42
                      A                      A                      A
 Frequencies --   1295.3952              1302.5661              1313.2504
 Red. masses --      1.4577                 1.3054                 1.2009
 Frc consts  --      1.4412                 1.3050                 1.2203
 IR Inten    --     49.2045                 2.2333                 0.4789

                     43                     44                     45
                      A                      A                      A
 Frequencies --   1354.4901              1384.2426              1395.9513
 Red. masses --      1.7053                 1.6402                 1.3390
 Frc consts  --      1.8433                 1.8517                 1.5373
 IR Inten    --    119.5397                74.8458                24.5665

                     46                     47                     48
                      A                      A                      A
 Frequencies --   1397.7049              1401.3182              1418.4408
 Red. masses --      1.4890                 1.6325                 3.0119
 Frc consts  --      1.7138                 1.8888                 3.5704
 IR Inten    --      2.3188                11.0359                93.3146

                     49                     50                     51
                      A                      A                      A
 Frequencies --   1432.9792              1441.5657              1449.7457
 Red. masses --      1.5551                 1.2851                 1.3318
 Frc consts  --      1.8815                 1.5734                 1.6492
 IR Inten    --      6.5477                12.8374                 1.2991

                     52                     53                     54
                      A                      A                      A
 Frequencies --   1511.9824              1513.8007              1524.1995
 Red. masses --      1.0738                 1.0735                 1.0437
 Frc consts  --      1.4464                 1.4494                 1.4286
 IR Inten    --      0.4172                 1.3366                 4.8291

                     55                     56                     57
                      A                      A                      A
 Frequencies --   1529.5714              1535.6821              1538.4969
 Red. masses --      1.0611                 1.0463                 1.0605
 Frc consts  --      1.4627                 1.4538                 1.4790
 IR Inten    --      4.9670                 3.6545                 4.8917

                     58                     59                     60
                      A                      A                      A
 Frequencies --   1548.7819              1788.0246              1860.5660
 Red. masses --      1.0871                 8.0853                11.6291
 Frc consts  --      1.5364                15.2299                23.7185
 IR Inten    --     14.9634               913.1042               277.5113

                     61                     62                     63
                      A                      A                      A
 Frequencies --   2978.8990              3016.9756              3043.3858
 Red. masses --      1.0714                 1.0652                 1.0712
 Frc consts  --      5.6017                 5.7126                 5.8456
 IR Inten    --     56.8387                31.0755                21.1377

                     64                     65                     66
                      A                      A                      A
 Frequencies --   3043.6821              3050.6528              3054.8527
 Red. masses --      1.0441                 1.0422                 1.0710
 Frc consts  --      5.6988                 5.7145                 5.8885
 IR Inten    --     13.6659                27.8041                33.4970

                     67                     68                     69
                      A                      A                      A
 Frequencies --   3056.5798              3071.5526              3092.2534
 Red. masses --      1.0888                 1.0937                 1.0986
 Frc consts  --      5.9933                 6.0794                 6.1895
 IR Inten    --     21.9857                88.7334                 1.4697

                     70                     71                     72
                      A                      A                      A
 Frequencies --   3112.7972              3113.6550              3125.9755
 Red. masses --      1.1021                 1.1015                 1.1018
 Frc consts  --      6.2920                 6.2918                 6.3433
 IR Inten    --     50.2310                47.2919                26.7277

                     73                     74                     75
                      A                      A                      A
 Frequencies --   3136.5217              3641.4646              3651.7007
 Red. masses --      1.1013                 1.0769                 1.0794
 Frc consts  --      6.3832                 8.4136                 8.4808
 IR Inten    --     33.8992                12.9092                67.6905

 - Thermochemistry -
 -------------------
 Temperature   298.150 Kelvin.  Pressure   1.00000 Atm.
 Atom     1 has atomic number  6 and mass  12.00000

 Molecular mass:   169.12151 amu.
 Principal axes and moments of inertia in atomic units:
                           1         2         3
     Eigenvalues --  1343.640773180.776233968.38040
           X            0.99962  -0.02573   0.00970
           Y            0.02572   0.99967   0.00175
           Z           -0.00974  -0.00150   0.99995
 This molecule is an asymmetric top.
 Rotational symmetry number  1.
 Warning -- assumption of classical behavior for rotation
           may cause significant error
 Rotational temperatures (Kelvin)      0.06446     0.02723     0.02183
 Rotational constants (GHZ):           1.34317     0.56739     0.45478
 Zero-point vibrational energy     619175.7 (Joules/Mol)
                                  147.98655 (Kcal/Mol)
 Warning -- explicit consideration of  18 degrees of freedom as
           vibrations may cause significant error
 Vibrational temperatures:     53.74    84.68   117.69   159.31   170.37
          (Kelvin)            219.11   261.02   315.54   352.63   371.72
                              447.98   479.84   561.17   641.03   662.02
                              742.56   825.37   837.98   949.17   978.69
                             1016.80  1032.33  1136.23  1151.29  1255.99
                             1271.99  1331.68  1371.77  1400.55  1454.83
                             1476.57  1560.24  1575.94  1623.00  1632.65
                             1679.25  1701.42  1775.46  1848.59  1863.78
                             1874.10  1889.47  1948.81  1991.62  2008.46
                             2010.99  2016.18  2040.82  2061.74  2074.09
                             2085.86  2175.41  2178.02  2192.98  2200.71
                             2209.50  2213.55  2228.35  2572.57  2676.94
                             4285.97  4340.75  4378.75  4379.18  4389.21
                             4395.25  4397.74  4419.28  4449.06  4478.62
                             4479.86  4497.58  4512.76  5239.26  5253.98

 Zero-point correction=                           0.235832 (Hartree/Particle)
 Thermal correction to Energy=                    0.248678
 Thermal correction to Enthalpy=                  0.249622
 Thermal correction to Gibbs Free Energy=         0.195946
 Sum of electronic and zero-point Energies=           -553.193834
 Sum of electronic and thermal Energies=              -553.180988
 Sum of electronic and thermal Enthalpies=            -553.180044
 Sum of electronic and thermal Free Energies=         -553.233720

                     E (Thermal)             CV                S
                      KCal/Mol        Cal/Mol-Kelvin    Cal/Mol-Kelvin
 Total                  156.048             47.229            112.970
 Electronic               0.000              0.000              0.000
 Translational            0.889              2.981             41.284
 Rotational               0.889              2.981             31.206
 Vibrational            154.270             41.267             40.479
 Vibration     1          0.594              1.982              5.395
 Vibration     2          0.596              1.974              4.495
 Vibration     3          0.600              1.962              3.847
 Vibration     4          0.607              1.941              3.256
 Vibration     5          0.609              1.934              3.126
 Vibration     6          0.619              1.900              2.643
 Vibration     7          0.630              1.865              2.314
 Vibration     8          0.647              1.812              1.965
 Vibration     9          0.660              1.771              1.766
 Vibration    10          0.667              1.749              1.673
 Vibration    11          0.700              1.652              1.355
 Vibration    12          0.715              1.609              1.243
 Vibration    13          0.758              1.491              1.000
 Vibration    14          0.805              1.371              0.809
 Vibration    15          0.818              1.338              0.766
 Vibration    16          0.871              1.214              0.619
 Vibration    17          0.930              1.088              0.497
 Vibration    18          0.939              1.069              0.481

 Optimization completed.
    -- Stationary point found.
 Normal termination of Gaussian 16 at Wed Dec  9 18:22:09 2020.

 ----------------------------------------------------------------------
 # B3LYP/6-311++G(d,p) empiricaldispersion=gd3bj scf=xqc pop=npa geom=c
 heck
 ----------------------------------------------------------------------

 ---------------------------------------
 CID_136318914_JID_2922_Energie_neutraal
 ---------------------------------------
 Structure from the checkpoint file:  "JID_2922.chk"
 Charge =  0 Multiplicity = 1

 SCF Done:  E(RB3LYP) =  -553.593013823     A.U. after   14 cycles
 Normal termination of Gaussian 16 at Wed Dec  9 18:24:53 2020.

 ----------------------------------------------------------------------
 # B3LYP/6-311++G(d,p) empiricaldispersion=gd3bj scf=xqc pop=npa geom=c
 heck
 ----------------------------------------------------------------------

 -------------------------------------
 CID_136318914_JID_2922_Energie_kation
 -------------------------------------
 Structure from the checkpoint file:  "JID_2922.chk"
 Charge =  1 Multiplicity = 2

 SCF Done:  E(UB3LYP) =  -553.280513908     A.U. after   24 cycles
 Normal termination of Gaussian 16 at Wed Dec  9 18:31:42 2020.
 Gaussian 16:  ES64L-G16RevA.03 25-Dec-2016

 ----------------------------------------------------------------------
 # B3LYP/6-311++G(d,p) empiricaldispersion=gd3bj scf=xqc pop=npa geom=c
 heck
 ----------------------------------------------------------------------

 ------------------------------------
 CID_136318914_JID_2922_Energie_anion
 ------------------------------------
 Structure from the checkpoint file:  "JID_2922.chk"
 Charge = -1 Multiplicity = 2

                         Standard orientation:
 ---------------------------------------------------------------------
 Center     Atomic      Atomic             Coordinates (Angstroms)
 Number     Number       Type             X           Y           Z
 ---------------------------------------------------------------------
      1          6           0        3.645063    0.332182    1.263542
      2          6           0        2.942255    0.895269    0.026998
      3          6           0        2.501391   -0.198594   -0.961497
      4          7           0        1.586573   -1.161181   -0.360152
      5          6           0        0.348124   -0.872298   -0.365568
      6          7           0       -0.350965    0.215845   -0.884281
      7          6           0       -1.750697    0.201234   -0.460648
      8          6           0       -1.893562   -1.194436    0.162822
      9          8           0       -2.914280   -1.704800    0.577285
     10          7           0       -0.625212   -1.720628    0.183095
     11          6           0       -2.125132    1.287712    0.557821
     12          6           0       -2.038685    2.703987   -0.013820
     13          1           0        2.991292   -0.366922    1.793077
     14          1           0        3.934754    1.130568    1.955634
     15          1           0        4.552771   -0.213465    0.978996
     16          1           0        2.063907    1.478671    0.341449
     17          1           0        3.605915    1.594332   -0.499558
     18          1           0        2.071983    0.271046   -1.862830
     19          1           0        3.390077   -0.749981   -1.291772
     20          1           0        0.134625    1.098991   -0.940170
     21          1           0       -2.420787    0.269924   -1.327610
     22          1           0       -0.388408   -2.629961    0.554146
     23          1           0       -3.145483    1.074536    0.895754
     24          1           0       -1.470567    1.189453    1.433677
     25          1           0       -2.686305    2.816702   -0.891070
     26          1           0       -2.348549    3.443791    0.731114
     27          1           0       -1.016304    2.962119   -0.317661
 ---------------------------------------------------------------------

 SCF Done:  E(UB3LYP) =  -553.583149025     A.U. after   29 cycles

 The electronic state is 2-A.
 Alpha  occ. eigenvalues --  -19.01227 -14.26487 -14.23781 -14.18262 -10.19096
 Alpha  occ. eigenvalues --  -10.17794 -10.12673 -10.08980 -10.07955 -10.06312
 Alpha  occ. eigenvalues --  -10.05977 -10.05521  -0.96714  -0.91267  -0.80617
 Alpha  occ. eigenvalues --   -0.80136  -0.69103  -0.67169  -0.61594  -0.58490
 Alpha  occ. eigenvalues --   -0.54119  -0.52742  -0.50144  -0.48196  -0.41849
 Alpha  occ. eigenvalues --   -0.40145  -0.38647  -0.37165  -0.36330  -0.35164
 Alpha  occ. eigenvalues --   -0.34224  -0.33300  -0.33080  -0.30343  -0.29410
 Alpha  occ. eigenvalues --   -0.28566  -0.26985  -0.26184  -0.25546  -0.24858
 Alpha  occ. eigenvalues --   -0.24274  -0.23459  -0.18166  -0.18081  -0.15789
 Alpha  occ. eigenvalues --   -0.13619   0.04418
 Alpha virt. eigenvalues --    0.07112   0.07844   0.07928   0.08661   0.09073
 Alpha virt. eigenvalues --    0.09538   0.10262   0.10601   0.11485   0.11815
 Alpha virt. eigenvalues --    0.12329   0.12743   0.13579   0.14093   0.14404

  Beta  occ. eigenvalues --  -19.01201 -14.26489 -14.23743 -14.18256 -10.19060
  Beta  occ. eigenvalues --  -10.17763 -10.12665 -10.08965 -10.07933 -10.06272
  Beta  occ. eigenvalues --  -10.05904 -10.05504  -0.96662  -0.91223  -0.80587
  Beta  occ. eigenvalues --   -0.80101  -0.69045  -0.67120  -0.61512  -0.58435
  Beta  occ. eigenvalues --   -0.54051  -0.52656  -0.50056  -0.48113  -0.41797
  Beta  occ. eigenvalues --   -0.40074  -0.38579  -0.37119  -0.36269  -0.35119
  Beta  occ. eigenvalues --   -0.34173  -0.33256  -0.33019  -0.30287  -0.29356
  Beta  occ. eigenvalues --   -0.28474  -0.26892  -0.26113  -0.25484  -0.24803
  Beta  occ. eigenvalues --   -0.24211  -0.23418  -0.18138  -0.18024  -0.15765
  Beta  occ. eigenvalues --   -0.13566
  Beta virt. eigenvalues --    0.06876   0.07827   0.08183   0.08524   0.09062
  Beta virt. eigenvalues --    0.09654   0.09924   0.10561   0.11026   0.11850
  Beta virt. eigenvalues --    0.12273   0.12613   0.13276   0.13705   0.14288

 Mulliken charges and spin densities:
               1          2
     1  C    0.260606  -0.823557
     2  C    0.015581   0.027482
     3  C   -0.069564  -0.339021
     4  N   -0.213428   0.108867
     5  C    0.420986  -0.566352
     6  N   -0.157256   0.018281
     7  C    0.565040  -0.472592
     8  C    0.197852  -0.137306
     9  O   -0.377054   0.014039
    10  N   -0.261386   0.006551
    11  C   -1.188045   0.984690
    12  C    1.941438  -2.498644
    13  H    0.016364   0.137996
    14  H   -0.204606   0.331952
    15  H    0.044936   0.068167
    16  H    0.149475  -0.052624
    17  H   -0.542527   0.691912
    18  H   -0.310654   0.466219
    19  H    0.002921   0.160652
    20  H    0.399494  -0.152698
    21  H   -0.236188   0.490290
    22  H    0.266400   0.057301
    23  H    0.094944   0.074615
    24  H   -0.079569   0.238213
    25  H   -0.320949   0.461650
    26  H   -0.610886   0.760660
    27  H   -0.803925   0.943258
 Sum of Mulliken charges =  -1.00000   1.00000

 Dipole moment (field-independent basis, Debye):
    X=              0.1851    Y=             -6.6117    Z=              0.8401  Tot=              6.6674
 Quadrupole moment (field-independent basis, Debye-Ang):
   XX=           -139.7621   YY=           -127.3571   ZZ=           -104.2400
   XY=             -2.0645   XZ=              1.5351   YZ=              1.9474

 Summary of Natural Population Analysis:

                                       Natural Population
                Natural  -----------------------------------------------
    Atom  No    Charge         Core      Valence    Rydberg      Total
 -----------------------------------------------------------------------
      C    1   -0.28686      0.99966     2.28090    0.00629     3.28686
      C    2   -0.19318      0.99964     2.18519    0.00835     3.19318
      C    3   -0.09938      0.99961     2.08648    0.01329     3.09938
      N    4   -0.29224      0.99964     2.78180    0.01080     3.79224
      C    5    0.31257      0.99959     1.67168    0.01615     2.68743
      N    6   -0.33272      0.99968     2.82414    0.00890     3.83272
      C    7   -0.04435      0.99956     2.03122    0.01357     3.04435
      C    8    0.35202      0.99967     1.62467    0.02364     2.64798
      O    9   -0.30806      0.99987     3.30261    0.00558     4.30806
      N   10   -0.31202      0.99963     2.80544    0.00695     3.81202
      C   11   -0.19286      0.99962     2.18399    0.00925     3.19286
      C   12   -0.28681      0.99967     2.28126    0.00588     3.28681
      H   13    0.10144      0.00000     0.39742    0.00115     0.39856
      H   14    0.09737      0.00000     0.40179    0.00083     0.40263
      H   15    0.09241      0.00000     0.40670    0.00089     0.40759
      H   16    0.09315      0.00000     0.40464    0.00221     0.40685
      H   17    0.09768      0.00000     0.40019    0.00214     0.40232
      H   18    0.08835      0.00000     0.40992    0.00173     0.41165
      H   19    0.09022      0.00000     0.40827    0.00151     0.40978
      H   20    0.20504      0.00000     0.29057    0.00440     0.29496
      H   21    0.10609      0.00000     0.39241    0.00150     0.39391
      H   22    0.20463      0.00000     0.29268    0.00269     0.29537
      H   23    0.10612      0.00000     0.39269    0.00119     0.39388
      H   24    0.09808      0.00000     0.40046    0.00146     0.40192
      H   25    0.09903      0.00000     0.39900    0.00197     0.40097
      H   26    0.10422      0.00000     0.39412    0.00166     0.39578
      H   27    0.10007      0.00000     0.39674    0.00319     0.39993
 =======================================================================
   * Total *    0.00000     11.99583    33.84701    0.15716    46.00000

 Normal termination of Gaussian 16 at Wed Dec  9 18:39:45 2020.
