 Gaussian 16, Revision A.03,

 -----------------------------------------------------------
 # opt freq B3LYP/6-31G(d) empiricaldispersion=gd3bj scf=xqc
 -----------------------------------------------------------

 ------------------------------
 CID_68028911_JID_7913_neutraal
 ------------------------------
 Symbolic Z-matrix:
 Charge =  0 Multiplicity = 1

 SCF Done:  E(RB3LYP) =  -807.121660488     A.U. after   14 cycles
 SCF Done:  E(RB3LYP) =  -807.130923005     A.U. after   13 cycles
 SCF Done:  E(RB3LYP) =  -807.127781826     A.U. after   13 cycles
 SCF Done:  E(RB3LYP) =  -807.130916279     A.U. after   13 cycles
 SCF Done:  E(RB3LYP) =  -807.132170155     A.U. after    9 cycles
 SCF Done:  E(RB3LYP) =  -807.132899251     A.U. after   12 cycles
 SCF Done:  E(RB3LYP) =  -807.132882472     A.U. after   12 cycles
 SCF Done:  E(RB3LYP) =  -807.133247177     A.U. after   11 cycles
 SCF Done:  E(RB3LYP) =  -807.133278609     A.U. after   10 cycles
 SCF Done:  E(RB3LYP) =  -807.133331344     A.U. after   10 cycles
 SCF Done:  E(RB3LYP) =  -807.133339346     A.U. after    9 cycles
 SCF Done:  E(RB3LYP) =  -807.133340436     A.U. after    8 cycles
 SCF Done:  E(RB3LYP) =  -807.133340796     A.U. after    7 cycles
 SCF Done:  E(RB3LYP) =  -807.133340842     A.U. after    7 cycles
 SCF Done:  E(RB3LYP) =  -807.133340907     A.U. after    7 cycles
 Optimization completed.
    -- Stationary point found.
 Normal termination of Gaussian 16 at Fri Dec 11 13:03:29 2020.

 --------------------------------------------------------------------
 #N Geom=AllCheck Guess=TCheck SCRF=Check GenChk RB3LYP/6-31G(d) Freq
 --------------------------------------------------------------------

 Structure from the checkpoint file:  "JID_7913.chk"
 ------------------------------
 CID_68028911_JID_7913_neutraal
 ------------------------------
 Charge =  0 Multiplicity = 1

 SCF Done:  E(RB3LYP) =  -807.133340907     A.U. after    1 cycles

  Exact polarizability: 156.427  -9.435 134.096  -9.611  -0.053 126.665
 Approx polarizability: 206.661  -9.205 191.091 -21.815   8.592 210.118

                      1                      2                      3
                      A                      A                      A
 Frequencies --     33.8267                62.1354                89.5280
 Red. masses --      4.6211                 5.2430                 4.3050
 Frc consts  --      0.0031                 0.0119                 0.0203
 IR Inten    --      2.1622                 2.3556                 0.9626

                      4                      5                      6
                      A                      A                      A
 Frequencies --    112.0155               121.7892               145.4349
 Red. masses --      5.7055                 2.8820                 3.8150
 Frc consts  --      0.0422                 0.0252                 0.0475
 IR Inten    --      0.3307                 0.6830                 4.4993

                      7                      8                      9
                      A                      A                      A
 Frequencies --    171.1357               210.1670               220.1333
 Red. masses --      4.5030                 3.2939                 1.6678
 Frc consts  --      0.0777                 0.0857                 0.0476
 IR Inten    --      3.9346                 1.5755                 0.4939

                     10                     11                     12
                      A                      A                      A
 Frequencies --    230.5226               257.7822               272.4588
 Red. masses --      2.4579                 2.3071                 3.5201
 Frc consts  --      0.0770                 0.0903                 0.1540
 IR Inten    --      1.1977                 1.4637                 1.7952

                     13                     14                     15
                      A                      A                      A
 Frequencies --    302.5559               332.1226               383.7919
 Red. masses --      2.6308                 2.5898                 4.9332
 Frc consts  --      0.1419                 0.1683                 0.4281
 IR Inten    --      0.6793                 0.5786                 2.5819

                     16                     17                     18
                      A                      A                      A
 Frequencies --    404.7839               425.7572               452.3094
 Red. masses --      3.3164                 2.4658                 3.5820
 Frc consts  --      0.3202                 0.2633                 0.4318
 IR Inten    --      1.4969                 4.1239                 5.9453

                     19                     20                     21
                      A                      A                      A
 Frequencies --    489.6515               492.6006               515.7533
 Red. masses --      3.0847                 2.5953                 2.3741
 Frc consts  --      0.4357                 0.3710                 0.3721
 IR Inten    --      2.3335                 2.2864                 1.9046

                     22                     23                     24
                      A                      A                      A
 Frequencies --    534.5913               553.6681               580.4882
 Red. masses --      4.7745                 4.0413                 2.6462
 Frc consts  --      0.8039                 0.7299                 0.5254
 IR Inten    --      9.0271                 3.9224                 2.0752

                     25                     26                     27
                      A                      A                      A
 Frequencies --    621.9204               675.6894               709.8210
 Red. masses --      3.9327                 2.9706                 3.2769
 Frc consts  --      0.8962                 0.7991                 0.9728
 IR Inten    --      9.3913                 0.4508                 2.3864

                     28                     29                     30
                      A                      A                      A
 Frequencies --    748.2624               764.7986               770.1018
 Red. masses --      3.2908                 4.0802                 3.9694
 Frc consts  --      1.0856                 1.4061                 1.3870
 IR Inten    --      2.8013                 6.6988                 2.4814

                     31                     32                     33
                      A                      A                      A
 Frequencies --    815.4072               824.8820               867.3355
 Red. masses --      4.1898                 4.0650                 2.7293
 Frc consts  --      1.6413                 1.6296                 1.2097
 IR Inten    --      4.9607                26.2781                 8.0300

                     34                     35                     36
                      A                      A                      A
 Frequencies --    872.1855               894.5346               918.8698
 Red. masses --      3.0030                 2.4493                 2.0311
 Frc consts  --      1.3460                 1.1547                 1.0104
 IR Inten    --      8.1495                 0.7891                 7.4654

                     37                     38                     39
                      A                      A                      A
 Frequencies --    963.6048               968.5834               989.8212
 Red. masses --      2.1778                 2.1788                 2.1316
 Frc consts  --      1.1914                 1.2043                 1.2304
 IR Inten    --      2.3521                 3.8526                19.4291

                     40                     41                     42
                      A                      A                      A
 Frequencies --    996.3999              1017.4872              1025.1438
 Red. masses --      1.3722                 2.3574                 2.1556
 Frc consts  --      0.8026                 1.4379                 1.3347
 IR Inten    --     22.7323                24.4150                10.0056

                     43                     44                     45
                      A                      A                      A
 Frequencies --   1032.7928              1051.5138              1059.2256
 Red. masses --      1.0799                 2.1117                 2.1266
 Frc consts  --      0.6787                 1.3756                 1.4058
 IR Inten    --     20.0899                 2.1982                89.3706

                     46                     47                     48
                      A                      A                      A
 Frequencies --   1064.3453              1092.8863              1117.9218
 Red. masses --      2.7367                 2.4715                 2.1714
 Frc consts  --      1.8266                 1.7393                 1.5988
 IR Inten    --     59.3789               115.0698                53.6305

                     49                     50                     51
                      A                      A                      A
 Frequencies --   1123.1485              1136.8429              1164.1052
 Red. masses --      1.7375                 2.1017                 2.3541
 Frc consts  --      1.2914                 1.6004                 1.8795
 IR Inten    --     29.7085                32.5019                30.4765

                     52                     53                     54
                      A                      A                      A
 Frequencies --   1197.9387              1218.2892              1240.1758
 Red. masses --      1.5978                 1.5841                 1.7036
 Frc consts  --      1.3509                 1.3852                 1.5437
 IR Inten    --     43.2996                31.5667                39.0092

                     55                     56                     57
                      A                      A                      A
 Frequencies --   1264.5759              1277.5571              1305.4754
 Red. masses --      1.4298                 1.5981                 1.6802
 Frc consts  --      1.3471                 1.5368                 1.6871
 IR Inten    --     15.0296                27.2984                65.2682

                     58                     59                     60
                      A                      A                      A
 Frequencies --   1314.3651              1322.5644              1331.5345
 Red. masses --      2.4821                 1.3457                 1.4200
 Frc consts  --      2.5264                 1.3869                 1.4833
 IR Inten    --    233.0443                 3.0658                 8.3208

                     61                     62                     63
                      A                      A                      A
 Frequencies --   1342.4942              1352.9638              1361.7972
 Red. masses --      1.2986                 1.3278                 1.2727
 Frc consts  --      1.3790                 1.4320                 1.3906
 IR Inten    --      6.4358                 8.9656                12.7517

                     64                     65                     66
                      A                      A                      A
 Frequencies --   1368.6304              1386.6595              1394.9755
 Red. masses --      1.4054                 1.3768                 1.3577
 Frc consts  --      1.5511                 1.5598                 1.5567
 IR Inten    --     15.1040                 3.2588                 4.3559

                     67                     68                     69
                      A                      A                      A
 Frequencies --   1404.9246              1429.0058              1450.6981
 Red. masses --      1.2774                 1.2732                 1.2105
 Frc consts  --      1.4855                 1.5319                 1.5010
 IR Inten    --     10.6999                22.5182                 5.0044

                     70                     71                     72
                      A                      A                      A
 Frequencies --   1456.5228              1464.1709              1510.9066
 Red. masses --      1.2192                 1.3159                 1.0923
 Frc consts  --      1.5239                 1.6621                 1.4691
 IR Inten    --     26.3915                21.1312                 5.1226

                     73                     74                     75
                      A                      A                      A
 Frequencies --   1513.9753              1531.6925              1537.0209
 Red. masses --      1.0833                 1.0642                 1.0579
 Frc consts  --      1.4629                 1.4711                 1.4725
 IR Inten    --      4.1739                 6.4764                 8.6371

                     76                     77                     78
                      A                      A                      A
 Frequencies --   1544.5768              1556.9960              1616.0125
 Red. masses --      1.0541                 1.0862                 1.0752
 Frc consts  --      1.4817                 1.5514                 1.6544
 IR Inten    --      3.1619                 8.1895                 4.6803

                     79                     80                     81
                      A                      A                      A
 Frequencies --   1703.5614              1786.1670              1847.9945
 Red. masses --      4.6483                 9.7328                11.9002
 Frc consts  --      7.9481                18.2949                23.9446
 IR Inten    --     16.6778               237.9978               317.0638

                     82                     83                     84
                      A                      A                      A
 Frequencies --   3039.9850              3055.1617              3059.1921
 Red. masses --      1.0670                 1.0747                 1.0392
 Frc consts  --      5.8097                 5.9105                 5.7302
 IR Inten    --      7.1077                34.1263                22.2181

                     85                     86                     87
                      A                      A                      A
 Frequencies --   3068.9030              3072.0098              3080.0843
 Red. masses --      1.0685                 1.0671                 1.0811
 Frc consts  --      5.9292                 5.9335                 6.0429
 IR Inten    --     10.1288                31.1225                36.6538

                     88                     89                     90
                      A                      A                      A
 Frequencies --   3082.0266              3095.1743              3110.6603
 Red. masses --      1.0863                 1.0883                 1.1022
 Frc consts  --      6.0793                 6.1426                 6.2834
 IR Inten    --     48.0451                25.5305                21.2673

                     91                     92                     93
                      A                      A                      A
 Frequencies --   3116.4324              3123.2821              3126.4306
 Red. masses --      1.0871                 1.1021                 1.0969
 Frc consts  --      6.2206                 6.3343                 6.3170
 IR Inten    --     34.0110                21.1623                 9.0196

                     94                     95                     96
                      A                      A                      A
 Frequencies --   3136.9725              3157.2108              3181.6234
 Red. masses --      1.0999                 1.1006                 1.0590
 Frc consts  --      6.3772                 6.4637                 6.3159
 IR Inten    --     28.7860                 3.9521                 5.4601

                     97                     98                     99
                      A                      A                      A
 Frequencies --   3215.4127              3244.0382              3271.5422
 Red. masses --      1.0942                 1.0803                 1.1163
 Frc consts  --      6.6653                 6.6983                 7.0391
 IR Inten    --      3.6086                 2.9751                 5.5497

 - Thermochemistry -
 -------------------
 Temperature   298.150 Kelvin.  Pressure   1.00000 Atm.
 Atom     1 has atomic number  6 and mass  12.00000

 Molecular mass:   238.12051 amu.
 Principal axes and moments of inertia in atomic units:
                           1         2         3
     Eigenvalues --  2611.940614618.680615485.92909
           X            0.99932  -0.03273  -0.01690
           Y            0.03184   0.99822  -0.05043
           Z            0.01852   0.04986   0.99858
 This molecule is an asymmetric top.
 Rotational symmetry number  1.
 Warning -- assumption of classical behavior for rotation
           may cause significant error
 Rotational temperatures (Kelvin)      0.03316     0.01875     0.01579
 Rotational constants (GHZ):           0.69096     0.39075     0.32898
 Zero-point vibrational energy     789254.2 (Joules/Mol)
                                  188.63628 (Kcal/Mol)
 Warning -- explicit consideration of  24 degrees of freedom as
           vibrations may cause significant error
 Vibrational temperatures:     48.67    89.40   128.81   161.17   175.23
          (Kelvin)            209.25   246.23   302.38   316.72   331.67
                              370.89   392.01   435.31   477.85   552.19
                              582.39   612.57   650.77   704.50   708.74
                              742.05   769.16   796.60   835.19   894.80
                              972.17  1021.27  1076.58  1100.37  1108.00
                             1173.19  1186.82  1247.90  1254.88  1287.04
                             1322.05  1386.41  1393.58  1424.13  1433.60
                             1463.94  1474.95  1485.96  1512.89  1523.99
                             1531.36  1572.42  1608.44  1615.96  1635.66
                             1674.89  1723.57  1752.85  1784.34  1819.44
                             1838.12  1878.29  1891.08  1902.88  1915.78
                             1931.55  1946.61  1959.32  1969.15  1995.09
                             2007.06  2021.37  2056.02  2087.23  2095.61
                             2106.62  2173.86  2178.27  2203.76  2211.43
                             2222.30  2240.17  2325.08  2451.04  2569.90
                             2658.85  4373.86  4395.70  4401.50  4415.47
                             4419.94  4431.55  4434.35  4453.27  4475.55
                             4483.85  4493.71  4498.24  4513.40  4542.52
                             4577.65  4626.26  4667.45  4707.02

 Zero-point correction=                           0.300611 (Hartree/Particle)
 Thermal correction to Energy=                    0.315984
 Thermal correction to Enthalpy=                  0.316928
 Thermal correction to Gibbs Free Energy=         0.258284
 Sum of electronic and zero-point Energies=           -806.832730
 Sum of electronic and thermal Energies=              -806.817357
 Sum of electronic and thermal Enthalpies=            -806.816413
 Sum of electronic and thermal Free Energies=         -806.875057

                     E (Thermal)             CV                S
                      KCal/Mol        Cal/Mol-Kelvin    Cal/Mol-Kelvin
 Total                  198.283             60.776            123.427
 Electronic               0.000              0.000              0.000
 Translational            0.889              2.981             42.304
 Rotational               0.889              2.981             32.559
 Vibrational            196.505             54.815             48.564
 Vibration     1          0.594              1.983              5.591
 Vibration     2          0.597              1.972              4.388
 Vibration     3          0.602              1.957              3.670
 Vibration     4          0.607              1.940              3.234
 Vibration     5          0.609              1.931              3.072
 Vibration     6          0.617              1.908              2.731
 Vibration     7          0.626              1.878              2.423
 Vibration     8          0.642              1.825              2.042
 Vibration     9          0.647              1.810              1.958
 Vibration    10          0.652              1.794              1.875
 Vibration    11          0.667              1.750              1.677
 Vibration    12          0.675              1.724              1.581
 Vibration    13          0.694              1.669              1.403
 Vibration    14          0.714              1.611              1.250
 Vibration    15          0.753              1.505              1.024
 Vibration    16          0.770              1.460              0.945
 Vibration    17          0.788              1.414              0.873
 Vibration    18          0.811              1.356              0.789
 Vibration    19          0.845              1.273              0.685
 Vibration    20          0.848              1.266              0.677
 Vibration    21          0.871              1.215              0.620
 Vibration    22          0.890              1.174              0.577
 Vibration    23          0.909              1.132              0.537
 Vibration    24          0.937              1.073              0.484

                           ! Non-Optimized Parameters !
 Normal termination of Gaussian 16 at Fri Dec 11 13:17:50 2020.

 ----------------------------------------------------------------------
 # B3LYP/6-311++G(d,p) empiricaldispersion=gd3bj scf=xqc pop=npa geom=c
 heck
 ----------------------------------------------------------------------

 --------------------------------------
 CID_68028911_JID_7913_Energie_neutraal
 --------------------------------------
 Structure from the checkpoint file:  "JID_7913.chk"
 Charge =  0 Multiplicity = 1

 SCF Done:  E(RB3LYP) =  -807.362832850     A.U. after   15 cycles
 Normal termination of Gaussian 16 at Fri Dec 11 13:23:33 2020.

 ----------------------------------------------------------------------
 # B3LYP/6-311++G(d,p) empiricaldispersion=gd3bj scf=xqc pop=npa geom=c
 heck
 ----------------------------------------------------------------------

 ------------------------------------
 CID_68028911_JID_7913_Energie_kation
 ------------------------------------
 Structure from the checkpoint file:  "JID_7913.chk"
 Charge =  1 Multiplicity = 2

 SCF Done:  E(UB3LYP) =  -807.022180799     A.U. after   30 cycles
 Normal termination of Gaussian 16 at Fri Dec 11 13:38:35 2020.
 Gaussian 16:  ES64L-G16RevA.03 25-Dec-2016

 ----------------------------------------------------------------------
 # B3LYP/6-311++G(d,p) empiricaldispersion=gd3bj scf=xqc pop=npa geom=c
 heck
 ----------------------------------------------------------------------

 -----------------------------------
 CID_68028911_JID_7913_Energie_anion
 -----------------------------------
 Structure from the checkpoint file:  "JID_7913.chk"
 Charge = -1 Multiplicity = 2

                         Standard orientation:
 ---------------------------------------------------------------------
 Center     Atomic      Atomic             Coordinates (Angstroms)
 Number     Number       Type             X           Y           Z
 ---------------------------------------------------------------------
      1          6           0       -1.282763   -1.450253    1.859919
      2          6           0       -2.203907   -1.017715    0.692256
      3          6           0       -2.691672    0.489258    0.812057
      4          6           0       -1.977851    1.677302    0.089818
      5          6           0       -0.665401    2.261483    0.740423
      6          6           0        0.557802    2.337873   -0.235034
      7          6           0        0.853372    1.028007   -1.063712
      8          6           0       -0.397741    0.220303   -0.832105
      9          6           0       -1.573283    1.112095   -1.260682
     10          8           0       -0.562290   -1.120397   -1.281411
     11          6           0       -1.636779   -1.676103   -0.619802
     12          8           0       -2.065804   -2.735899   -1.001633
     13          8           0        2.085774    0.349846   -0.728924
     14          6           0        2.343459   -0.037105    0.534419
     15          8           0        1.628539    0.201905    1.493055
     16          6           0        3.612948   -0.790083    0.654401
     17          6           0        4.390737   -1.127198   -0.377021
     18          1           0       -1.105330   -2.529803    1.815931
     19          1           0       -1.780800   -1.229869    2.810381
     20          1           0       -0.313551   -0.946199    1.864986
     21          1           0       -3.120343   -1.600926    0.813650
     22          1           0       -3.717466    0.501214    0.425192
     23          1           0       -2.773462    0.693351    1.886896
     24          1           0       -2.717958    2.480699   -0.001174
     25          1           0       -0.376403    1.678683    1.618086
     26          1           0       -0.858033    3.279045    1.097156
     27          1           0        1.451014    2.603938    0.335003
     28          1           0        0.392131    3.149281   -0.951339
     29          1           0        1.011044    1.270657   -2.116594
     30          1           0       -0.401426    0.136959    0.243341
     31          1           0       -2.366640    0.517449   -1.722750
     32          1           0       -1.279813    1.875221   -1.989446
     33          1           0        3.857105   -1.065791    1.675739
     34          1           0        5.306995   -1.691203   -0.229535
     35          1           0        4.129662   -0.853542   -1.393837
 ---------------------------------------------------------------------

 SCF Done:  E(UB3LYP) =  -807.367032616     A.U. after   33 cycles
 SCF Done:  E(UB3LYP) =  -807.367032616     a.u. after    1 cycles

 The electronic state is 2-A.
 Alpha  occ. eigenvalues --  -19.06316 -19.03072 -19.01405 -18.95713 -10.20696
 Alpha  occ. eigenvalues --  -10.14200 -10.13395 -10.12030 -10.10571 -10.08693
 Alpha  occ. eigenvalues --  -10.08511 -10.07369 -10.07327 -10.06791 -10.06768
 Alpha  occ. eigenvalues --  -10.02863 -10.02267  -1.00357  -0.96852  -0.92880
 Alpha  occ. eigenvalues --   -0.87772  -0.75713  -0.70633  -0.66511  -0.63732
 Alpha  occ. eigenvalues --   -0.63505  -0.58895  -0.55469  -0.54583  -0.52362
 Alpha  occ. eigenvalues --   -0.48572  -0.47615  -0.45518  -0.43509  -0.39878
 Alpha  occ. eigenvalues --   -0.38614  -0.37175  -0.36061  -0.35356  -0.35226
 Alpha  occ. eigenvalues --   -0.34301  -0.33913  -0.33262  -0.32011  -0.31531
 Alpha  occ. eigenvalues --   -0.30555  -0.29908  -0.28664  -0.28141  -0.27403
 Alpha  occ. eigenvalues --   -0.27127  -0.25957  -0.25553  -0.24516  -0.23959
 Alpha  occ. eigenvalues --   -0.23261  -0.22032  -0.21636  -0.20780  -0.18930
 Alpha  occ. eigenvalues --   -0.18043  -0.17124  -0.14621  -0.13715   0.04254
 Alpha virt. eigenvalues --    0.05724   0.07303   0.08263   0.08321   0.08965
 Alpha virt. eigenvalues --    0.09482   0.10344   0.10478   0.10755   0.11443
 Alpha virt. eigenvalues --    0.11772   0.12458   0.13298   0.13676   0.13824

  Beta  occ. eigenvalues --  -19.06315 -19.03027 -19.01404 -18.95444 -10.20696
  Beta  occ. eigenvalues --  -10.13940 -10.13395 -10.12027 -10.10571 -10.08684
  Beta  occ. eigenvalues --  -10.08498 -10.07353 -10.07316 -10.06788 -10.06759
  Beta  occ. eigenvalues --  -10.02789 -10.01878  -1.00354  -0.96616  -0.92874
  Beta  occ. eigenvalues --   -0.87365  -0.75689  -0.70610  -0.66368  -0.63627
  Beta  occ. eigenvalues --   -0.63113  -0.58822  -0.55451  -0.54479  -0.52195
  Beta  occ. eigenvalues --   -0.48348  -0.47131  -0.45482  -0.43343  -0.39840
  Beta  occ. eigenvalues --   -0.38559  -0.37128  -0.35951  -0.35306  -0.35134
  Beta  occ. eigenvalues --   -0.34008  -0.33782  -0.33118  -0.31945  -0.31298
  Beta  occ. eigenvalues --   -0.30342  -0.29727  -0.28613  -0.28043  -0.27144
  Beta  occ. eigenvalues --   -0.27024  -0.25845  -0.25515  -0.24412  -0.23675
  Beta  occ. eigenvalues --   -0.23033  -0.21992  -0.21585  -0.20698  -0.18900
  Beta  occ. eigenvalues --   -0.17868  -0.16592  -0.13483  -0.12728
  Beta virt. eigenvalues --    0.06480   0.07552   0.08388   0.08601   0.09029
  Beta virt. eigenvalues --    0.09554   0.09902   0.10381   0.10559   0.10897
  Beta virt. eigenvalues --    0.11512   0.11877   0.12431   0.13427   0.13649

 Mulliken charges and spin densities:
               1          2
     1  C   -0.580480   0.011729
     2  C   -0.010006   0.257165
     3  C   -0.046102  -0.756025
     4  C    0.897438  -0.364384
     5  C   -0.685572   0.104323
     6  C    0.769767  -0.895580
     7  C   -0.967265   0.322874
     8  C    0.099791  -0.347320
     9  C   -0.818154   0.236138
    10  O    0.082822   0.005375
    11  C   -0.029827  -0.010654
    12  O   -0.273009   0.000222
    13  O    0.081493   0.001629
    14  C   -0.166738   0.165655
    15  O   -0.247239   0.083602
    16  C   -0.097217   0.014810
    17  C   -0.728771   0.392827
    18  H    0.143210   0.003414
    19  H    0.098365   0.018908
    20  H    0.221687  -0.015647
    21  H    0.205758   0.050130
    22  H    0.024806   0.120054
    23  H    0.159974   0.002228
    24  H   -0.620195   0.856204
    25  H    0.158698   0.112714
    26  H   -0.136372   0.303217
    27  H    0.203126  -0.011444
    28  H   -0.173445   0.344890
    29  H    0.152969   0.043947
    30  H    0.945376  -0.421323
    31  H    0.102274   0.108720
    32  H   -0.100678   0.288591
    33  H    0.141019  -0.000450
    34  H    0.094469  -0.016809
    35  H    0.098026  -0.009730
 Sum of Mulliken charges =  -1.00000   1.00000

 Dipole moment (field-independent basis, Debye):
    X=             -2.9290    Y=              0.0139    Z=              1.2838  Tot=              3.1980
 Quadrupole moment (field-independent basis, Debye-Ang):
   XX=           -158.9467   YY=           -147.4712   ZZ=           -122.6740
   XY=              7.4031   XZ=             -5.5510   YZ=             -5.7922

 Summary of Natural Population Analysis:

                                       Natural Population
                Natural  -----------------------------------------------
    Atom  No    Charge         Core      Valence    Rydberg      Total
 -----------------------------------------------------------------------
      C    1   -0.28992      0.99963     2.28512    0.00517     3.28992
      C    2   -0.16610      0.99954     2.15664    0.00992     3.16610
      C    3   -0.18486      0.99959     2.17480    0.01047     3.18486
      C    4   -0.10957      0.99959     2.09705    0.01293     3.10957
      C    5   -0.20079      0.99961     2.19203    0.00915     3.20079
      C    6   -0.20156      0.99961     2.19320    0.00876     3.20156
      C    7    0.06913      0.99946     1.91588    0.01553     2.93087
      C    8    0.00965      0.99939     1.97400    0.01697     2.99035
      C    9   -0.20120      0.99958     2.19151    0.01010     3.20120
      O   10   -0.27170      0.99985     3.26369    0.00816     4.27170
      C   11    0.41226      0.99963     1.56000    0.02811     2.58774
      O   12   -0.29641      0.99986     3.29033    0.00621     4.29641
      O   13   -0.28419      0.99985     3.27515    0.00919     4.28419
      C   14    0.42076      0.99965     1.55576    0.02383     2.57924
      O   15   -0.31186      0.99987     3.30676    0.00523     4.31186
      C   16   -0.14766      0.99953     2.13818    0.00995     3.14766
      C   17   -0.08435      0.99960     2.07721    0.00753     3.08435
      H   18    0.10163      0.00000     0.39760    0.00077     0.39837
      H   19    0.09578      0.00000     0.40346    0.00076     0.40422
      H   20    0.12103      0.00000     0.37782    0.00116     0.37897
      H   21    0.11026      0.00000     0.38802    0.00172     0.38974
      H   22    0.09987      0.00000     0.39905    0.00107     0.40013
      H   23    0.10053      0.00000     0.39856    0.00091     0.39947
      H   24    0.10077      0.00000     0.39730    0.00193     0.39923
      H   25    0.11149      0.00000     0.38725    0.00126     0.38851
      H   26    0.10235      0.00000     0.39670    0.00095     0.39765
      H   27    0.11536      0.00000     0.38385    0.00079     0.38464
      H   28    0.09762      0.00000     0.40124    0.00115     0.40238
      H   29    0.09356      0.00000     0.40528    0.00116     0.40644
      H   30    0.11993      0.00000     0.37535    0.00471     0.38007
      H   31    0.10372      0.00000     0.39499    0.00128     0.39628
      H   32    0.10384      0.00000     0.39498    0.00118     0.39616
      H   33    0.09219      0.00000     0.40683    0.00098     0.40781
      H   34    0.07882      0.00000     0.42010    0.00108     0.42118
      H   35    0.08963      0.00000     0.40940    0.00097     0.41037
 =======================================================================
   * Total *   -0.00000     16.99385    46.78512    0.22103    64.00000

 Normal termination of Gaussian 16 at Fri Dec 11 13:55:22 2020.
