 Gaussian 16, Revision A.03,

 -----------------------------------------------------------
 # opt freq B3LYP/6-31G(d) empiricaldispersion=gd3bj scf=xqc
 -----------------------------------------------------------

 ------------------------------
 CID_148402919_JID_465_neutraal
 ------------------------------
 Symbolic Z-matrix:
 Charge =  0 Multiplicity = 1

 SCF Done:  E(RB3LYP) =  -749.595210643     A.U. after   14 cycles
 SCF Done:  E(RB3LYP) =  -749.598358495     A.U. after   12 cycles
 SCF Done:  E(RB3LYP) =  -749.598662308     A.U. after   12 cycles
 SCF Done:  E(RB3LYP) =  -749.598690532     A.U. after   11 cycles
 SCF Done:  E(RB3LYP) =  -749.598711083     A.U. after   10 cycles
 SCF Done:  E(RB3LYP) =  -749.598739902     A.U. after   10 cycles
 SCF Done:  E(RB3LYP) =  -749.598815366     A.U. after   11 cycles
 SCF Done:  E(RB3LYP) =  -749.598830263     A.U. after   11 cycles
 SCF Done:  E(RB3LYP) =  -749.598845264     A.U. after    8 cycles
 SCF Done:  E(RB3LYP) =  -749.597910928     A.U. after   14 cycles
 SCF Done:  E(RB3LYP) =  -749.599200068     A.U. after   11 cycles
 SCF Done:  E(RB3LYP) =  -749.598871793     A.U. after   12 cycles
 SCF Done:  E(RB3LYP) =  -749.599249799     A.U. after   12 cycles
 SCF Done:  E(RB3LYP) =  -749.599258240     A.U. after   10 cycles
 SCF Done:  E(RB3LYP) =  -749.599258934     A.U. after    8 cycles
 SCF Done:  E(RB3LYP) =  -749.599258998     A.U. after    7 cycles
 Optimization completed.
    -- Stationary point found.

 1\1\GINC-NODE206\FOpt\RB3LYP\6-31G(d)\C9H14S1\VSC10255\08-Dec-2020\0\\
 # opt freq B3LYP/6-31G(d) empiricaldispersion=gd3bj scf=xqc\\CID_14840
 2919_JID_465_neutraal\\0,1\C,0.8796456469,0.1473754884,0.4540152929\C,
 0.9209782499,-1.3487566245,0.1347746272\C,1.4633593819,-2.2317361573,1
 .2789984631\C,0.6948551861,-2.0742766841,2.5718363985\C,-0.4015033108,
 -2.8028226355,2.814433531\S,-1.472654577,-2.5542384606,4.2018153181\C,
 -1.0980856511,-0.8591689543,4.5563812327\C,0.0487070654,-0.2596891296,
 4.2166158336\C,1.1758795777,-1.0471264036,3.5786516954\C,0.2921713943,

 Normal termination of Gaussian 16 at Tue Dec  8 10:43:05 2020.

 --------------------------------------------------------------------
 #N Geom=AllCheck Guess=TCheck SCRF=Check GenChk RB3LYP/6-31G(d) Freq
 --------------------------------------------------------------------

 Structure from the checkpoint file:  "JID_465.chk"
 ------------------------------
 CID_148402919_JID_465_neutraal
 ------------------------------
 Charge =  0 Multiplicity = 1

 SCF Done:  E(RB3LYP) =  -749.599258998     A.U. after    1 cycles

  Exact polarizability: 122.715   5.683 118.559  11.508   6.713  81.438
 Approx polarizability: 176.868  22.044 181.622  28.679  21.034 128.139

                      1                      2                      3
                      A                      A                      A
 Frequencies --     45.6523                57.6151               134.6004
 Red. masses --      3.1769                 3.1049                 1.9540
 Frc consts  --      0.0039                 0.0061                 0.0209
 IR Inten    --      0.4515                 0.0580                 0.1199

                      4                      5                      6
                      A                      A                      A
 Frequencies --    151.7034               191.7958               235.9469
 Red. masses --      2.8807                 1.5085                 1.7846
 Frc consts  --      0.0391                 0.0327                 0.0585
 IR Inten    --      0.3050                 0.4212                 0.3953

                      7                      8                      9
                      A                      A                      A
 Frequencies --    255.1639               285.6715               312.4284
 Red. masses --      2.9672                 1.2474                 2.0257
 Frc consts  --      0.1138                 0.0600                 0.1165
 IR Inten    --      0.4698                 0.2358                 0.9088

                     10                     11                     12
                      A                      A                      A
 Frequencies --    365.4833               393.7328               414.8381
 Red. masses --      2.6622                 2.5317                 3.5961
 Frc consts  --      0.2095                 0.2312                 0.3646
 IR Inten    --      0.8926                 0.4184                 0.2470

                     13                     14                     15
                      A                      A                      A
 Frequencies --    453.9344               476.1576               529.2078
 Red. masses --      4.3223                 3.3759                 4.6104
 Frc consts  --      0.5248                 0.4510                 0.7607
 IR Inten    --      0.2581                 6.9463                 4.7353

                     16                     17                     18
                      A                      A                      A
 Frequencies --    572.5128               775.2269               801.2909
 Red. masses --      2.5202                 1.5043                 2.7746
 Frc consts  --      0.4867                 0.5327                 1.0496
 IR Inten    --      2.0488                 3.8573                11.0706

                     19                     20                     21
                      A                      A                      A
 Frequencies --    804.8343               808.1528               833.9225
 Red. masses --      2.1793                 1.5206                 1.6100
 Frc consts  --      0.8317                 0.5851                 0.6597
 IR Inten    --     12.8946                17.5169                22.2652

                     22                     23                     24
                      A                      A                      A
 Frequencies --    870.7987               883.6904               904.9323
 Red. masses --      2.6789                 3.0795                 1.6606
 Frc consts  --      1.1968                 1.4169                 0.8012
 IR Inten    --      7.3207                 1.6967                 1.5540

                     25                     26                     27
                      A                      A                      A
 Frequencies --    919.0786               961.3043              1054.8750
 Red. masses --      2.1254                 1.7939                 1.6228
 Frc consts  --      1.0578                 0.9767                 1.0640
 IR Inten    --      1.0022                 2.2154                 4.6717

                     28                     29                     30
                      A                      A                      A
 Frequencies --   1060.0288              1073.9837              1096.3673
 Red. masses --      1.7106                 1.5157                 1.9685
 Frc consts  --      1.1325                 1.0301                 1.3941
 IR Inten    --      1.5383                 1.8995                 0.2818

                     31                     32                     33
                      A                      A                      A
 Frequencies --   1130.2905              1156.8330              1192.0636
 Red. masses --      1.5498                 1.7657                 2.4013
 Frc consts  --      1.1665                 1.3922                 2.0105
 IR Inten    --      0.1303                 3.5246                 3.4465

                     34                     35                     36
                      A                      A                      A
 Frequencies --   1247.0243              1255.9434              1295.5702
 Red. masses --      1.1569                 1.2789                 1.2837
 Frc consts  --      1.0600                 1.1886                 1.2695
 IR Inten    --      1.5571                 1.4835                12.4529

                     37                     38                     39
                      A                      A                      A
 Frequencies --   1307.4719              1349.6524              1378.6098
 Red. masses --      1.2564                 1.5275                 1.3689
 Frc consts  --      1.2654                 1.6394                 1.5328
 IR Inten    --      0.6755                 0.1713                 5.7069

                     40                     41                     42
                      A                      A                      A
 Frequencies --   1392.9948              1397.2942              1439.9871
 Red. masses --      1.4006                 1.8715                 1.2629
 Frc consts  --      1.6013                 2.1528                 1.5429
 IR Inten    --      6.5541                 1.1800                 2.2824

                     43                     44                     45
                      A                      A                      A
 Frequencies --   1443.2788              1503.4360              1508.4356
 Red. masses --      1.2622                 1.0733                 1.0566
 Frc consts  --      1.5490                 1.4293                 1.4164
 IR Inten    --      3.8275                 5.2077                 2.1675

                     46                     47                     48
                      A                      A                      A
 Frequencies --   1515.3491              1518.5576              1520.4460
 Red. masses --      1.0856                 1.0677                 1.0861
 Frc consts  --      1.4687                 1.4506                 1.4794
 IR Inten    --      1.3876                 5.9643                 2.7416

                     49                     50                     51
                      A                      A                      A
 Frequencies --   1533.2483              1543.2100              1686.2526
 Red. masses --      1.0525                 1.0549                 6.4826
 Frc consts  --      1.4578                 1.4802                10.8604
 IR Inten    --      3.8479                 5.5290                12.3739

                     52                     53                     54
                      A                      A                      A
 Frequencies --   1717.6449              2965.3236              3025.9746
 Red. masses --      6.9391                 1.0739                 1.0386
 Frc consts  --     12.0620                 5.5636                 5.6031
 IR Inten    --      1.3712                34.5941                36.5072

                     55                     56                     57
                      A                      A                      A
 Frequencies --   3030.4639              3036.8915              3043.7081
 Red. masses --      1.0625                 1.0618                 1.0377
 Frc consts  --      5.7488                 5.7695                 5.6643
 IR Inten    --     27.0604                38.8067                22.7645

                     58                     59                     60
                      A                      A                      A
 Frequencies --   3070.4335              3071.3677              3080.5071
 Red. masses --      1.0989                 1.0999                 1.1016
 Frc consts  --      6.1041                 6.1132                 6.1593
 IR Inten    --     28.2076                26.3517                18.3996

                     61                     62                     63
                      A                      A                      A
 Frequencies --   3090.4990              3110.0097              3120.4336
 Red. masses --      1.0873                 1.1009                 1.1024
 Frc consts  --      6.1189                 6.2738                 6.3243
 IR Inten    --     33.9772                45.9842                48.3448

                     64                     65                     66
                      A                      A                      A
 Frequencies --   3125.3056              3196.3594              3204.0600
 Red. masses --      1.0994                 1.0912                 1.0915
 Frc consts  --      6.3268                 6.5682                 6.6018
 IR Inten    --     19.4473                10.2380                 9.5583

 - Thermochemistry -
 -------------------
 Temperature   298.150 Kelvin.  Pressure   1.00000 Atm.
 Atom     1 has atomic number  6 and mass  12.00000

 Molecular mass:   154.08162 amu.
 Principal axes and moments of inertia in atomic units:
                           1         2         3
     Eigenvalues --  1230.238942007.013532783.69973
           X            0.99872  -0.05011  -0.00730
           Y            0.05006   0.99872  -0.00789
           Z            0.00769   0.00751   0.99994
 This molecule is an asymmetric top.
 Rotational symmetry number  1.
 Warning -- assumption of classical behavior for rotation
           may cause significant error
 Rotational temperatures (Kelvin)      0.07040     0.04316     0.03111
 Rotational constants (GHZ):           1.46698     0.89922     0.64832
 Zero-point vibrational energy     549862.7 (Joules/Mol)
                                  131.42034 (Kcal/Mol)
 Warning -- explicit consideration of  16 degrees of freedom as
           vibrations may cause significant error
 Vibrational temperatures:     65.68    82.90   193.66   218.27   275.95
          (Kelvin)            339.47   367.12   411.02   449.51   525.85
                              566.49   596.86   653.11   685.08   761.41
                              823.72  1115.38  1152.88  1157.98  1162.75
                             1199.83  1252.89  1271.43  1302.00  1322.35
                             1383.10  1517.73  1525.14  1545.22  1577.43
                             1626.24  1664.42  1715.11  1794.19  1807.02
                             1864.04  1881.16  1941.85  1983.51  2004.21
                             2010.39  2071.82  2076.56  2163.11  2170.30
                             2180.25  2184.87  2187.58  2206.00  2220.33
                             2426.14  2471.31  4266.44  4353.70  4360.16
                             4369.41  4379.22  4417.67  4419.01  4432.16
                             4446.54  4474.61  4489.61  4496.62  4598.85
                             4609.93

 Zero-point correction=                           0.209432 (Hartree/Particle)
 Thermal correction to Energy=                    0.220429
 Thermal correction to Enthalpy=                  0.221373
 Thermal correction to Gibbs Free Energy=         0.172435
 Sum of electronic and zero-point Energies=           -749.389827
 Sum of electronic and thermal Energies=              -749.378830
 Sum of electronic and thermal Enthalpies=            -749.377886
 Sum of electronic and thermal Free Energies=         -749.426824

                     E (Thermal)             CV                S
                      KCal/Mol        Cal/Mol-Kelvin    Cal/Mol-Kelvin
 Total                  138.321             41.309            103.000
 Electronic               0.000              0.000              0.000
 Translational            0.889              2.981             41.007
 Rotational               0.889              2.981             30.309
 Vibrational            136.544             35.348             31.684
 Vibration     1          0.595              1.979              4.997
 Vibration     2          0.596              1.974              4.537
 Vibration     3          0.613              1.919              2.879
 Vibration     4          0.619              1.901              2.651
 Vibration     5          0.634              1.851              2.210
 Vibration     6          0.655              1.786              1.833
 Vibration     7          0.666              1.754              1.695
 Vibration     8          0.683              1.700              1.499
 Vibration     9          0.701              1.650              1.349
 Vibration    10          0.739              1.543              1.099
 Vibration    11          0.761              1.484              0.986
 Vibration    12          0.778              1.438              0.910
 Vibration    13          0.812              1.352              0.784
 Vibration    14          0.833              1.303              0.721
 Vibration    15          0.884              1.185              0.589
 Vibration    16          0.929              1.091              0.499

 Optimization completed.
    -- Stationary point found.

 1\1\GINC-NODE206\Freq\RB3LYP\6-31G(d)\C9H14S1\VSC10255\08-Dec-2020\0\\
 #N Geom=AllCheck Guess=TCheck SCRF=Check GenChk RB3LYP/6-31G(d) Freq\\
 CID_148402919_JID_465_neutraal\\0,1\C,0.8796456469,0.1473754884,0.4540
 152929\C,0.9209782499,-1.3487566245,0.1347746272\C,1.4633593819,-2.231
 7361573,1.2789984631\C,0.6948551861,-2.0742766841,2.5718363985\C,-0.40
 15033108,-2.8028226355,2.814433531\S,-1.472654577,-2.5542384606,4.2018
 153181\C,-1.0980856511,-0.8591689543,4.5563812327\C,0.0487070654,-0.25
 96891296,4.2166158336\C,1.1758795777,-1.0471264036,3.5786516954\C,0.29

 Normal termination of Gaussian 16 at Tue Dec  8 10:48:41 2020.

 ----------------------------------------------------------------------
 # B3LYP/6-311++G(d,p) empiricaldispersion=gd3bj scf=xqc pop=npa geom=c
 heck
 ----------------------------------------------------------------------

 --------------------------------------
 CID_148402919_JID_465_Energie_neutraal
 --------------------------------------
 Structure from the checkpoint file:  "JID_465.chk"
 Charge =  0 Multiplicity = 1

 SCF Done:  E(RB3LYP) =  -749.720353785     A.U. after   15 cycles
 Normal termination of Gaussian 16 at Tue Dec  8 10:52:33 2020.

 ----------------------------------------------------------------------
 # B3LYP/6-311++G(d,p) empiricaldispersion=gd3bj scf=xqc pop=npa geom=c
 heck
 ----------------------------------------------------------------------

 ------------------------------------
 CID_148402919_JID_465_Energie_kation
 ------------------------------------
 Structure from the checkpoint file:  "JID_465.chk"
 Charge =  1 Multiplicity = 2

 SCF Done:  E(UB3LYP) =  -749.447643160     A.U. after   20 cycles
 Normal termination of Gaussian 16 at Tue Dec  8 10:59:37 2020.
 Gaussian 16:  ES64L-G16RevA.03 25-Dec-2016

 -----------------------------------
 CID_148402919_JID_465_Energie_anion
 -----------------------------------
 Structure from the checkpoint file:  "JID_465.chk"
 Charge = -1 Multiplicity = 2

                         Standard orientation:
 ---------------------------------------------------------------------
 Center     Atomic      Atomic             Coordinates (Angstroms)
 Number     Number       Type             X           Y           Z
 ---------------------------------------------------------------------
      1          6           0        2.564691    1.060509   -0.870535
      2          6           0        2.803449   -0.402250   -0.489271
      3          6           0        2.012478   -0.877517    0.748293
      4          6           0        0.517970   -0.692494    0.610330
      5          6           0       -0.241200   -1.629170    0.029010
      6         16           0       -1.957447   -1.421342   -0.352158
      7          6           0       -2.023741    0.347386   -0.432694
      8          6           0       -1.160558    1.157393    0.190808
      9          6           0       -0.101265    0.595487    1.118026
     10          6           0       -1.210752    2.652077    0.032640
     11          1           0        1.516807    1.229169   -1.142065
     12          1           0        3.181129    1.346576   -1.729699
     13          1           0        2.814002    1.735968   -0.042583
     14          1           0        2.530357   -1.042987   -1.337503
     15          1           0        3.873180   -0.565484   -0.302198
     16          1           0        2.239066   -1.937458    0.916402
     17          1           0        2.367918   -0.335403    1.635540
     18          1           0        0.166057   -2.580110   -0.303114
     19          1           0       -2.819394    0.724391   -1.068224
     20          1           0       -0.554596    0.408243    2.107875
     21          1           0        0.679217    1.344671    1.284718
     22          1           0       -2.031303    2.967526   -0.618912
     23          1           0       -1.338044    3.145232    1.006510
     24          1           0       -0.271675    3.032615   -0.391858
 ---------------------------------------------------------------------

 SCF Done:  E(UB3LYP) =  -749.703975948     A.U. after   31 cycles

 The electronic state is 2-A.
 Alpha  occ. eigenvalues --  -88.75514 -10.08845 -10.08602 -10.08350 -10.07890
 Alpha  occ. eigenvalues --  -10.07506 -10.06710 -10.06565 -10.06261 -10.05007
 Alpha  occ. eigenvalues --   -7.84126  -5.80491  -5.80100  -5.79592  -0.75642
 Alpha  occ. eigenvalues --   -0.69980  -0.67554  -0.64740  -0.59170  -0.57949
 Alpha  occ. eigenvalues --   -0.53265  -0.49352  -0.44969  -0.40435  -0.37256
 Alpha  occ. eigenvalues --   -0.36760  -0.34472  -0.33164  -0.32415  -0.31344
 Alpha  occ. eigenvalues --   -0.29822  -0.29058  -0.27486  -0.27282  -0.25585
 Alpha  occ. eigenvalues --   -0.24275  -0.23573  -0.22768  -0.21628  -0.21051
 Alpha  occ. eigenvalues --   -0.15482  -0.10125   0.04699
 Alpha virt. eigenvalues --    0.06569   0.07811   0.08024   0.08904   0.09417
 Alpha virt. eigenvalues --    0.09718   0.10140   0.10777   0.11216   0.11599
 Alpha virt. eigenvalues --    0.12030   0.12986   0.13177   0.13769   0.14690

  Beta  occ. eigenvalues --  -88.75512 -10.08835 -10.08571 -10.08347 -10.07887
  Beta  occ. eigenvalues --  -10.07480 -10.06689 -10.06523 -10.06240 -10.04969
  Beta  occ. eigenvalues --   -7.84124  -5.80490  -5.80096  -5.79588  -0.75616
  Beta  occ. eigenvalues --   -0.69945  -0.67516  -0.64704  -0.59102  -0.57887
  Beta  occ. eigenvalues --   -0.53220  -0.49275  -0.44908  -0.40381  -0.37216
  Beta  occ. eigenvalues --   -0.36715  -0.34443  -0.33111  -0.32366  -0.31308
  Beta  occ. eigenvalues --   -0.29778  -0.29012  -0.27440  -0.27248  -0.25543
  Beta  occ. eigenvalues --   -0.24221  -0.23535  -0.22727  -0.21587  -0.21020
  Beta  occ. eigenvalues --   -0.15417  -0.10086
  Beta virt. eigenvalues --    0.07048   0.07502   0.08546   0.08649   0.09407
  Beta virt. eigenvalues --    0.09876   0.10111   0.10605   0.11287   0.11461
  Beta virt. eigenvalues --    0.12103   0.12322   0.13413   0.13561   0.13976

 Mulliken charges and spin densities:
               1          2
     1  C    0.941923  -1.609657
     2  C   -0.455807   0.312507
     3  C    0.802907  -1.307274
     4  C    0.034088   0.642933
     5  C    0.094552  -0.233114
     6  S    0.255210  -0.694325
     7  C    0.268346  -0.524482
     8  C   -0.959822   1.390101
     9  C   -1.434169   0.824711
    10  C    2.642221  -3.356375
    11  H    0.200559  -0.061862
    12  H   -0.229111   0.371702
    13  H   -0.290642   0.447911
    14  H   -0.018581   0.149446
    15  H   -0.425642   0.570512
    16  H   -0.255969   0.407738
    17  H   -0.445325   0.623476
    18  H   -0.243814   0.504652
    19  H   -0.317493   0.576225
    20  H   -0.181905   0.379676
    21  H    0.060017   0.089464
    22  H   -0.399634   0.534622
    23  H   -0.350817   0.508468
    24  H   -0.291090   0.452946
 Sum of Mulliken charges =  -1.00000   1.00000

 Dipole moment (field-independent basis, Debye):
    X=             -3.3013    Y=             -3.3566    Z=             -0.7456  Tot=              4.7667
 Quadrupole moment (field-independent basis, Debye-Ang):
   XX=           -130.7211   YY=           -121.3845   ZZ=           -102.7804
   XY=              3.7565   XZ=             -1.7100   YZ=              1.8277

 Summary of Natural Population Analysis:

                                       Natural Population
                Natural  -----------------------------------------------
    Atom  No    Charge         Core      Valence    Rydberg      Total
 -----------------------------------------------------------------------
      C    1   -0.28845      0.99966     2.28311    0.00568     3.28845
      C    2   -0.18249      0.99963     2.17498    0.00787     3.18249
      C    3   -0.19735      0.99958     2.18748    0.01030     3.19735
      C    4   -0.01017      0.99945     1.99737    0.01335     3.01017
      C    5   -0.17565      0.99933     2.16660    0.00972     3.17565
      S    6    0.13141      4.99952     2.84705    0.02203     7.86859
      C    7   -0.18340      0.99934     2.17277    0.01129     3.18340
      C    8   -0.01126      0.99946     1.99949    0.01231     3.01126
      C    9   -0.21872      0.99954     2.20803    0.01115     3.21872
      C   10   -0.29112      0.99962     2.28537    0.00613     3.29112
      H   11    0.09763      0.00000     0.40069    0.00168     0.40237
      H   12    0.09941      0.00000     0.39952    0.00106     0.40059
      H   13    0.09703      0.00000     0.40137    0.00160     0.40297
      H   14    0.09224      0.00000     0.40643    0.00133     0.40776
      H   15    0.09600      0.00000     0.40221    0.00180     0.40400
      H   16    0.10431      0.00000     0.39389    0.00181     0.39569
      H   17    0.09929      0.00000     0.39896    0.00175     0.40071
      H   18    0.10535      0.00000     0.39350    0.00115     0.39465
      H   19    0.10506      0.00000     0.39395    0.00099     0.39494
      H   20    0.10964      0.00000     0.38891    0.00145     0.39036
      H   21    0.10820      0.00000     0.38963    0.00217     0.39180
      H   22    0.10293      0.00000     0.39564    0.00142     0.39707
      H   23    0.10366      0.00000     0.39484    0.00150     0.39634
      H   24    0.10644      0.00000     0.39180    0.00176     0.39356
 =======================================================================
   * Total *   -0.00000     13.99514    27.87357    0.13130    42.00000

 Normal termination of Gaussian 16 at Tue Dec  8 11:06:21 2020.
