 Gaussian 16, Revision A.03,

 -----------------------------------------------------------
 # opt freq B3LYP/6-31G(d) empiricaldispersion=gd3bj scf=xqc
 -----------------------------------------------------------

 ------------------------------
 CID_43616589_JID_1593_neutraal
 ------------------------------
 Symbolic Z-matrix:
 Charge =  0 Multiplicity = 1

 SCF Done:  E(RB3LYP) =  -483.210960321     A.U. after   15 cycles
 SCF Done:  E(RB3LYP) =  -483.212500292     A.U. after   12 cycles
 SCF Done:  E(RB3LYP) =  -483.212766353     A.U. after   11 cycles
 SCF Done:  E(RB3LYP) =  -483.212925677     A.U. after   11 cycles
 SCF Done:  E(RB3LYP) =  -483.212973492     A.U. after   11 cycles
 SCF Done:  E(RB3LYP) =  -483.213042885     A.U. after   10 cycles
 SCF Done:  E(RB3LYP) =  -483.213065665     A.U. after   11 cycles
 SCF Done:  E(RB3LYP) =  -483.213075844     A.U. after   10 cycles
 SCF Done:  E(RB3LYP) =  -483.213080849     A.U. after   10 cycles
 SCF Done:  E(RB3LYP) =  -483.213082171     A.U. after    8 cycles
 SCF Done:  E(RB3LYP) =  -483.213082450     A.U. after    8 cycles
 SCF Done:  E(RB3LYP) =  -483.213082493     A.U. after    8 cycles
 Optimization completed.
    -- Stationary point found.
 Normal termination of Gaussian 16 at Tue Dec  8 20:40:44 2020.

 --------------------------------------------------------------------
 #N Geom=AllCheck Guess=TCheck SCRF=Check GenChk RB3LYP/6-31G(d) Freq
 --------------------------------------------------------------------

 Structure from the checkpoint file:  "JID_1593.chk"
 ------------------------------
 CID_43616589_JID_1593_neutraal
 ------------------------------
 Charge =  0 Multiplicity = 1

 SCF Done:  E(RB3LYP) =  -483.213082493     A.U. after    1 cycles

  Exact polarizability: 122.522  12.634 117.975  -3.571   5.253  76.852
 Approx polarizability: 170.869  21.120 156.885 -10.376  10.957 114.069

                      1                      2                      3
                      A                      A                      A
 Frequencies --     43.4757                57.8547                74.7260
 Red. masses --      2.6546                 2.7779                 3.5410
 Frc consts  --      0.0030                 0.0055                 0.0116
 IR Inten    --      0.0395                 0.1509                 2.2875

                      4                      5                      6
                      A                      A                      A
 Frequencies --     98.1423               100.3648               145.7722
 Red. masses --      3.3565                 3.2443                 2.5507
 Frc consts  --      0.0190                 0.0193                 0.0319
 IR Inten    --      2.9024                 0.4774                 0.5271

                      7                      8                      9
                      A                      A                      A
 Frequencies --    223.5814               230.9962               234.4867
 Red. masses --      1.2963                 1.1124                 2.5577
 Frc consts  --      0.0382                 0.0350                 0.0829
 IR Inten    --      0.4538                 0.0112                 0.5156

                     10                     11                     12
                      A                      A                      A
 Frequencies --    266.6914               279.9159               311.8317
 Red. masses --      1.2607                 1.5299                 2.7398
 Frc consts  --      0.0528                 0.0706                 0.1570
 IR Inten    --      0.4396                 1.1571                 1.1973

                     13                     14                     15
                      A                      A                      A
 Frequencies --    368.1247               379.1746               406.6986
 Red. masses --      2.7890                 2.8643                 2.3095
 Frc consts  --      0.2227                 0.2426                 0.2251
 IR Inten    --      3.6584                 6.0360                 1.2629

                     16                     17                     18
                      A                      A                      A
 Frequencies --    444.0178               463.3466               508.5764
 Red. masses --      1.8996                 3.9357                 2.1331
 Frc consts  --      0.2207                 0.4978                 0.3251
 IR Inten    --      2.3699                12.0011                 2.8666

                     19                     20                     21
                      A                      A                      A
 Frequencies --    559.4248               651.2248               778.3048
 Red. masses --      2.1933                 3.3218                 2.1996
 Frc consts  --      0.4044                 0.8300                 0.7850
 IR Inten    --      1.5038                 3.6673                 0.1358

                     22                     23                     24
                      A                      A                      A
 Frequencies --    799.5597               808.1176               827.1173
 Red. masses --      1.8772                 2.3480                 2.6398
 Frc consts  --      0.7071                 0.9034                 1.0640
 IR Inten    --     16.3491                14.0427                 3.2283

                     25                     26                     27
                      A                      A                      A
 Frequencies --    891.7247               936.2498               941.0352
 Red. masses --      1.7639                 1.8016                 1.2373
 Frc consts  --      0.8264                 0.9304                 0.6456
 IR Inten    --      3.0106                 7.5296                 4.7077

                     28                     29                     30
                      A                      A                      A
 Frequencies --    961.5843               981.0345               987.9952
 Red. masses --      1.7569                 1.4771                 1.3811
 Frc consts  --      0.9571                 0.8376                 0.7943
 IR Inten    --      5.2461                 0.4168                11.3629

                     31                     32                     33
                      A                      A                      A
 Frequencies --   1021.7969              1034.0485              1082.8057
 Red. masses --      1.0902                 2.6027                 1.5356
 Frc consts  --      0.6706                 1.6397                 1.0608
 IR Inten    --     27.9814                 0.4427                 6.6085

                     34                     35                     36
                      A                      A                      A
 Frequencies --   1114.3140              1133.5069              1154.6741
 Red. masses --      1.8224                 1.7831                 2.2032
 Frc consts  --      1.3332                 1.3498                 1.7307
 IR Inten    --      6.9713                18.1303                 9.8916

                     37                     38                     39
                      A                      A                      A
 Frequencies --   1179.2578              1211.4472              1257.9674
 Red. masses --      2.1139                 1.7761                 2.7266
 Frc consts  --      1.7320                 1.5358                 2.5422
 IR Inten    --     82.6605                 2.2861                39.1220

                     40                     41                     42
                      A                      A                      A
 Frequencies --   1279.6460              1331.6250              1345.7793
 Red. masses --      1.6304                 1.3301                 1.2751
 Frc consts  --      1.5730                 1.3897                 1.3606
 IR Inten    --     65.8608                12.5762                10.4682

                     43                     44                     45
                      A                      A                      A
 Frequencies --   1365.7532              1389.3698              1405.3967
 Red. masses --      1.3673                 1.3955                 1.2949
 Frc consts  --      1.5026                 1.5872                 1.5068
 IR Inten    --     12.6210                 6.7277                 8.3542

                     46                     47                     48
                      A                      A                      A
 Frequencies --   1417.2795              1430.4973              1434.3434
 Red. masses --      1.3338                 1.2940                 1.2723
 Frc consts  --      1.5785                 1.5601                 1.5423
 IR Inten    --      9.8414                 3.2636                17.4251

                     49                     50                     51
                      A                      A                      A
 Frequencies --   1438.4066              1451.2705              1480.8853
 Red. masses --      1.2956                 1.2440                 1.8375
 Frc consts  --      1.5794                 1.5438                 2.3742
 IR Inten    --      1.3075                 9.3576               170.2433

                     52                     53                     54
                      A                      A                      A
 Frequencies --   1509.6144              1517.5296              1520.7333
 Red. masses --      1.1558                 1.0526                 1.0461
 Frc consts  --      1.5520                 1.4282                 1.4254
 IR Inten    --     30.0926                 2.0324                 2.0424

                     55                     56                     57
                      A                      A                      A
 Frequencies --   1524.4826              1535.3105              1536.8244
 Red. masses --      1.0637                 1.0634                 1.0789
 Frc consts  --      1.4565                 1.4769                 1.5013
 IR Inten    --      2.6077                 8.7698                 5.9385

                     58                     59                     60
                      A                      A                      A
 Frequencies --   1538.0659              1542.7629              1693.0229
 Red. masses --      1.0550                 1.0623                 6.2836
 Frc consts  --      1.4704                 1.4897                10.6116
 IR Inten    --      9.9848                12.0898                71.8268

                     61                     62                     63
                      A                      A                      A
 Frequencies --   1743.9106              3025.2960              3038.2843
 Red. masses --      6.4775                 1.0826                 1.0439
 Frc consts  --     11.6066                 5.8381                 5.6774
 IR Inten    --    178.8032                11.3282                 9.3351

                     64                     65                     66
                      A                      A                      A
 Frequencies --   3041.4963              3046.1110              3053.1108
 Red. masses --      1.0582                 1.0434                 1.0381
 Frc consts  --      5.7677                 5.7043                 5.7015
 IR Inten    --     48.9066                22.8439                31.4020

                     67                     68                     69
                      A                      A                      A
 Frequencies --   3076.3674              3101.5095              3107.8861
 Red. masses --      1.0664                 1.1006                 1.0993
 Frc consts  --      5.9462                 6.2374                 6.2560
 IR Inten    --     30.5697                19.2263                33.1739

                     70                     71                     72
                      A                      A                      A
 Frequencies --   3112.1075              3117.6104              3123.9478
 Red. masses --      1.1017                 1.1016                 1.0930
 Frc consts  --      6.2864                 6.3084                 6.2843
 IR Inten    --     30.8744                37.8791                37.0979

                     73                     74                     75
                      A                      A                      A
 Frequencies --   3130.4766              3142.5666              3155.1967
 Red. masses --      1.1012                 1.0970                 1.1030
 Frc consts  --      6.3583                 6.3830                 6.4694
 IR Inten    --     27.8037                13.0194                19.6968

                     76                     77                     78
                      A                      A                      A
 Frequencies --   3175.6909              3226.2278              3268.0792
 Red. masses --      1.0580                 1.0915                 1.1167
 Frc consts  --      6.2865                 6.6938                 7.0273
 IR Inten    --      7.8862                13.6271                 5.4215

 - Thermochemistry -
 -------------------
 Temperature   298.150 Kelvin.  Pressure   1.00000 Atm.
 Atom     1 has atomic number  6 and mass  12.00000

 Molecular mass:   155.13101 amu.
 Principal axes and moments of inertia in atomic units:
                           1         2         3
     Eigenvalues --  1459.304772205.807243238.65139
           X            0.99968  -0.02486   0.00366
           Y            0.02488   0.99967  -0.00557
           Z           -0.00352   0.00566   0.99998
 This molecule is an asymmetric top.
 Rotational symmetry number  1.
 Warning -- assumption of classical behavior for rotation
           may cause significant error
 Rotational temperatures (Kelvin)      0.05935     0.03927     0.02674
 Rotational constants (GHZ):           1.23671     0.81818     0.55725
 Zero-point vibrational energy     659892.7 (Joules/Mol)
                                  157.71814 (Kcal/Mol)
 Warning -- explicit consideration of  19 degrees of freedom as
           vibrations may cause significant error
 Vibrational temperatures:     62.55    83.24   107.51   141.20   144.40
          (Kelvin)            209.73   321.68   332.35   337.37   383.71
                              402.74   448.66   529.65   545.55   585.15
                              638.84   666.65   731.73   804.89   936.97
                             1119.81  1150.39  1162.70  1190.04  1282.99
                             1347.05  1353.94  1383.51  1411.49  1421.50
                             1470.14  1487.77  1557.92  1603.25  1630.86
                             1661.32  1696.69  1743.00  1809.93  1841.13
                             1915.91  1936.28  1965.01  1998.99  2022.05
                             2039.15  2058.17  2063.70  2069.55  2088.05
                             2130.66  2172.00  2183.39  2188.00  2193.39
                             2208.97  2211.15  2212.93  2219.69  2435.88
                             2509.10  4352.73  4371.41  4376.03  4382.67
                             4392.75  4426.21  4462.38  4471.55  4477.63
                             4485.55  4494.66  4504.06  4521.45  4539.62
                             4569.11  4641.82  4702.04

 Zero-point correction=                           0.251340 (Hartree/Particle)
 Thermal correction to Energy=                    0.264558
 Thermal correction to Enthalpy=                  0.265502
 Thermal correction to Gibbs Free Energy=         0.211467
 Sum of electronic and zero-point Energies=           -482.961743
 Sum of electronic and thermal Energies=              -482.948525
 Sum of electronic and thermal Enthalpies=            -482.947580
 Sum of electronic and thermal Free Energies=         -483.001615

                     E (Thermal)             CV                S
                      KCal/Mol        Cal/Mol-Kelvin    Cal/Mol-Kelvin
 Total                  166.013             48.113            113.726
 Electronic               0.000              0.000              0.000
 Translational            0.889              2.981             41.027
 Rotational               0.889              2.981             30.723
 Vibrational            164.235             42.152             41.976
 Vibration     1          0.595              1.980              5.094
 Vibration     2          0.596              1.974              4.529
 Vibration     3          0.599              1.966              4.025
 Vibration     4          0.604              1.950              3.491
 Vibration     5          0.604              1.949              3.447
 Vibration     6          0.617              1.907              2.727
 Vibration     7          0.649              1.805              1.930
 Vibration     8          0.653              1.794              1.871
 Vibration     9          0.654              1.788              1.844
 Vibration    10          0.672              1.734              1.618
 Vibration    11          0.680              1.711              1.534
 Vibration    12          0.700              1.651              1.353
 Vibration    13          0.741              1.538              1.088
 Vibration    14          0.749              1.515              1.042
 Vibration    15          0.771              1.456              0.938
 Vibration    16          0.804              1.374              0.814
 Vibration    17          0.821              1.331              0.756
 Vibration    18          0.864              1.231              0.637
 Vibration    19          0.915              1.119              0.525

 Optimization completed.
    -- Stationary point found.
 Normal termination of Gaussian 16 at Tue Dec  8 20:48:14 2020.

 ----------------------------------------------------------------------
 # B3LYP/6-311++G(d,p) empiricaldispersion=gd3bj scf=xqc pop=npa geom=c
 heck
 ----------------------------------------------------------------------

 --------------------------------------
 CID_43616589_JID_1593_Energie_neutraal
 --------------------------------------
 Structure from the checkpoint file:  "JID_1593.chk"
 Charge =  0 Multiplicity = 1

 SCF Done:  E(RB3LYP) =  -483.352827001     A.U. after   15 cycles
 Normal termination of Gaussian 16 at Tue Dec  8 20:51:47 2020.

 ----------------------------------------------------------------------
 # B3LYP/6-311++G(d,p) empiricaldispersion=gd3bj scf=xqc pop=npa geom=c
 heck
 ----------------------------------------------------------------------

 ------------------------------------
 CID_43616589_JID_1593_Energie_kation
 ------------------------------------
 Structure from the checkpoint file:  "JID_1593.chk"
 Charge =  1 Multiplicity = 2

 SCF Done:  E(UB3LYP) =  -483.040609612     A.U. after   24 cycles
 Normal termination of Gaussian 16 at Tue Dec  8 20:59:27 2020.
 Gaussian 16:  ES64L-G16RevA.03 25-Dec-2016

 ----------------------------------------------------------------------
 # B3LYP/6-311++G(d,p) empiricaldispersion=gd3bj scf=xqc pop=npa geom=c
 heck
 ----------------------------------------------------------------------

 -----------------------------------
 CID_43616589_JID_1593_Energie_anion
 -----------------------------------
 Structure from the checkpoint file:  "JID_1593.chk"
 Charge = -1 Multiplicity = 2

                         Standard orientation:
 ---------------------------------------------------------------------
 Center     Atomic      Atomic             Coordinates (Angstroms)
 Number     Number       Type             X           Y           Z
 ---------------------------------------------------------------------
      1          6           0       -1.140292    2.837968   -0.425856
      2          6           0       -0.482121    1.889633    0.577602
      3          7           0       -0.303788    0.537489    0.038720
      4          6           0        0.948243    0.281371   -0.666176
      5          6           0        2.137197   -0.049353    0.255919
      6          6           0        1.907116   -1.336104    1.053120
      7          6           0        3.424877   -0.125727   -0.572083
      8          6           0       -1.393035   -0.300022    0.097969
      9          8           0       -2.457356    0.082321    0.587741
     10          6           0       -1.248751   -1.695248   -0.423994
     11          6           0       -2.312876   -2.499952   -0.455691
     12          1           0       -0.553393    2.912385   -1.348873
     13          1           0       -1.230672    3.843781   -0.000217
     14          1           0       -2.140406    2.474138   -0.674410
     15          1           0        0.504675    2.261078    0.872875
     16          1           0       -1.098297    1.811229    1.474855
     17          1           0        0.808532   -0.520384   -1.394781
     18          1           0        1.188349    1.178451   -1.252070
     19          1           0        2.239134    0.779148    0.971418
     20          1           0        1.862196   -2.208118    0.387970
     21          1           0        2.724986   -1.504876    1.762226
     22          1           0        0.971552   -1.293712    1.619209
     23          1           0        3.613118    0.809884   -1.111873
     24          1           0        4.291750   -0.326065    0.066698
     25          1           0        3.365562   -0.933722   -1.312811
     26          1           0       -0.282304   -2.059115   -0.751754
     27          1           0       -2.244454   -3.522712   -0.813835
     28          1           0       -3.277113   -2.137781   -0.112461
 ---------------------------------------------------------------------

 SCF Done:  E(UB3LYP) =  -483.343415582     A.U. after   33 cycles
 SCF Done:  E(UB3LYP) =  -483.343415582     a.u. after    1 cycles

 The electronic state is 2-A.
 Alpha  occ. eigenvalues --  -18.94478 -14.21259 -10.12991 -10.09403 -10.08573
 Alpha  occ. eigenvalues --  -10.06938 -10.05456 -10.05070 -10.05063 -10.04055
 Alpha  occ. eigenvalues --  -10.03485  -0.90125  -0.81028  -0.69715  -0.65575
 Alpha  occ. eigenvalues --   -0.63312  -0.58375  -0.57791  -0.53560  -0.47387
 Alpha  occ. eigenvalues --   -0.46253  -0.41675  -0.38487  -0.37050  -0.35054
 Alpha  occ. eigenvalues --   -0.34435  -0.33075  -0.30857  -0.29909  -0.29076
 Alpha  occ. eigenvalues --   -0.29029  -0.28157  -0.27052  -0.26315  -0.25809
 Alpha  occ. eigenvalues --   -0.24158  -0.23744  -0.23432  -0.22986  -0.21967
 Alpha  occ. eigenvalues --   -0.14848  -0.12760  -0.11869   0.04801
 Alpha virt. eigenvalues --    0.06539   0.07665   0.08653   0.08794   0.09720
 Alpha virt. eigenvalues --    0.10422   0.10675   0.11628   0.11771   0.13092
 Alpha virt. eigenvalues --    0.13118   0.13563   0.13865   0.14631   0.14922

  Beta  occ. eigenvalues --  -18.94380 -14.21207 -10.12875 -10.09398 -10.08570
  Beta  occ. eigenvalues --  -10.06929 -10.05417 -10.05049 -10.05037 -10.03987
  Beta  occ. eigenvalues --  -10.03218  -0.89931  -0.80908  -0.69676  -0.65303
  Beta  occ. eigenvalues --   -0.63104  -0.58314  -0.57715  -0.53358  -0.47123
  Beta  occ. eigenvalues --   -0.46035  -0.41572  -0.38308  -0.36963  -0.34980
  Beta  occ. eigenvalues --   -0.34346  -0.33019  -0.30752  -0.29822  -0.28912
  Beta  occ. eigenvalues --   -0.28874  -0.28103  -0.27000  -0.26228  -0.25443
  Beta  occ. eigenvalues --   -0.24071  -0.23695  -0.23256  -0.22909  -0.21900
  Beta  occ. eigenvalues --   -0.13627  -0.12569  -0.11535
  Beta virt. eigenvalues --    0.07247   0.08112   0.08783   0.08936   0.09315
  Beta virt. eigenvalues --    0.10183   0.10628   0.11071   0.11589   0.12011
  Beta virt. eigenvalues --    0.13141   0.13259   0.13770   0.13986   0.14660

 Mulliken charges and spin densities:
               1          2
     1  C    0.224388  -0.682793
     2  C   -0.262619   0.190300
     3  N    0.241371   0.075303
     4  C    0.040434  -1.107525
     5  C   -1.011000   1.817714
     6  C    0.033888  -0.691425
     7  C    1.081431  -1.771889
     8  C   -0.415947   0.126336
     9  O   -0.391206   0.039764
    10  C    0.703080  -0.109520
    11  C   -0.790670   0.323422
    12  H   -0.089755   0.206508
    13  H   -0.137241   0.264386
    14  H    0.058756   0.120554
    15  H   -0.285220   0.402227
    16  H    0.157957   0.026435
    17  H    0.130085   0.038065
    18  H    0.342688  -0.211067
    19  H   -0.004710   0.154297
    20  H    0.057079   0.082564
    21  H   -0.212586   0.351870
    22  H    0.178328  -0.009333
    23  H   -0.517898   0.653660
    24  H   -0.480864   0.634124
    25  H   -0.025213   0.142263
    26  H    0.136150  -0.052099
    27  H    0.094574   0.000464
    28  H    0.144720  -0.014604
 Sum of Mulliken charges =  -1.00000   1.00000

 Dipole moment (field-independent basis, Debye):
    X=             -1.8404    Y=             -1.4974    Z=             -1.2174  Tot=              2.6667
 Quadrupole moment (field-independent basis, Debye-Ang):
   XX=           -140.3448   YY=           -105.1407   ZZ=            -90.8293
   XY=             -4.8402   XZ=             -0.6905   YZ=              1.9344

 Summary of Natural Population Analysis:

                                       Natural Population
                Natural  -----------------------------------------------
    Atom  No    Charge         Core      Valence    Rydberg      Total
 -----------------------------------------------------------------------
      C    1   -0.29243      0.99966     2.28774    0.00504     3.29243
      C    2   -0.08673      0.99962     2.07580    0.01130     3.08673
      N    3   -0.25196      0.99964     2.74161    0.01071     3.75196
      C    4   -0.07849      0.99958     2.06818    0.01074     3.07849
      C    5   -0.12159      0.99961     2.11211    0.00987     3.12159
      C    6   -0.28638      0.99965     2.28038    0.00635     3.28638
      C    7   -0.28437      0.99965     2.27837    0.00635     3.28437
      C    8    0.34359      0.99962     1.63460    0.02219     2.65641
      O    9   -0.33328      0.99988     3.32814    0.00526     4.33328
      C   10   -0.14809      0.99952     2.14015    0.00842     3.14809
      C   11   -0.10464      0.99960     2.09796    0.00708     3.10464
      H   12    0.09341      0.00000     0.40566    0.00093     0.40659
      H   13    0.09591      0.00000     0.40304    0.00105     0.40409
      H   14    0.10715      0.00000     0.39190    0.00096     0.39285
      H   15    0.09176      0.00000     0.40674    0.00150     0.40824
      H   16    0.10702      0.00000     0.39183    0.00115     0.39298
      H   17    0.09823      0.00000     0.40012    0.00165     0.40177
      H   18    0.09476      0.00000     0.40415    0.00109     0.40524
      H   19    0.09411      0.00000     0.40339    0.00250     0.40589
      H   20    0.09329      0.00000     0.40582    0.00089     0.40671
      H   21    0.09955      0.00000     0.39961    0.00084     0.40045
      H   22    0.10571      0.00000     0.39319    0.00110     0.39429
      H   23    0.10010      0.00000     0.39850    0.00140     0.39990
      H   24    0.10321      0.00000     0.39501    0.00178     0.39679
      H   25    0.09295      0.00000     0.40605    0.00099     0.40705
      H   26    0.08980      0.00000     0.40856    0.00164     0.41020
      H   27    0.08104      0.00000     0.41803    0.00093     0.41896
      H   28    0.09638      0.00000     0.40236    0.00126     0.40362
 =======================================================================
   * Total *    0.00000     10.99603    31.87901    0.12496    43.00000

 Normal termination of Gaussian 16 at Tue Dec  8 21:10:51 2020.
