 Gaussian 16, Revision A.03,

 -----------------------------------------------------------
 # opt freq B3LYP/6-31G(d) empiricaldispersion=gd3bj scf=xqc
 -----------------------------------------------------------

 -------------------------------
 CID_130883555_JID_2104_neutraal
 -------------------------------
 Symbolic Z-matrix:
 Charge =  0 Multiplicity = 1

 SCF Done:  E(RB3LYP) =  -861.738033357     A.U. after   15 cycles
 SCF Done:  E(RB3LYP) =  -861.738798406     A.U. after   14 cycles
 SCF Done:  E(RB3LYP) =  -861.738130356     A.U. after   14 cycles
 SCF Done:  E(RB3LYP) =  -861.740252826     A.U. after   12 cycles
 SCF Done:  E(RB3LYP) =  -861.740461331     A.U. after   13 cycles
 SCF Done:  E(RB3LYP) =  -861.740914372     A.U. after   12 cycles
 SCF Done:  E(RB3LYP) =  -861.741014386     A.U. after   12 cycles
 SCF Done:  E(RB3LYP) =  -861.741063628     A.U. after   13 cycles
 SCF Done:  E(RB3LYP) =  -861.741109616     A.U. after   11 cycles
 SCF Done:  E(RB3LYP) =  -861.741184831     A.U. after   13 cycles
 SCF Done:  E(RB3LYP) =  -861.744031425     A.U. after   10 cycles
 SCF Done:  E(RB3LYP) =  -861.744039059     A.U. after   10 cycles
 SCF Done:  E(RB3LYP) =  -861.744044512     A.U. after   11 cycles
 SCF Done:  E(RB3LYP) =  -861.744044812     A.U. after    9 cycles
 SCF Done:  E(RB3LYP) =  -861.744044789     A.U. after    7 cycles
 Optimization completed.
    -- Stationary point found.
 Normal termination of Gaussian 16 at Wed Dec  9 17:02:22 2020.

 --------------------------------------------------------------------
 #N Geom=AllCheck Guess=TCheck SCRF=Check GenChk RB3LYP/6-31G(d) Freq
 --------------------------------------------------------------------

 Structure from the checkpoint file:  "JID_2104.chk"
 -------------------------------
 CID_130883555_JID_2104_neutraal
 -------------------------------
 Charge =  0 Multiplicity = 1

 SCF Done:  E(RB3LYP) =  -861.744044789     A.U. after    1 cycles

  Exact polarizability: 137.188  -4.222 143.627  14.000   3.781  76.508
 Approx polarizability: 206.517 -13.577 230.274  29.775   8.880 119.547

                      1                      2                      3
                      A                      A                      A
 Frequencies --     25.9745                61.5723               106.7325
 Red. masses --      4.8626                 3.0647                 1.7708
 Frc consts  --      0.0019                 0.0068                 0.0119
 IR Inten    --      1.0471                 0.2629                 4.5635

                      4                      5                      6
                      A                      A                      A
 Frequencies --    139.9575               161.2491               189.3410
 Red. masses --      2.7756                 2.2951                 4.7726
 Frc consts  --      0.0320                 0.0352                 0.1008
 IR Inten    --      0.3698                 4.2248                 7.8753

                      7                      8                      9
                      A                      A                      A
 Frequencies --    199.7607               239.2863               267.1135
 Red. masses --      4.0357                 2.4213                 4.7693
 Frc consts  --      0.0949                 0.0817                 0.2005
 IR Inten    --      1.7824                 1.4889                 0.5478

                     10                     11                     12
                      A                      A                      A
 Frequencies --    347.1891               369.9195               392.8549
 Red. masses --      3.3568                 1.7537                 5.9112
 Frc consts  --      0.2384                 0.1414                 0.5375
 IR Inten    --     13.6426                11.1846                 1.6212

                     13                     14                     15
                      A                      A                      A
 Frequencies --    428.9066               462.5720               516.4112
 Red. masses --      1.4474                 2.3501                 3.8348
 Frc consts  --      0.1569                 0.2963                 0.6025
 IR Inten    --     12.8982                 3.5240                 0.7964

                     16                     17                     18
                      A                      A                      A
 Frequencies --    526.1977               549.2559               609.3458
 Red. masses --      3.7494                 3.7099                 3.1542
 Frc consts  --      0.6117                 0.6594                 0.6900
 IR Inten    --      0.3327                 2.6317                 2.4508

                     19                     20                     21
                      A                      A                      A
 Frequencies --    674.8702               710.8605               751.6901
 Red. masses --      2.8838                 2.0087                 3.8367
 Frc consts  --      0.7739                 0.5981                 1.2773
 IR Inten    --      3.7133                 3.5077                 1.9009

                     22                     23                     24
                      A                      A                      A
 Frequencies --    790.1114               820.1824               854.6929
 Red. masses --      1.2796                 2.9827                 3.6741
 Frc consts  --      0.4707                 1.1822                 1.5813
 IR Inten    --     26.6029                 0.8732                 4.6182

                     25                     26                     27
                      A                      A                      A
 Frequencies --    871.0748               908.0901               970.6071
 Red. masses --      3.4676                 1.3002                 1.2272
 Frc consts  --      1.5502                 0.6317                 0.6812
 IR Inten    --     16.4567                 0.0239                 1.0917

                     28                     29                     30
                      A                      A                      A
 Frequencies --    976.3443               979.3016              1029.5752
 Red. masses --      1.3844                 1.6732                 1.8605
 Frc consts  --      0.7775                 0.9454                 1.1620
 IR Inten    --      3.3189                 5.4119                 4.4564

                     31                     32                     33
                      A                      A                      A
 Frequencies --   1030.3686              1069.4374              1085.6297
 Red. masses --      1.5065                 1.5888                 2.1712
 Frc consts  --      0.9423                 1.0706                 1.5077
 IR Inten    --      5.5053                 4.6871                10.7280

                     34                     35                     36
                      A                      A                      A
 Frequencies --   1125.8548              1167.8678              1204.5791
 Red. masses --      2.0119                 2.5969                 1.2790
 Frc consts  --      1.5025                 2.0868                 1.0934
 IR Inten    --      3.5202                 4.6990                 1.4390

                     37                     38                     39
                      A                      A                      A
 Frequencies --   1216.2595              1238.2593              1268.8508
 Red. masses --      1.8378                 1.8216                 1.3431
 Frc consts  --      1.6018                 1.6456                 1.2741
 IR Inten    --      2.0543                 5.2455                 2.1028

                     40                     41                     42
                      A                      A                      A
 Frequencies --   1289.7517              1337.5490              1384.0225
 Red. masses --      1.8630                 3.5044                 1.4383
 Frc consts  --      1.8259                 3.6939                 1.6233
 IR Inten    --      0.3643                 1.9034                 4.2437

                     43                     44                     45
                      A                      A                      A
 Frequencies --   1404.6438              1442.5626              1446.6870
 Red. masses --      1.6045                 1.1745                 1.2340
 Frc consts  --      1.8652                 1.4400                 1.5216
 IR Inten    --     12.2488                 6.0363                 1.0077

                     46                     47                     48
                      A                      A                      A
 Frequencies --   1470.9808              1478.0696              1500.7339
 Red. masses --      1.2541                 2.0022                 2.3216
 Frc consts  --      1.5987                 2.5773                 3.0807
 IR Inten    --     11.7719                 7.0848                13.1106

                     49                     50                     51
                      A                      A                      A
 Frequencies --   1514.9872              1529.1565              1536.0261
 Red. masses --      1.0766                 1.1333                 1.0839
 Frc consts  --      1.4559                 1.5613                 1.5067
 IR Inten    --      1.3604                17.2661                18.3986

                     52                     53                     54
                      A                      A                      A
 Frequencies --   1628.9983              1647.9460              1827.4909
 Red. masses --      5.9003                 5.4975                 9.5840
 Frc consts  --      9.2250                 8.7963                18.8586
 IR Inten    --      9.6119                 2.4888               128.6003

                     55                     56                     57
                      A                      A                      A
 Frequencies --   2639.6073              2917.6260              3012.7058
 Red. masses --      1.0380                 1.0840                 1.0726
 Frc consts  --      4.2612                 5.4370                 5.7361
 IR Inten    --    125.1119               147.8421                28.8057

                     58                     59                     60
                      A                      A                      A
 Frequencies --   3044.6594              3062.8604              3084.9552
 Red. masses --      1.0414                 1.0702                 1.0861
 Frc consts  --      5.6876                 5.9150                 6.0901
 IR Inten    --     28.4361                27.9482                 9.3209

                     61                     62                     63
                      A                      A                      A
 Frequencies --   3097.7968              3128.5762              3136.1033
 Red. masses --      1.0962                 1.1006                 1.0921
 Frc consts  --      6.1977                 6.3469                 6.3286
 IR Inten    --     27.8686                20.6492                 4.2527

                     64                     65                     66
                      A                      A                      A
 Frequencies --   3180.7758              3198.7942              3216.0455
 Red. masses --      1.0869                 1.0915                 1.0953
 Frc consts  --      6.4793                 6.5802                 6.6744
 IR Inten    --      9.3423                20.7173                13.4960

 - Thermochemistry -
 -------------------
 Temperature   298.150 Kelvin.  Pressure   1.00000 Atm.
 Atom     1 has atomic number  6 and mass  12.00000

 Molecular mass:   180.06089 amu.
 Principal axes and moments of inertia in atomic units:
                           1         2         3
     Eigenvalues --  1849.744362366.580893659.00621
           X            0.99971   0.02220   0.00954
           Y           -0.02237   0.99957   0.01871
           Z           -0.00912  -0.01892   0.99978
 This molecule is an asymmetric top.
 Rotational symmetry number  1.
 Warning -- assumption of classical behavior for rotation
           may cause significant error
 Rotational temperatures (Kelvin)      0.04682     0.03660     0.02367
 Rotational constants (GHZ):           0.97567     0.76259     0.49323
 Zero-point vibrational energy     511393.2 (Joules/Mol)
                                  122.22590 (Kcal/Mol)
 Warning -- explicit consideration of  18 degrees of freedom as
           vibrations may cause significant error
 Vibrational temperatures:     37.37    88.59   153.56   201.37   232.00
          (Kelvin)            272.42   287.41   344.28   384.32   499.53
                              532.23   565.23   617.10   665.54   743.00
                              757.08   790.26   876.71   970.99  1022.77
                             1081.51  1136.79  1180.06  1229.71  1253.28
                             1306.54  1396.49  1404.74  1409.00  1481.33
                             1482.47  1538.68  1561.98  1619.85  1680.30
                             1733.12  1749.93  1781.58  1825.59  1855.67
                             1924.43  1991.30  2020.97  2075.53  2081.46
                             2116.41  2126.61  2159.22  2179.73  2200.12
                             2210.00  2343.77  2371.03  2629.35  3797.81
                             4197.81  4334.61  4380.59  4406.77  4438.56
                             4457.04  4501.32  4512.15  4576.43  4602.35
                             4627.17

 Zero-point correction=                           0.194779 (Hartree/Particle)
 Thermal correction to Energy=                    0.206821
 Thermal correction to Enthalpy=                  0.207765
 Thermal correction to Gibbs Free Energy=         0.155749
 Sum of electronic and zero-point Energies=           -861.549265
 Sum of electronic and thermal Energies=              -861.537224
 Sum of electronic and thermal Enthalpies=            -861.536280
 Sum of electronic and thermal Free Energies=         -861.588296

                     E (Thermal)             CV                S
                      KCal/Mol        Cal/Mol-Kelvin    Cal/Mol-Kelvin
 Total                  129.782             45.049            109.477
 Electronic               0.000              0.000              0.000
 Translational            0.889              2.981             41.471
 Rotational               0.889              2.981             31.150
 Vibrational            128.005             39.087             36.856
 Vibration     1          0.593              1.985              6.115
 Vibration     2          0.597              1.973              4.406
 Vibration     3          0.606              1.944              3.327
 Vibration     4          0.615              1.913              2.804
 Vibration     5          0.622              1.890              2.535
 Vibration     6          0.633              1.855              2.234
 Vibration     7          0.638              1.840              2.135
 Vibration     8          0.657              1.780              1.808
 Vibration     9          0.672              1.733              1.615
 Vibration    10          0.725              1.581              1.179
 Vibration    11          0.742              1.534              1.080
 Vibration    12          0.760              1.485              0.989
 Vibration    13          0.790              1.407              0.862
 Vibration    14          0.820              1.333              0.759
 Vibration    15          0.871              1.214              0.618
 Vibration    16          0.881              1.192              0.596
 Vibration    17          0.905              1.141              0.546
 Vibration    18          0.968              1.012              0.434

 Optimization completed.
    -- Stationary point found.
 Normal termination of Gaussian 16 at Wed Dec  9 17:08:32 2020.

 ----------------------------------------------------------------------
 # B3LYP/6-311++G(d,p) empiricaldispersion=gd3bj scf=xqc pop=npa geom=c
 heck
 ----------------------------------------------------------------------

 ---------------------------------------
 CID_130883555_JID_2104_Energie_neutraal
 ---------------------------------------
 Structure from the checkpoint file:  "JID_2104.chk"
 Charge =  0 Multiplicity = 1

 SCF Done:  E(RB3LYP) =  -861.899742517     A.U. after   16 cycles
 Normal termination of Gaussian 16 at Wed Dec  9 17:11:13 2020.

 ----------------------------------------------------------------------
 # B3LYP/6-311++G(d,p) empiricaldispersion=gd3bj scf=xqc pop=npa geom=c
 heck
 ----------------------------------------------------------------------

 -------------------------------------
 CID_130883555_JID_2104_Energie_kation
 -------------------------------------
 Structure from the checkpoint file:  "JID_2104.chk"
 Charge =  1 Multiplicity = 2

 SCF Done:  E(UB3LYP) =  -861.606709043     A.U. after   26 cycles
 Normal termination of Gaussian 16 at Wed Dec  9 17:16:49 2020.
 Gaussian 16:  ES64L-G16RevA.03 25-Dec-2016

 ----------------------------------------------------------------------
 # B3LYP/6-311++G(d,p) empiricaldispersion=gd3bj scf=xqc pop=npa geom=c
 heck
 ----------------------------------------------------------------------

 ------------------------------------
 CID_130883555_JID_2104_Energie_anion
 ------------------------------------
 Structure from the checkpoint file:  "JID_2104.chk"
 Charge = -1 Multiplicity = 2

                         Standard orientation:
 ---------------------------------------------------------------------
 Center     Atomic      Atomic             Coordinates (Angstroms)
 Number     Number       Type             X           Y           Z
 ---------------------------------------------------------------------
      1          6           0        1.478385   -2.553702   -0.388920
      2          6           0        1.469403   -1.068295   -0.100733
      3          6           0        0.353418   -0.252503   -0.400446
      4          6           0        0.442281    1.131841   -0.136378
      5          6           0        1.603294    1.677362    0.425290
      6          6           0        2.691728    0.864881    0.718547
      7          6           0        2.620216   -0.498898    0.453250
      8         16           0       -0.833205    2.317744   -0.582335
      9          6           0       -0.879778   -0.866442   -1.033215
     10          6           0       -1.725035   -1.742255   -0.092243
     11          6           0       -2.562268   -1.026065    0.935522
     12          8           0       -2.780938    0.166353    0.983546
     13          1           0        0.903297   -3.126628    0.349409
     14          1           0        2.501651   -2.939324   -0.364410
     15          1           0        1.059650   -2.790166   -1.373226
     16          1           0        1.638014    2.741787    0.632519
     17          1           0        3.590558    1.293088    1.153053
     18          1           0        3.471534   -1.138575    0.671239
     19          1           0       -1.872418    1.654193   -0.028404
     20          1           0       -1.510743   -0.082432   -1.456143
     21          1           0       -0.571369   -1.497849   -1.874574
     22          1           0       -2.436972   -2.348806   -0.676471
     23          1           0       -1.112888   -2.476660    0.445155
     24          1           0       -3.031394   -1.698904    1.686815
 ---------------------------------------------------------------------

 SCF Done:  E(UB3LYP) =  -861.892491151     A.U. after   33 cycles
 SCF Done:  E(UB3LYP) =  -861.892491151     a.u. after    1 cycles

 The electronic state is 2-A.
 Alpha  occ. eigenvalues --  -88.73043 -18.99221 -10.12255 -10.10076 -10.07978
 Alpha  occ. eigenvalues --  -10.07924 -10.07228 -10.07124 -10.06795 -10.06169
 Alpha  occ. eigenvalues --  -10.06083 -10.05914  -7.81808  -5.78168  -5.77795
 Alpha  occ. eigenvalues --   -5.77239  -0.92443  -0.76433  -0.68899  -0.68414
 Alpha  occ. eigenvalues --   -0.64549  -0.60097  -0.58162  -0.55281  -0.48102
 Alpha  occ. eigenvalues --   -0.47273  -0.43757  -0.39543  -0.38699  -0.35742
 Alpha  occ. eigenvalues --   -0.35268  -0.33276  -0.31876  -0.31372  -0.30828
 Alpha  occ. eigenvalues --   -0.29439  -0.28550  -0.27883  -0.26219  -0.25983
 Alpha  occ. eigenvalues --   -0.24870  -0.23740  -0.22524  -0.22051  -0.16769
 Alpha  occ. eigenvalues --   -0.14351  -0.13411  -0.11843   0.04763
 Alpha virt. eigenvalues --    0.07038   0.07879   0.08341   0.08523   0.08963
 Alpha virt. eigenvalues --    0.09265   0.09987   0.10293   0.11408   0.11670
 Alpha virt. eigenvalues --    0.12052   0.13278   0.14190   0.14465   0.15035

  Beta  occ. eigenvalues --  -88.73042 -18.98996 -10.11997 -10.10069 -10.07965
  Beta  occ. eigenvalues --  -10.07909 -10.07208 -10.07123 -10.06789 -10.06153
  Beta  occ. eigenvalues --  -10.06070 -10.05875  -7.81807  -5.78168  -5.77794
  Beta  occ. eigenvalues --   -5.77236  -0.91998  -0.76401  -0.68823  -0.68386
  Beta  occ. eigenvalues --   -0.64433  -0.60015  -0.58122  -0.55079  -0.47985
  Beta  occ. eigenvalues --   -0.47233  -0.43377  -0.39487  -0.38632  -0.35524
  Beta  occ. eigenvalues --   -0.35120  -0.33112  -0.31726  -0.31245  -0.30778
  Beta  occ. eigenvalues --   -0.29227  -0.28402  -0.27751  -0.26159  -0.25793
  Beta  occ. eigenvalues --   -0.24203  -0.23669  -0.22438  -0.21862  -0.16724
  Beta  occ. eigenvalues --   -0.14220  -0.13238  -0.11802
  Beta virt. eigenvalues --    0.07143   0.08081   0.08561   0.08706   0.09128
  Beta virt. eigenvalues --    0.09586   0.10012   0.10560   0.10664   0.11860
  Beta virt. eigenvalues --    0.12157   0.12459   0.13612   0.14182   0.14555

 Mulliken charges and spin densities:
               1          2
     1  C    2.827711  -3.331591
     2  C   -1.748673   2.303741
     3  C   -0.080293   0.783253
     4  C    0.304643  -0.198865
     5  C    0.010665  -0.233590
     6  C   -0.244205   0.073960
     7  C    0.982032  -1.768242
     8  S   -0.566243  -0.164345
     9  C   -1.129889   0.979317
    10  C    0.923568  -1.116713
    11  C   -0.098099   0.053991
    12  O   -0.311474   0.062499
    13  H   -0.374845   0.543398
    14  H   -0.329301   0.475806
    15  H   -0.245783   0.398615
    16  H    0.142711   0.004932
    17  H    0.038377   0.097864
    18  H   -0.096515   0.218690
    19  H    0.059713   0.039955
    20  H   -0.013687   0.155361
    21  H   -0.158530   0.317540
    22  H   -0.675524   0.867568
    23  H    0.003494   0.136359
    24  H   -0.219854   0.300499
 Sum of Mulliken charges =  -1.00000   1.00000

 Dipole moment (field-independent basis, Debye):
    X=              3.0409    Y=              5.8038    Z=              0.8258  Tot=              6.6041
 Quadrupole moment (field-independent basis, Debye-Ang):
   XX=           -117.8851   YY=           -131.7116   ZZ=           -107.9061
   XY=              1.2561   XZ=              1.8562   YZ=             -4.5966

 Summary of Natural Population Analysis:

                                       Natural Population
                Natural  -----------------------------------------------
    Atom  No    Charge         Core      Valence    Rydberg      Total
 -----------------------------------------------------------------------
      C    1   -0.29533      0.99963     2.28969    0.00601     3.29533
      C    2   -0.00504      0.99947     1.99602    0.00954     3.00504
      C    3   -0.01599      0.99940     2.00427    0.01232     3.01599
      C    4   -0.07252      0.99935     2.06111    0.01206     3.07252
      C    5   -0.11231      0.99950     2.10280    0.01002     3.11231
      C    6   -0.09929      0.99956     2.09044    0.00930     3.09929
      C    7   -0.10420      0.99951     2.09474    0.00995     3.10420
      S    8   -0.02917      4.99956     3.01378    0.01584     8.02917
      C    9   -0.20761      0.99959     2.19617    0.01184     3.20761
      C   10   -0.23972      0.99960     2.23060    0.00952     3.23972
      C   11    0.26964      0.99973     1.71104    0.01960     2.73036
      O   12   -0.27944      0.99987     3.27171    0.00787     4.27944
      H   13    0.10798      0.00000     0.38980    0.00223     0.39202
      H   14    0.10111      0.00000     0.39770    0.00119     0.39889
      H   15    0.10709      0.00000     0.39140    0.00151     0.39291
      H   16    0.10129      0.00000     0.39768    0.00104     0.39871
      H   17    0.09668      0.00000     0.40256    0.00075     0.40332
      H   18    0.09761      0.00000     0.40149    0.00090     0.40239
      H   19    0.09105      0.00000     0.40560    0.00335     0.40895
      H   20    0.11070      0.00000     0.38778    0.00152     0.38930
      H   21    0.10911      0.00000     0.38930    0.00159     0.39089
      H   22    0.11975      0.00000     0.37421    0.00604     0.38025
      H   23    0.10814      0.00000     0.38981    0.00205     0.39186
      H   24    0.04047      0.00000     0.45692    0.00261     0.45953
 =======================================================================
   * Total *   -0.00000     15.99476    31.84660    0.15864    48.00000

 Normal termination of Gaussian 16 at Wed Dec  9 17:23:09 2020.
