 Gaussian 16, Revision A.03,

 -----------------------------------------------------------
 # opt freq B3LYP/6-31G(d) empiricaldispersion=gd3bj scf=xqc
 -----------------------------------------------------------

 -------------------------------
 CID_105110034_JID_7827_neutraal
 -------------------------------
 Symbolic Z-matrix:
 Charge =  0 Multiplicity = 1

 SCF Done:  E(RB3LYP) =  -711.857896341     A.U. after   15 cycles
 SCF Done:  E(RB3LYP) =  -711.865298616     A.U. after   13 cycles
 SCF Done:  E(RB3LYP) =  -711.863608999     A.U. after   13 cycles
 SCF Done:  E(RB3LYP) =  -711.864339121     A.U. after   13 cycles
 SCF Done:  E(RB3LYP) =  -711.866619055     A.U. after   10 cycles
 SCF Done:  E(RB3LYP) =  -711.867401529     A.U. after   12 cycles
 SCF Done:  E(RB3LYP) =  -711.867522916     A.U. after   11 cycles
 SCF Done:  E(RB3LYP) =  -711.867557780     A.U. after   11 cycles
 SCF Done:  E(RB3LYP) =  -711.867600602     A.U. after   10 cycles
 SCF Done:  E(RB3LYP) =  -711.867611419     A.U. after   10 cycles
 SCF Done:  E(RB3LYP) =  -711.867612574     A.U. after    8 cycles
 SCF Done:  E(RB3LYP) =  -711.867612737     A.U. after    7 cycles
 Optimization completed.
    -- Stationary point found.
 Normal termination of Gaussian 16 at Fri Dec 11 13:15:41 2020.

 --------------------------------------------------------------------
 #N Geom=AllCheck Guess=TCheck SCRF=Check GenChk RB3LYP/6-31G(d) Freq
 --------------------------------------------------------------------

 Structure from the checkpoint file:  "JID_7827.chk"
 -------------------------------
 CID_105110034_JID_7827_neutraal
 -------------------------------
 Charge =  0 Multiplicity = 1

 SCF Done:  E(RB3LYP) =  -711.867612737     A.U. after    1 cycles

  Exact polarizability: 181.886 -17.421 206.311  19.913   3.153 101.559
 Approx polarizability: 287.998 -36.901 350.991  48.121   4.242 154.230

                      1                      2                      3
                      A                      A                      A
 Frequencies --     35.4110                54.2498                77.0899
 Red. masses --      3.7574                 3.8617                 1.0956
 Frc consts  --      0.0028                 0.0067                 0.0038
 IR Inten    --      0.0692                 0.1522                 0.7202

                      4                      5                      6
                      A                      A                      A
 Frequencies --     81.6544               107.1991               124.8871
 Red. masses --      3.0240                 3.3941                 3.1886
 Frc consts  --      0.0119                 0.0230                 0.0293
 IR Inten    --      0.5315                 1.7054                 0.9321

                      7                      8                      9
                      A                      A                      A
 Frequencies --    160.9834               183.1977               186.2854
 Red. masses --      1.6264                 1.7776                 4.0306
 Frc consts  --      0.0248                 0.0351                 0.0824
 IR Inten    --      0.1401                 1.3395                 0.4055

                     10                     11                     12
                      A                      A                      A
 Frequencies --    208.1908               239.8396               275.3087
 Red. masses --      5.2249                 3.3295                 3.1501
 Frc consts  --      0.1334                 0.1128                 0.1407
 IR Inten    --      1.4945                 1.5344                 0.3691

                     13                     14                     15
                      A                      A                      A
 Frequencies --    295.2534               335.5106               348.1852
 Red. masses --      3.0723                 1.9507                 2.1437
 Frc consts  --      0.1578                 0.1294                 0.1531
 IR Inten    --     28.5078                61.5669                74.0694

                     16                     17                     18
                      A                      A                      A
 Frequencies --    388.7883               426.0690               438.7421
 Red. masses --      2.2877                 2.7336                 2.3356
 Frc consts  --      0.2037                 0.2924                 0.2649
 IR Inten    --      2.2583                 5.1926                 0.5906

                     19                     20                     21
                      A                      A                      A
 Frequencies --    460.6250               468.3128               498.6077
 Red. masses --      3.4198                 4.8592                 4.0018
 Frc consts  --      0.4275                 0.6279                 0.5862
 IR Inten    --      2.4964                 4.5538                 4.6933

                     22                     23                     24
                      A                      A                      A
 Frequencies --    526.1272               532.1348               569.1912
 Red. masses --      5.1208                 3.3278                 3.2665
 Frc consts  --      0.8352                 0.5552                 0.6235
 IR Inten    --      1.3342                 0.6562                15.0617

                     25                     26                     27
                      A                      A                      A
 Frequencies --    631.6779               653.8716               672.6015
 Red. masses --      4.7673                 3.9168                 3.4001
 Frc consts  --      1.1208                 0.9867                 0.9063
 IR Inten    --      5.4399                 4.7326                 0.0944

                     28                     29                     30
                      A                      A                      A
 Frequencies --    705.0616               744.9349               765.0639
 Red. masses --      1.8402                 2.3248                 3.7092
 Frc consts  --      0.5390                 0.7601                 1.2792
 IR Inten    --      3.0605                 3.8178                 0.8405

                     31                     32                     33
                      A                      A                      A
 Frequencies --    790.9749               806.1053               832.1626
 Red. masses --      1.4510                 3.3755                 2.9832
 Frc consts  --      0.5349                 1.2923                 1.2172
 IR Inten    --     48.2511                 2.8616                15.3057

                     34                     35                     36
                      A                      A                      A
 Frequencies --    886.9918               894.4068               899.1565
 Red. masses --      2.1356                 2.5373                 1.5488
 Frc consts  --      0.9899                 1.1959                 0.7378
 IR Inten    --     12.0121                 0.1952                 1.4032

                     37                     38                     39
                      A                      A                      A
 Frequencies --    912.7967               928.0264               947.5984
 Red. masses --      1.9115                 1.4401                 2.2572
 Frc consts  --      0.9384                 0.7308                 1.1942
 IR Inten    --      1.9989                42.8361                 4.0500

                     40                     41                     42
                      A                      A                      A
 Frequencies --    980.8318               986.8519              1002.9672
 Red. masses --      1.3564                 2.5202                 1.2637
 Frc consts  --      0.7688                 1.4461                 0.7490
 IR Inten    --      2.7632                 4.3182                 0.3204

                     43                     44                     45
                      A                      A                      A
 Frequencies --   1020.3413              1030.1689              1043.6420
 Red. masses --      1.8929                 2.0570                 1.5639
 Frc consts  --      1.1611                 1.2862                 1.0036
 IR Inten    --      3.9382                17.5066                 9.0134

                     46                     47                     48
                      A                      A                      A
 Frequencies --   1058.9193              1069.7496              1076.6020
 Red. masses --      2.4137                 1.5692                 2.4915
 Frc consts  --      1.5946                 1.0580                 1.7014
 IR Inten    --      4.8710                 2.2874                11.6161

                     49                     50                     51
                      A                      A                      A
 Frequencies --   1090.5429              1117.1777              1158.5380
 Red. masses --      1.6976                 2.5829                 1.5415
 Frc consts  --      1.1895                 1.8993                 1.2190
 IR Inten    --      3.6569                34.7378                 1.4891

                     52                     53                     54
                      A                      A                      A
 Frequencies --   1195.2910              1225.9231              1239.8242
 Red. masses --      1.2482                 1.4959                 1.1817
 Frc consts  --      1.0507                 1.3246                 1.0702
 IR Inten    --      2.9650                 1.3446                27.3739

                     55                     56                     57
                      A                      A                      A
 Frequencies --   1251.5147              1275.6695              1308.0433
 Red. masses --      1.5562                 1.9953                 2.0561
 Frc consts  --      1.4361                 1.9131                 2.0727
 IR Inten    --      8.6267                 9.0189                 6.4906

                     58                     59                     60
                      A                      A                      A
 Frequencies --   1319.1165              1352.9871              1377.3915
 Red. masses --      1.6745                 2.7247                 1.8149
 Frc consts  --      1.7167                 2.9387                 2.0287
 IR Inten    --      2.6196                 8.2164                 4.2312

                     61                     62                     63
                      A                      A                      A
 Frequencies --   1382.1050              1398.7035              1418.7939
 Red. masses --      2.4576                 6.9525                 1.4096
 Frc consts  --      2.7660                 8.0138                 1.6718
 IR Inten    --     34.4500                 1.6004                16.3309

                     64                     65                     66
                      A                      A                      A
 Frequencies --   1426.6189              1432.4717              1442.2042
 Red. masses --      1.6202                 1.4559                 1.2554
 Frc consts  --      1.9429                 1.7602                 1.5385
 IR Inten    --     17.0097                17.7490                 5.8812

                     67                     68                     69
                      A                      A                      A
 Frequencies --   1468.5183              1472.8772              1503.2973
 Red. masses --      1.8933                 1.2074                 1.1342
 Frc consts  --      2.4057                 1.5432                 1.5102
 IR Inten    --     21.8523                 8.4404                 6.8086

                     70                     71                     72
                      A                      A                      A
 Frequencies --   1503.6685              1511.9388              1513.6425
 Red. masses --      1.2521                 1.0617                 1.0459
 Frc consts  --      1.6680                 1.4300                 1.4118
 IR Inten    --      1.0507                 8.1962                 6.6071

                     73                     74                     75
                      A                      A                      A
 Frequencies --   1521.2260              1526.1709              1562.8392
 Red. masses --      2.1117                 1.0686                 3.3011
 Frc consts  --      2.8792                 1.4664                 4.7504
 IR Inten    --      1.3599                 2.8039                18.0779

                     76                     77                     78
                      A                      A                      A
 Frequencies --   1619.0824              1654.7841              1675.6930
 Red. masses --      6.8672                 6.5399                 5.5916
 Frc consts  --     10.6064                10.5513                 9.2507
 IR Inten    --     21.0869                72.7599                 4.0210

                     79                     80                     81
                      A                      A                      A
 Frequencies --   1738.4120              2983.1260              3036.1198
 Red. masses --      4.9378                 1.0835                 1.0450
 Frc consts  --      8.7920                 5.6810                 5.6757
 IR Inten    --      7.3823                49.5682                21.8181

                     82                     83                     84
                      A                      A                      A
 Frequencies --   3046.1379              3053.8405              3096.8161
 Red. masses --      1.0393                 1.0607                 1.1004
 Frc consts  --      5.6821                 5.8282                 6.2175
 IR Inten    --     22.8713                31.7354                17.8406

                     85                     86                     87
                      A                      A                      A
 Frequencies --   3098.9846              3100.6060              3134.5283
 Red. masses --      1.0914                 1.1015                 1.1023
 Frc consts  --      6.1755                 6.2392                 6.3812
 IR Inten    --     22.4808                12.3636                16.3538

                     88                     89                     90
                      A                      A                      A
 Frequencies --   3160.7823              3160.9855              3173.1899
 Red. masses --      1.0603                 1.0992                 1.0900
 Frc consts  --      6.2412                 6.4709                 6.4667
 IR Inten    --      8.7316                 6.9419                15.9783

                     91                     92                     93
                      A                      A                      A
 Frequencies --   3187.1462              3202.3185              3220.1991
 Red. masses --      1.0867                 1.0919                 1.0949
 Frc consts  --      6.5037                 6.5973                 6.6896
 IR Inten    --      6.9098                23.0809                15.1874

                     94                     95                     96
                      A                      A                      A
 Frequencies --   3240.6137              3267.0639              3741.6012
 Red. masses --      1.1161                 1.0917                 1.0662
 Frc consts  --      6.9055                 6.8654                 8.7946
 IR Inten    --     13.8957                 4.6732                16.3070

 - Thermochemistry -
 -------------------
 Temperature   298.150 Kelvin.  Pressure   1.00000 Atm.
 Atom     1 has atomic number  6 and mass  12.00000

 Molecular mass:   227.13101 amu.
 Principal axes and moments of inertia in atomic units:
                           1         2         3
     Eigenvalues --  2958.104024165.318395628.98762
           X            0.99919  -0.04015  -0.00351
           Y            0.04015   0.99919  -0.00133
           Z            0.00356   0.00119   0.99999
 This molecule is an asymmetric top.
 Rotational symmetry number  1.
 Warning -- assumption of classical behavior for rotation
           may cause significant error
 Rotational temperatures (Kelvin)      0.02928     0.02079     0.01539
 Rotational constants (GHZ):           0.61010     0.43328     0.32062
 Zero-point vibrational energy     753363.1 (Joules/Mol)
                                  180.05810 (Kcal/Mol)
 Warning -- explicit consideration of  24 degrees of freedom as
           vibrations may cause significant error
 Vibrational temperatures:     50.95    78.05   110.92   117.48   154.24
          (Kelvin)            179.68   231.62   263.58   268.02   299.54
                              345.08   396.11   424.80   482.72   500.96
                              559.38   613.02   631.25   662.74   673.80
                              717.39   756.98   765.62   818.94   908.84
                              940.78   967.72  1014.43  1071.80  1100.76
                             1138.04  1159.81  1197.30  1276.18  1286.85
                             1293.69  1313.31  1335.22  1363.38  1411.20
                             1419.86  1443.05  1468.04  1482.18  1501.57
                             1523.55  1539.13  1548.99  1569.05  1607.37
                             1666.88  1719.76  1763.83  1783.83  1800.65
                             1835.40  1881.98  1897.91  1946.65  1981.76
                             1988.54  2012.42  2041.33  2052.59  2061.01
                             2075.01  2112.87  2119.14  2162.91  2163.44
                             2175.34  2177.79  2188.70  2195.82  2248.58
                             2329.50  2380.87  2410.95  2501.19  4292.05
                             4368.30  4382.71  4393.80  4455.63  4458.75
                             4461.08  4509.89  4547.66  4547.95  4565.51
                             4585.59  4607.42  4633.15  4662.52  4700.58
                             5383.33

 Zero-point correction=                           0.286941 (Hartree/Particle)
 Thermal correction to Energy=                    0.302884
 Thermal correction to Enthalpy=                  0.303828
 Thermal correction to Gibbs Free Energy=         0.243609
 Sum of electronic and zero-point Energies=           -711.580672
 Sum of electronic and thermal Energies=              -711.564729
 Sum of electronic and thermal Enthalpies=            -711.563784
 Sum of electronic and thermal Free Energies=         -711.624003

                     E (Thermal)             CV                S
                      KCal/Mol        Cal/Mol-Kelvin    Cal/Mol-Kelvin
 Total                  190.063             61.818            126.741
 Electronic               0.000              0.000              0.000
 Translational            0.889              2.981             42.163
 Rotational               0.889              2.981             32.606
 Vibrational            188.285             55.856             51.972
 Vibration     1          0.594              1.982              5.501
 Vibration     2          0.596              1.976              4.656
 Vibration     3          0.599              1.964              3.964
 Vibration     4          0.600              1.962              3.851
 Vibration     5          0.606              1.943              3.319
 Vibration     6          0.610              1.928              3.023
 Vibration     7          0.622              1.890              2.538
 Vibration     8          0.631              1.863              2.296
 Vibration     9          0.632              1.859              2.264
 Vibration    10          0.642              1.828              2.059
 Vibration    11          0.657              1.779              1.804
 Vibration    12          0.677              1.719              1.563
 Vibration    13          0.689              1.683              1.444
 Vibration    14          0.717              1.605              1.233
 Vibration    15          0.726              1.579              1.174
 Vibration    16          0.757              1.494              1.005
 Vibration    17          0.788              1.414              0.872
 Vibration    18          0.799              1.386              0.831
 Vibration    19          0.818              1.337              0.764
 Vibration    20          0.826              1.320              0.742
 Vibration    21          0.854              1.253              0.662
 Vibration    22          0.881              1.192              0.596
 Vibration    23          0.887              1.179              0.582
 Vibration    24          0.925              1.098              0.506

                           ! Non-Optimized Parameters !
 Normal termination of Gaussian 16 at Fri Dec 11 13:31:10 2020.

 ----------------------------------------------------------------------
 # B3LYP/6-311++G(d,p) empiricaldispersion=gd3bj scf=xqc pop=npa geom=c
 heck
 ----------------------------------------------------------------------

 ---------------------------------------
 CID_105110034_JID_7827_Energie_neutraal
 ---------------------------------------
 Structure from the checkpoint file:  "JID_7827.chk"
 Charge =  0 Multiplicity = 1

 SCF Done:  E(RB3LYP) =  -712.061256831     A.U. after   16 cycles
 Normal termination of Gaussian 16 at Fri Dec 11 13:39:00 2020.

 ----------------------------------------------------------------------
 # B3LYP/6-311++G(d,p) empiricaldispersion=gd3bj scf=xqc pop=npa geom=c
 heck
 ----------------------------------------------------------------------

 -------------------------------------
 CID_105110034_JID_7827_Energie_kation
 -------------------------------------
 Structure from the checkpoint file:  "JID_7827.chk"
 Charge =  1 Multiplicity = 2

 SCF Done:  E(UB3LYP) =  -711.771633653     A.U. after   23 cycles
 Normal termination of Gaussian 16 at Fri Dec 11 13:55:07 2020.
 Gaussian 16:  ES64L-G16RevA.03 25-Dec-2016

 ----------------------------------------------------------------------
 # B3LYP/6-311++G(d,p) empiricaldispersion=gd3bj scf=xqc pop=npa geom=c
 heck
 ----------------------------------------------------------------------

 ------------------------------------
 CID_105110034_JID_7827_Energie_anion
 ------------------------------------
 Structure from the checkpoint file:  "JID_7827.chk"
 Charge = -1 Multiplicity = 2

                         Standard orientation:
 ---------------------------------------------------------------------
 Center     Atomic      Atomic             Coordinates (Angstroms)
 Number     Number       Type             X           Y           Z
 ---------------------------------------------------------------------
      1          6           0        3.413278   -2.401313    0.426541
      2          6           0        2.361304   -1.364461    0.127577
      3          7           0        2.679946   -0.097890    0.306422
      4          6           0        1.734129    0.851506    0.040143
      5          6           0        2.102424    2.204977    0.248778
      6          6           0        1.202693    3.220890    0.023191
      7          6           0       -0.104727    2.922011   -0.422948
      8          6           0       -0.495115    1.619260   -0.642186
      9          6           0        0.409377    0.544401   -0.418125
     10          6           0        0.094858   -0.841414   -0.603369
     11          6           0        1.079852   -1.765372   -0.335133
     12          6           0       -1.261762   -1.373796   -1.041812
     13          6           0       -2.248018   -1.619769    0.123338
     14          6           0       -2.575126   -0.426166    0.994810
     15          6           0       -3.590272    0.387817    0.690745
     16          6           0       -1.723484   -0.225531    2.221998
     17          8           0       -1.935419   -0.558545   -1.995963
     18          1           0        4.331230   -1.909606    0.754009
     19          1           0        3.078041   -3.087782    1.214110
     20          1           0        3.632170   -3.009850   -0.459710
     21          1           0        3.112621    2.396342    0.595516
     22          1           0        1.493698    4.254451    0.189083
     23          1           0       -0.812043    3.728645   -0.594055
     24          1           0       -1.499108    1.396250   -0.973789
     25          1           0        0.879449   -2.825116   -0.477278
     26          1           0       -1.076946   -2.364120   -1.487843
     27          1           0       -3.162265   -2.005337   -0.340988
     28          1           0       -1.826966   -2.426533    0.735989
     29          1           0       -3.830661    1.251442    1.305706
     30          1           0       -4.203957    0.225395   -0.190750
     31          1           0       -1.816611   -1.084781    2.900676
     32          1           0       -0.662002   -0.139704    1.965577
     33          1           0       -2.014499    0.675628    2.769554
     34          1           0       -1.294885   -0.319983   -2.684349
 ---------------------------------------------------------------------

 SCF Done:  E(UB3LYP) =  -712.066594382     A.U. after   31 cycles

 The electronic state is 2-A.
 Alpha  occ. eigenvalues --  -19.00391 -14.12694 -10.10394 -10.06982 -10.05694
 Alpha  occ. eigenvalues --  -10.05020 -10.04966 -10.04811 -10.04331 -10.03579
 Alpha  occ. eigenvalues --  -10.03070 -10.01928 -10.01879 -10.01522 -10.01027
 Alpha  occ. eigenvalues --  -10.00682 -10.00664  -0.90804  -0.78160  -0.70368
 Alpha  occ. eigenvalues --   -0.69125  -0.65990  -0.62148  -0.61068  -0.58234
 Alpha  occ. eigenvalues --   -0.57226  -0.55935  -0.51204  -0.47571  -0.45714
 Alpha  occ. eigenvalues --   -0.44326  -0.41371  -0.39586  -0.36889  -0.35332
 Alpha  occ. eigenvalues --   -0.35097  -0.33599  -0.32422  -0.31726  -0.30981
 Alpha  occ. eigenvalues --   -0.29582  -0.29234  -0.28170  -0.27561  -0.26225
 Alpha  occ. eigenvalues --   -0.25824  -0.25681  -0.25501  -0.25197  -0.24307
 Alpha  occ. eigenvalues --   -0.22509  -0.21186  -0.20686  -0.19332  -0.18602
 Alpha  occ. eigenvalues --   -0.16297  -0.14463  -0.13521  -0.09861  -0.09765
 Alpha  occ. eigenvalues --   -0.08285   0.05103
 Alpha virt. eigenvalues --    0.07762   0.08984   0.09270   0.09573   0.10437
 Alpha virt. eigenvalues --    0.10766   0.11085   0.11273   0.11969   0.12269
 Alpha virt. eigenvalues --    0.12732   0.13028   0.13465   0.13866   0.14361

  Beta  occ. eigenvalues --  -19.00363 -14.12255 -10.10426 -10.06987 -10.05659
  Beta  occ. eigenvalues --  -10.05020 -10.04880 -10.04858 -10.04321 -10.03585
  Beta  occ. eigenvalues --  -10.03166 -10.01898 -10.01793 -10.01054 -10.00902
  Beta  occ. eigenvalues --  -10.00487 -10.00414  -0.90734  -0.77593  -0.70279
  Beta  occ. eigenvalues --   -0.68808  -0.65441  -0.61905  -0.60916  -0.57841
  Beta  occ. eigenvalues --   -0.57164  -0.55766  -0.50989  -0.47207  -0.45415
  Beta  occ. eigenvalues --   -0.44048  -0.41343  -0.39485  -0.36568  -0.35151
  Beta  occ. eigenvalues --   -0.34981  -0.33511  -0.32337  -0.31579  -0.30873
  Beta  occ. eigenvalues --   -0.29291  -0.29156  -0.28051  -0.27417  -0.26105
  Beta  occ. eigenvalues --   -0.25785  -0.25533  -0.25423  -0.25063  -0.23605
  Beta  occ. eigenvalues --   -0.22467  -0.21010  -0.20533  -0.19131  -0.17379
  Beta  occ. eigenvalues --   -0.15699  -0.13887  -0.12779  -0.09300  -0.08986
  Beta  occ. eigenvalues --   -0.06512
  Beta virt. eigenvalues --    0.07714   0.08935   0.09239   0.09526   0.10388
  Beta virt. eigenvalues --    0.10726   0.10815   0.11084   0.11336   0.12045
  Beta virt. eigenvalues --    0.12339   0.12698   0.12985   0.13461   0.13899

 Mulliken charges and spin densities:
               1          2
     1  C   -0.504958  -0.010349
     2  C   -0.204211   0.059124
     3  N    0.028238   0.206400
     4  C   -0.626107  -0.037777
     5  C   -0.213379   0.116740
     6  C   -0.352355   0.098476
     7  C   -0.374361   0.043484
     8  C   -0.344213   0.150844
     9  C    0.145651  -0.065872
    10  C    0.855497   0.282918
    11  C   -0.278932   0.167443
    12  C   -0.071193  -0.053505
    13  C   -0.506421  -0.043200
    14  C    0.976947   0.037145
    15  C   -0.747271  -0.002029
    16  C   -0.881804  -0.006021
    17  O   -0.209708   0.003299
    18  H    0.135950  -0.001793
    19  H    0.121836   0.002379
    20  H    0.123990   0.001732
    21  H    0.128338  -0.013304
    22  H    0.101572  -0.006841
    23  H    0.111191  -0.000790
    24  H    0.164457  -0.013936
    25  H    0.084120   0.007321
    26  H    0.128949   0.039694
    27  H    0.130180   0.038238
    28  H    0.139014  -0.004514
    29  H    0.097044   0.003239
    30  H    0.132284  -0.001212
    31  H    0.130415   0.000019
    32  H    0.221752   0.000487
    33  H    0.112267   0.001449
    34  H    0.245220   0.000714
 Sum of Mulliken charges =  -1.00000   1.00000

 Dipole moment (field-independent basis, Debye):
    X=             -3.4505    Y=             -2.3011    Z=              0.1912  Tot=              4.1518
 Quadrupole moment (field-independent basis, Debye-Ang):
   XX=           -140.9485   YY=           -123.8667   ZZ=           -112.7230
   XY=             -2.9130   XZ=             -2.2960   YZ=              0.0632

 Summary of Natural Population Analysis:

                                       Natural Population
                Natural  -----------------------------------------------
    Atom  No    Charge         Core      Valence    Rydberg      Total
 -----------------------------------------------------------------------
      C    1   -0.29530      0.99964     2.29132    0.00434     3.29530
      C    2    0.12051      0.99957     1.86682    0.01310     2.87949
      N    3   -0.19732      0.99965     2.68460    0.01306     3.69732
      C    4    0.05746      0.99954     1.92527    0.01773     2.94254
      C    5   -0.07051      0.99953     2.06114    0.00984     3.07051
      C    6   -0.09380      0.99957     2.08409    0.01014     3.09380
      C    7   -0.11444      0.99957     2.10518    0.00969     3.11444
      C    8   -0.07987      0.99959     2.06393    0.01635     3.07987
      C    9   -0.00461      0.99946     1.99436    0.01079     3.00461
      C   10    0.04231      0.99950     1.94165    0.01654     2.95769
      C   11   -0.11096      0.99947     2.10248    0.00900     3.11096
      C   12    0.06443      0.99951     1.91938    0.01669     2.93557
      C   13   -0.20333      0.99955     2.19256    0.01122     3.20333
      C   14    0.00657      0.99953     1.98482    0.00907     2.99343
      C   15   -0.20021      0.99949     2.19443    0.00629     3.20021
      C   16   -0.30003      0.99961     2.29520    0.00522     3.30003
      O   17   -0.37312      0.99989     3.36699    0.00623     4.37312
      H   18    0.10366      0.00000     0.39525    0.00109     0.39634
      H   19    0.09464      0.00000     0.40435    0.00101     0.40536
      H   20    0.09463      0.00000     0.40437    0.00100     0.40537
      H   21    0.09377      0.00000     0.40476    0.00146     0.40623
      H   22    0.08675      0.00000     0.41211    0.00114     0.41325
      H   23    0.08881      0.00000     0.41045    0.00074     0.41119
      H   24    0.10436      0.00000     0.39359    0.00206     0.39564
      H   25    0.08685      0.00000     0.41200    0.00115     0.41315
      H   26    0.07662      0.00000     0.42147    0.00191     0.42338
      H   27    0.10021      0.00000     0.39840    0.00139     0.39979
      H   28    0.10102      0.00000     0.39802    0.00095     0.39898
      H   29    0.08741      0.00000     0.41143    0.00116     0.41259
      H   30    0.09275      0.00000     0.40618    0.00107     0.40725
      H   31    0.09463      0.00000     0.40423    0.00114     0.40537
      H   32    0.11919      0.00000     0.37969    0.00112     0.38081
      H   33    0.09739      0.00000     0.40164    0.00098     0.40261
      H   34    0.23111      0.00000     0.26676    0.00213     0.26889
 =======================================================================
   * Total *    0.00157     16.99269    43.79892    0.20682    60.99843

 Normal termination of Gaussian 16 at Fri Dec 11 14:15:56 2020.
