 Gaussian 16, Revision A.03,

 -----------------------------------------------------------
 # opt freq B3LYP/6-31G(d) empiricaldispersion=gd3bj scf=xqc
 -----------------------------------------------------------

 ------------------------------
 CID_85836038_JID_2243_neutraal
 ------------------------------
 Symbolic Z-matrix:
 Charge =  0 Multiplicity = 1

 SCF Done:  E(RB3LYP) =  -542.363993655     A.U. after   14 cycles
 SCF Done:  E(RB3LYP) =  -542.366519437     A.U. after   11 cycles
 SCF Done:  E(RB3LYP) =  -542.366774565     A.U. after   11 cycles
 SCF Done:  E(RB3LYP) =  -542.367222599     A.U. after   10 cycles
 SCF Done:  E(RB3LYP) =  -542.367263867     A.U. after   10 cycles
 SCF Done:  E(RB3LYP) =  -542.367267484     A.U. after    8 cycles
 SCF Done:  E(RB3LYP) =  -542.367267944     A.U. after    7 cycles
 SCF Done:  E(RB3LYP) =  -542.367268020     A.U. after    7 cycles
 Optimization completed.
    -- Stationary point found.
 Normal termination of Gaussian 16 at Wed Dec  9 16:54:35 2020.

 --------------------------------------------------------------------
 #N Geom=AllCheck Guess=TCheck SCRF=Check GenChk RB3LYP/6-31G(d) Freq
 --------------------------------------------------------------------

 Structure from the checkpoint file:  "JID_2243.chk"
 ------------------------------
 CID_85836038_JID_2243_neutraal
 ------------------------------
 Charge =  0 Multiplicity = 1

 SCF Done:  E(RB3LYP) =  -542.367268020     A.U. after    1 cycles

  Exact polarizability: 127.560   5.087 102.598   4.185  -2.578  97.602
 Approx polarizability: 173.802   6.939 140.895  13.830  -4.222 146.702

                      1                      2                      3
                      A                      A                      A
 Frequencies --     30.9804                61.7578                77.9957
 Red. masses --      3.0015                 4.2156                 2.9427
 Frc consts  --      0.0017                 0.0095                 0.0105
 IR Inten    --      0.4364                 0.0951                 2.3101

                      4                      5                      6
                      A                      A                      A
 Frequencies --    140.3511               195.7310               228.3652
 Red. masses --      2.6857                 2.6258                 1.9394
 Frc consts  --      0.0312                 0.0593                 0.0596
 IR Inten    --      0.1131                 1.2182                 2.0184

                      7                      8                      9
                      A                      A                      A
 Frequencies --    246.9957               280.5855               291.0538
 Red. masses --      1.6243                 2.3260                 1.8716
 Frc consts  --      0.0584                 0.1079                 0.0934
 IR Inten    --      2.1595                 2.0669                 0.5216

                     10                     11                     12
                      A                      A                      A
 Frequencies --    316.8210               319.5227               341.5835
 Red. masses --      1.5137                 1.6331                 2.6916
 Frc consts  --      0.0895                 0.0982                 0.1850
 IR Inten    --     46.1573                43.5123                 8.6608

                     13                     14                     15
                      A                      A                      A
 Frequencies --    358.4798               402.4870               430.6932
 Red. masses --      2.0247                 3.9380                 2.1453
 Frc consts  --      0.1533                 0.3759                 0.2345
 IR Inten    --      1.8259                 0.3455                 4.9879

                     16                     17                     18
                      A                      A                      A
 Frequencies --    459.0516               468.4510               483.8541
 Red. masses --      3.6734                 3.3619                 1.8221
 Frc consts  --      0.4561                 0.4347                 0.2513
 IR Inten    --      3.6649                 7.5298                 0.6715

                     19                     20                     21
                      A                      A                      A
 Frequencies --    572.1373               671.2633               725.1202
 Red. masses --      2.5741                 3.3236                 3.0698
 Frc consts  --      0.4965                 0.8824                 0.9510
 IR Inten    --      7.1297                23.3314                 6.0303

                     22                     23                     24
                      A                      A                      A
 Frequencies --    788.4782               824.2237               849.7248
 Red. masses --      1.4696                 1.8107                 2.3733
 Frc consts  --      0.5383                 0.7248                 1.0096
 IR Inten    --      0.8844                11.2310                 5.4801

                     25                     26                     27
                      A                      A                      A
 Frequencies --    873.4617               885.9550               932.9252
 Red. masses --      1.6213                 1.9138                 2.2278
 Frc consts  --      0.7288                 0.8851                 1.1424
 IR Inten    --      6.6775                 8.6943                 1.9668

                     28                     29                     30
                      A                      A                      A
 Frequencies --    958.4927               976.9755               982.2187
 Red. masses --      1.4788                 1.3075                 2.0814
 Frc consts  --      0.8005                 0.7353                 1.1831
 IR Inten    --      0.6453                39.3652                27.7198

                     31                     32                     33
                      A                      A                      A
 Frequencies --    989.4213               998.5712              1053.3444
 Red. masses --      2.3713                 2.8249                 1.8343
 Frc consts  --      1.3677                 1.6596                 1.1991
 IR Inten    --     35.5534                23.1404                 0.5949

                     34                     35                     36
                      A                      A                      A
 Frequencies --   1079.2445              1101.9251              1107.2259
 Red. masses --      1.6841                 2.4845                 3.2426
 Frc consts  --      1.1557                 1.7774                 2.3422
 IR Inten    --     15.0332                21.9386                16.3222

                     37                     38                     39
                      A                      A                      A
 Frequencies --   1125.3218              1155.9741              1170.4469
 Red. masses --      1.4378                 1.6320                 1.7663
 Frc consts  --      1.0728                 1.2849                 1.4257
 IR Inten    --      0.6072                 5.7703                48.5370

                     40                     41                     42
                      A                      A                      A
 Frequencies --   1189.0039              1198.4222              1227.7854
 Red. masses --      1.2807                 1.4788                 1.5855
 Frc consts  --      1.0668                 1.2514                 1.4082
 IR Inten    --      1.4698                20.7399                11.8212

                     43                     44                     45
                      A                      A                      A
 Frequencies --   1259.5724              1263.6008              1298.0709
 Red. masses --      2.7782                 1.3871                 1.3114
 Frc consts  --      2.5970                 1.3049                 1.3019
 IR Inten    --    188.5143                 2.8895                 7.5170

                     46                     47                     48
                      A                      A                      A
 Frequencies --   1303.8816              1323.1149              1335.8258
 Red. masses --      1.3677                 1.3393                 1.2905
 Frc consts  --      1.3700                 1.3815                 1.3568
 IR Inten    --      9.7887                 4.1177                 8.1615

                     49                     50                     51
                      A                      A                      A
 Frequencies --   1364.8178              1378.0693              1385.8901
 Red. masses --      1.4144                 1.4237                 1.6358
 Frc consts  --      1.5523                 1.5930                 1.8511
 IR Inten    --     12.3164                 2.1642                32.7822

                     52                     53                     54
                      A                      A                      A
 Frequencies --   1390.1461              1395.0176              1402.8124
 Red. masses --      1.4208                 1.2658                 1.4214
 Frc consts  --      1.6177                 1.4513                 1.6480
 IR Inten    --      3.4832                 1.1684                 0.4201

                     55                     56                     57
                      A                      A                      A
 Frequencies --   1417.6111              1430.0107              1497.6879
 Red. masses --      1.4783                 1.4984                 1.1683
 Frc consts  --      1.7504                 1.8053                 1.5440
 IR Inten    --      2.8653                20.1316                 1.6349

                     58                     59                     60
                      A                      A                      A
 Frequencies --   1503.4620              1504.2950              1516.2550
 Red. masses --      1.1009                 1.0852                 1.0530
 Frc consts  --      1.4661                 1.4469                 1.4263
 IR Inten    --      4.3640                 2.0946                 6.5328

                     61                     62                     63
                      A                      A                      A
 Frequencies --   1517.3858              1519.2633              1524.5509
 Red. masses --      1.0895                 1.0938                 1.0855
 Frc consts  --      1.4779                 1.4875                 1.4864
 IR Inten    --      1.0530                 4.5249                 5.4303

                     64                     65                     66
                      A                      A                      A
 Frequencies --   1536.2339              1537.5828              1735.2377
 Red. masses --      1.0500                 1.0964                 5.3227
 Frc consts  --      1.4600                 1.5272                 9.4427
 IR Inten    --     18.3603                 4.1562               133.5201

                     67                     68                     69
                      A                      A                      A
 Frequencies --   2999.8767              3007.7967              3018.2929
 Red. masses --      1.0699                 1.0694                 1.0673
 Frc consts  --      5.6728                 5.7004                 5.7287
 IR Inten    --     12.7709                55.9447                43.8771

                     70                     71                     72
                      A                      A                      A
 Frequencies --   3022.9020              3034.1951              3050.0082
 Red. masses --      1.0347                 1.0630                 1.0681
 Frc consts  --      5.5709                 5.7662                 5.8539
 IR Inten    --     33.7966                30.2622                17.2688

                     73                     74                     75
                      A                      A                      A
 Frequencies --   3050.8767              3071.2396              3072.1075
 Red. masses --      1.0666                 1.0943                 1.0930
 Frc consts  --      5.8494                 6.0814                 6.0775
 IR Inten    --     47.8496                64.3444                39.0938

                     76                     77                     78
                      A                      A                      A
 Frequencies --   3075.8178              3079.3445              3082.7655
 Red. masses --      1.0928                 1.1059                 1.0983
 Frc consts  --      6.0916                 6.1785                 6.1496
 IR Inten    --      2.8364                54.6206                43.0582

                     79                     80                     81
                      A                      A                      A
 Frequencies --   3096.2113              3109.1578              3159.8875
 Red. masses --      1.0987                 1.0969                 1.0998
 Frc consts  --      6.2055                 6.2477                 6.4703
 IR Inten    --     39.7653                57.2816                29.2105

                     82                     83                     84
                      A                      A                      A
 Frequencies --   3199.2758              3208.1248              3729.6018
 Red. masses --      1.0932                 1.0862                 1.0658
 Frc consts  --      6.5926                 6.5868                 8.7347
 IR Inten    --      9.1737                21.9641                 2.8184

 - Thermochemistry -
 -------------------
 Temperature   298.150 Kelvin.  Pressure   1.00000 Atm.
 Atom     1 has atomic number  6 and mass  12.00000

 Molecular mass:   170.13068 amu.
 Principal axes and moments of inertia in atomic units:
                           1         2         3
     Eigenvalues --  1402.731003019.524583541.08616
           X            0.99993  -0.00194  -0.01199
           Y            0.00177   0.99990  -0.01379
           Z            0.01201   0.01376   0.99983
 This molecule is an asymmetric top.
 Rotational symmetry number  1.
 Warning -- assumption of classical behavior for rotation
           may cause significant error
 Rotational temperatures (Kelvin)      0.06175     0.02868     0.02446
 Rotational constants (GHZ):           1.28659     0.59769     0.50966
 Zero-point vibrational energy     711660.2 (Joules/Mol)
                                  170.09088 (Kcal/Mol)
 Warning -- explicit consideration of  19 degrees of freedom as
           vibrations may cause significant error
 Vibrational temperatures:     44.57    88.86   112.22   201.93   281.61
          (Kelvin)            328.57   355.37   403.70   418.76   455.83
                              459.72   491.46   515.77   579.09   619.67
                              660.47   674.00   696.16   823.18   965.80
                             1043.29  1134.44  1185.87  1222.56  1256.72
                             1274.69  1342.27  1379.06  1405.65  1413.19
                             1423.56  1436.72  1515.53  1552.79  1585.42
                             1593.05  1619.09  1663.19  1684.01  1710.71
                             1724.26  1766.51  1812.24  1818.04  1867.63
                             1875.99  1903.67  1921.96  1963.67  1982.73
                             1993.99  2000.11  2007.12  2018.33  2039.63
                             2057.47  2154.84  2163.15  2164.35  2181.55
                             2183.18  2185.88  2193.49  2210.30  2212.24
                             2496.62  4316.15  4327.55  4342.65  4349.28
                             4365.53  4388.28  4389.53  4418.83  4420.08
                             4425.42  4430.49  4435.41  4454.76  4473.38
                             4546.37  4603.04  4615.78  5366.07

 Zero-point correction=                           0.271057 (Hartree/Particle)
 Thermal correction to Energy=                    0.283687
 Thermal correction to Enthalpy=                  0.284631
 Thermal correction to Gibbs Free Energy=         0.232042
 Sum of electronic and zero-point Energies=           -542.096211
 Sum of electronic and thermal Energies=              -542.083581
 Sum of electronic and thermal Enthalpies=            -542.082637
 Sum of electronic and thermal Free Energies=         -542.135226

                     E (Thermal)             CV                S
                      KCal/Mol        Cal/Mol-Kelvin    Cal/Mol-Kelvin
 Total                  178.016             48.896            110.682
 Electronic               0.000              0.000              0.000
 Translational            0.889              2.981             41.302
 Rotational               0.889              2.981             31.084
 Vibrational            176.239             42.934             38.296
 Vibration     1          0.594              1.984              5.766
 Vibration     2          0.597              1.973              4.400
 Vibration     3          0.599              1.964              3.941
 Vibration     4          0.615              1.913              2.799
 Vibration     5          0.636              1.846              2.173
 Vibration     6          0.651              1.798              1.892
 Vibration     7          0.661              1.768              1.752
 Vibration     8          0.680              1.710              1.530
 Vibration     9          0.687              1.690              1.468
 Vibration    10          0.704              1.641              1.326
 Vibration    11          0.705              1.636              1.313
 Vibration    12          0.721              1.592              1.205
 Vibration    13          0.733              1.558              1.129
 Vibration    14          0.768              1.465              0.954
 Vibration    15          0.792              1.403              0.856
 Vibration    16          0.817              1.341              0.769
 Vibration    17          0.826              1.320              0.742
 Vibration    18          0.840              1.286              0.700
 Vibration    19          0.928              1.092              0.500

                           ! Non-Optimized Parameters !
 Normal termination of Gaussian 16 at Wed Dec  9 17:02:56 2020.

 ----------------------------------------------------------------------
 # B3LYP/6-311++G(d,p) empiricaldispersion=gd3bj scf=xqc pop=npa geom=c
 heck
 ----------------------------------------------------------------------

 --------------------------------------
 CID_85836038_JID_2243_Energie_neutraal
 --------------------------------------
 Structure from the checkpoint file:  "JID_2243.chk"
 Charge =  0 Multiplicity = 1

 SCF Done:  E(RB3LYP) =  -542.531233810     A.U. after   14 cycles
 Normal termination of Gaussian 16 at Wed Dec  9 17:07:10 2020.

 ----------------------------------------------------------------------
 # B3LYP/6-311++G(d,p) empiricaldispersion=gd3bj scf=xqc pop=npa geom=c
 heck
 ----------------------------------------------------------------------

 ------------------------------------
 CID_85836038_JID_2243_Energie_kation
 ------------------------------------
 Structure from the checkpoint file:  "JID_2243.chk"
 Charge =  1 Multiplicity = 2

 SCF Done:  E(UB3LYP) =  -542.229876017     A.U. after   24 cycles
 Normal termination of Gaussian 16 at Wed Dec  9 17:16:49 2020.
 Gaussian 16:  ES64L-G16RevA.03 25-Dec-2016

 ----------------------------------------------------------------------
 # B3LYP/6-311++G(d,p) empiricaldispersion=gd3bj scf=xqc pop=npa geom=c
 heck
 ----------------------------------------------------------------------

 -----------------------------------
 CID_85836038_JID_2243_Energie_anion
 -----------------------------------
 Structure from the checkpoint file:  "JID_2243.chk"
 Charge = -1 Multiplicity = 2

                         Standard orientation:
 ---------------------------------------------------------------------
 Center     Atomic      Atomic             Coordinates (Angstroms)
 Number     Number       Type             X           Y           Z
 ---------------------------------------------------------------------
      1          6           0        3.634482    0.681527   -0.557615
      2          8           0        3.372577   -0.221639    0.503226
      3          6           0        2.172026   -0.859101    0.476413
      4          6           0        1.196403   -0.757507   -0.434881
      5          6           0       -0.071870   -1.555761   -0.336768
      6          6           0       -1.403894   -0.813022   -0.069038
      7          6           0       -1.447654   -0.115056    1.306089
      8          6           0       -0.776261    1.265015    1.357931
      9          6           0       -1.321690    2.188617    0.263014
     10          6           0       -1.146595    1.555294   -1.122066
     11          6           0       -1.807265    0.169797   -1.189235
     12          8           0       -2.339005   -1.909673   -0.063494
     13          1           0        4.623405    1.101573   -0.366901
     14          1           0        2.889104    1.488054   -0.583900
     15          1           0        3.633235    0.165521   -1.527109
     16          1           0        2.080818   -1.509519    1.342645
     17          1           0        1.322925   -0.116670   -1.301124
     18          1           0       -0.226215   -2.120257   -1.266333
     19          1           0        0.025318   -2.302152    0.460640
     20          1           0       -2.509686    0.013036    1.569021
     21          1           0       -1.023107   -0.787814    2.061058
     22          1           0        0.305617    1.154040    1.233729
     23          1           0       -0.939331    1.709931    2.347614
     24          1           0       -0.820451    3.163702    0.301253
     25          1           0       -2.390883    2.377025    0.442853
     26          1           0       -0.077199    1.480747   -1.347920
     27          1           0       -1.582108    2.200031   -1.895743
     28          1           0       -1.635075   -0.305995   -2.162505
     29          1           0       -2.895740    0.315832   -1.108411
     30          1           0       -3.215295   -1.535407    0.120220
 ---------------------------------------------------------------------

 SCF Done:  E(UB3LYP) =  -542.516736220     A.U. after   30 cycles

 The electronic state is 2-A.
 Alpha  occ. eigenvalues --  -19.05871 -19.01903 -10.12676 -10.12557 -10.12074
 Alpha  occ. eigenvalues --  -10.07191 -10.06538 -10.06346 -10.06275 -10.06031
 Alpha  occ. eigenvalues --  -10.05923 -10.05825  -0.97246  -0.92291  -0.72849
 Alpha  occ. eigenvalues --   -0.69214  -0.64436  -0.64216  -0.61553  -0.56886
 Alpha  occ. eigenvalues --   -0.51455  -0.49447  -0.46785  -0.44780  -0.41783
 Alpha  occ. eigenvalues --   -0.40741  -0.37506  -0.37016  -0.35838  -0.34383
 Alpha  occ. eigenvalues --   -0.33903  -0.32494  -0.31523  -0.30607  -0.28079
 Alpha  occ. eigenvalues --   -0.27749  -0.26641  -0.26319  -0.25511  -0.24554
 Alpha  occ. eigenvalues --   -0.24086  -0.23142  -0.21955  -0.21661  -0.20751
 Alpha  occ. eigenvalues --   -0.16881  -0.12823   0.04452
 Alpha virt. eigenvalues --    0.06176   0.07601   0.07759   0.08593   0.09208
 Alpha virt. eigenvalues --    0.09811   0.10242   0.10438   0.11132   0.11885
 Alpha virt. eigenvalues --    0.12117   0.12277   0.13081   0.13412   0.14139

  Beta  occ. eigenvalues --  -19.05864 -19.01883 -10.12678 -10.12555 -10.12025
  Beta  occ. eigenvalues --  -10.07183 -10.06530 -10.06327 -10.06253 -10.06011
  Beta  occ. eigenvalues --  -10.05911 -10.05802  -0.97227  -0.92256  -0.72820
  Beta  occ. eigenvalues --   -0.69195  -0.64398  -0.64177  -0.61501  -0.56844
  Beta  occ. eigenvalues --   -0.51401  -0.49397  -0.46732  -0.44727  -0.41754
  Beta  occ. eigenvalues --   -0.40692  -0.37467  -0.36984  -0.35802  -0.34352
  Beta  occ. eigenvalues --   -0.33869  -0.32455  -0.31502  -0.30570  -0.28055
  Beta  occ. eigenvalues --   -0.27714  -0.26612  -0.26289  -0.25481  -0.24516
  Beta  occ. eigenvalues --   -0.24049  -0.23109  -0.21915  -0.21628  -0.20718
  Beta  occ. eigenvalues --   -0.16856  -0.12812
  Beta virt. eigenvalues --    0.06775   0.07383   0.08135   0.08351   0.09108
  Beta virt. eigenvalues --    0.09711   0.10351   0.10582   0.10770   0.11428
  Beta virt. eigenvalues --    0.12170   0.12488   0.12772   0.13255   0.13668

 Mulliken charges and spin densities:
               1          2
     1  C    0.832362  -1.175365
     2  O   -0.143122   0.056665
     3  C   -1.174657   0.535954
     4  C    0.500800   0.257810
     5  C    0.727869  -1.636798
     6  C   -0.277628   0.315043
     7  C    0.283978  -0.651667
     8  C   -0.497933   0.405156
     9  C    0.608960  -1.258209
    10  C    0.128730  -0.155838
    11  C    0.341980  -0.837520
    12  O   -0.196929   0.031942
    13  H   -0.681442   0.860053
    14  H   -0.205004   0.363231
    15  H   -0.307972   0.454694
    16  H   -0.005706   0.163082
    17  H    0.122977   0.056246
    18  H    0.085142   0.101446
    19  H    0.163836   0.000102
    20  H   -0.358562   0.489759
    21  H    0.083803   0.077648
    22  H    0.363626  -0.179024
    23  H   -0.263755   0.445855
    24  H   -0.408124   0.581223
    25  H    0.002502   0.117449
    26  H    0.011636   0.089078
    27  H   -0.428066   0.620887
    28  H   -0.127096   0.299697
    29  H   -0.289507   0.421997
    30  H    0.107304   0.149404
 Sum of Mulliken charges =  -1.00000   1.00000

 Dipole moment (field-independent basis, Debye):
    X=             -0.8215    Y=             -4.0421    Z=              1.8288  Tot=              4.5120
 Quadrupole moment (field-independent basis, Debye-Ang):
   XX=           -149.6473   YY=           -122.0905   ZZ=           -111.3867
   XY=             -4.8855   XZ=              4.5041   YZ=              1.1208

 Summary of Natural Population Analysis:

                                       Natural Population
                Natural  -----------------------------------------------
    Atom  No    Charge         Core      Valence    Rydberg      Total
 -----------------------------------------------------------------------
      C    1   -0.10278      0.99961     2.09326    0.00991     3.10278
      O    2   -0.27381      0.99987     3.26340    0.01055     4.27381
      C    3    0.08678      0.99941     1.90080    0.01300     2.91322
      C    4   -0.15749      0.99952     2.14947    0.00851     3.15749
      C    5   -0.20374      0.99956     2.19269    0.01150     3.20374
      C    6    0.13624      0.99950     1.84967    0.01458     2.86376
      C    7   -0.19939      0.99958     2.18873    0.01108     3.19939
      C    8   -0.19353      0.99962     2.18530    0.00861     3.19353
      C    9   -0.18711      0.99963     2.17940    0.00808     3.18711
      C   10   -0.19109      0.99962     2.18252    0.00895     3.19109
      C   11   -0.20029      0.99958     2.18974    0.01097     3.20029
      O   12   -0.37881      0.99989     3.37250    0.00642     4.37881
      H   13    0.09423      0.00000     0.40417    0.00160     0.40577
      H   14    0.08704      0.00000     0.41092    0.00204     0.41296
      H   15    0.08498      0.00000     0.41331    0.00171     0.41502
      H   16    0.08500      0.00000     0.41370    0.00130     0.41500
      H   17    0.10014      0.00000     0.39792    0.00193     0.39986
      H   18    0.10513      0.00000     0.39350    0.00137     0.39487
      H   19    0.10222      0.00000     0.39651    0.00127     0.39778
      H   20    0.09556      0.00000     0.40286    0.00158     0.40444
      H   21    0.10038      0.00000     0.39853    0.00110     0.39962
      H   22    0.10005      0.00000     0.39768    0.00227     0.39995
      H   23    0.09751      0.00000     0.40149    0.00100     0.40249
      H   24    0.10044      0.00000     0.39828    0.00129     0.39956
      H   25    0.09232      0.00000     0.40598    0.00169     0.40768
      H   26    0.09444      0.00000     0.40339    0.00217     0.40556
      H   27    0.10003      0.00000     0.39857    0.00140     0.39997
      H   28    0.10198      0.00000     0.39677    0.00125     0.39802
      H   29    0.09633      0.00000     0.40192    0.00175     0.40367
      H   30    0.22725      0.00000     0.26987    0.00287     0.27275
 =======================================================================
   * Total *    0.00000     11.99539    34.85286    0.15175    47.00000

 Normal termination of Gaussian 16 at Wed Dec  9 17:28:15 2020.
