 Gaussian 16, Revision A.03,

 -----------------------------------------------------------
 # opt freq B3LYP/6-31G(d) empiricaldispersion=gd3bj scf=xqc
 -----------------------------------------------------------

 ------------------------------
 CID_115629283_JID_594_neutraal
 ------------------------------
 Symbolic Z-matrix:
 Charge =  0 Multiplicity = 1

 SCF Done:  E(RB3LYP) =  -459.926236609     A.U. after   14 cycles
 SCF Done:  E(RB3LYP) =  -459.931147600     A.U. after   12 cycles
 SCF Done:  E(RB3LYP) =  -459.931938903     A.U. after   12 cycles
 SCF Done:  E(RB3LYP) =  -459.932977884     A.U. after   12 cycles
 SCF Done:  E(RB3LYP) =  -459.933639249     A.U. after   12 cycles
 SCF Done:  E(RB3LYP) =  -459.933852849     A.U. after   11 cycles
 SCF Done:  E(RB3LYP) =  -459.933964269     A.U. after   11 cycles
 SCF Done:  E(RB3LYP) =  -459.934012743     A.U. after   10 cycles
 SCF Done:  E(RB3LYP) =  -459.934116098     A.U. after   11 cycles
 SCF Done:  E(RB3LYP) =  -459.934243933     A.U. after   12 cycles
 SCF Done:  E(RB3LYP) =  -459.934374525     A.U. after   10 cycles
 SCF Done:  E(RB3LYP) =  -459.934375686     A.U. after   10 cycles
 SCF Done:  E(RB3LYP) =  -459.934376759     A.U. after    8 cycles
 SCF Done:  E(RB3LYP) =  -459.934377005     A.U. after    8 cycles
 Optimization completed.
    -- Stationary point found.
 Normal termination of Gaussian 16 at Tue Dec  8 13:04:48 2020.

 --------------------------------------------------------------------
 #N Geom=AllCheck Guess=TCheck SCRF=Check GenChk RB3LYP/6-31G(d) Freq
 --------------------------------------------------------------------

 Structure from the checkpoint file:  "JID_594.chk"
 ------------------------------
 CID_115629283_JID_594_neutraal
 ------------------------------
 Charge =  0 Multiplicity = 1

 SCF Done:  E(RB3LYP) =  -459.934377005     A.U. after    1 cycles

  Exact polarizability: 118.143   4.538  87.247   9.424  -1.054  65.166
 Approx polarizability: 145.441   3.837 132.059  15.361  -2.710  96.893

                      1                      2                      3
                      A                      A                      A
 Frequencies --     30.2730                49.2586                79.1490
 Red. masses --      3.5242                 4.3012                 2.4929
 Frc consts  --      0.0019                 0.0061                 0.0092
 IR Inten    --      0.7448                 2.0102                 1.6939

                      4                      5                      6
                      A                      A                      A
 Frequencies --    119.4948               151.7481               155.9914
 Red. masses --      3.5949                 3.0449                 1.6161
 Frc consts  --      0.0302                 0.0413                 0.0232
 IR Inten    --      1.2441                 4.6910                 1.3186

                      7                      8                      9
                      A                      A                      A
 Frequencies --    181.9305               213.8072               247.9843
 Red. masses --      1.1488                 1.5137                 2.5335
 Frc consts  --      0.0224                 0.0408                 0.0918
 IR Inten    --      0.9274                 1.7767                 0.6837

                     10                     11                     12
                      A                      A                      A
 Frequencies --    292.4897               309.3296               349.6620
 Red. masses --      2.5120                 2.9911                 2.3844
 Frc consts  --      0.1266                 0.1686                 0.1718
 IR Inten    --      1.6579                 3.4938                 0.3410

                     13                     14                     15
                      A                      A                      A
 Frequencies --    478.2396               505.9639               531.0976
 Red. masses --      2.2019                 2.3044                 3.8472
 Frc consts  --      0.2967                 0.3476                 0.6394
 IR Inten    --      3.9892                 6.4596                25.2755

                     16                     17                     18
                      A                      A                      A
 Frequencies --    573.3842               654.4944               757.7383
 Red. masses --      2.0753                 1.7901                 3.1205
 Frc consts  --      0.4020                 0.4518                 1.0556
 IR Inten    --     18.7941                80.9873                15.0781

                     19                     20                     21
                      A                      A                      A
 Frequencies --    785.7399               807.9587               822.5190
 Red. masses --      1.5634                 1.6912                 3.7543
 Frc consts  --      0.5687                 0.6505                 1.4965
 IR Inten    --      9.6337                26.0204                74.0407

                     22                     23                     24
                      A                      A                      A
 Frequencies --    877.5110               921.0919               960.5498
 Red. masses --      1.7954                 2.3551                 1.6677
 Frc consts  --      0.8146                 1.1773                 0.9066
 IR Inten    --     39.8991                 6.8996                24.6182

                     25                     26                     27
                      A                      A                      A
 Frequencies --   1030.3810              1050.8368              1080.2225
 Red. masses --      1.1565                 1.4816                 1.5304
 Frc consts  --      0.7234                 0.9640                 1.0521
 IR Inten    --     10.7547                14.2003                 0.2619

                     28                     29                     30
                      A                      A                      A
 Frequencies --   1098.6797              1113.3082              1143.6791
 Red. masses --      2.9566                 1.8830                 3.1231
 Frc consts  --      2.1027                 1.3751                 2.4068
 IR Inten    --      3.2366                10.1460                47.8359

                     31                     32                     33
                      A                      A                      A
 Frequencies --   1158.2533              1168.6511              1199.1900
 Red. masses --      1.6076                 1.6800                 2.2092
 Frc consts  --      1.2707                 1.3518                 1.8718
 IR Inten    --     11.4193                26.7380                27.1963

                     34                     35                     36
                      A                      A                      A
 Frequencies --   1240.3933              1279.1742              1347.9504
 Red. masses --      1.2509                 1.2932                 1.2419
 Frc consts  --      1.1339                 1.2467                 1.3295
 IR Inten    --      7.3855                27.3705                 1.9087

                     37                     38                     39
                      A                      A                      A
 Frequencies --   1357.2968              1377.5454              1394.2102
 Red. masses --      1.2208                 1.4714                 1.5066
 Frc consts  --      1.3251                 1.6451                 1.7255
 IR Inten    --      9.0977                73.7590                73.8101

                     40                     41                     42
                      A                      A                      A
 Frequencies --   1428.0549              1442.8766              1471.2900
 Red. masses --      1.6218                 1.2638                 1.4982
 Frc consts  --      1.9486                 1.5502                 1.9108
 IR Inten    --     83.0084                 2.4500                49.8263

                     43                     44                     45
                      A                      A                      A
 Frequencies --   1486.0556              1500.3198              1510.5726
 Red. masses --      1.3154                 1.2714                 1.0472
 Frc consts  --      1.7114                 1.6861                 1.4079
 IR Inten    --      9.3934                27.0992                 8.0950

                     46                     47                     48
                      A                      A                      A
 Frequencies --   1511.5193              1522.6702              1528.3695
 Red. masses --      1.1011                 1.0550                 1.0661
 Frc consts  --      1.4822                 1.4412                 1.4672
 IR Inten    --      9.1113                 5.5856                10.7489

                     49                     50                     51
                      A                      A                      A
 Frequencies --   1532.7375              1553.9347              1761.6931
 Red. masses --      1.2337                 1.0557                 5.7311
 Frc consts  --      1.7076                 1.5019                10.4796
 IR Inten    --     55.6934                19.5867                 4.2177

                     52                     53                     54
                      A                      A                      A
 Frequencies --   1798.4155              3031.0139              3035.7544
 Red. masses --      6.0639                 1.0378                 1.0595
 Frc consts  --     11.5554                 5.6177                 5.7530
 IR Inten    --    378.6556                41.8297                24.5624

                     55                     56                     57
                      A                      A                      A
 Frequencies --   3039.1286              3071.2818              3076.3891
 Red. masses --      1.0424                 1.0855                 1.1000
 Frc consts  --      5.6726                 6.0326                 6.1338
 IR Inten    --     43.4161                 9.1312                27.5310

                     58                     59                     60
                      A                      A                      A
 Frequencies --   3085.9473              3101.8299              3115.9811
 Red. masses --      1.0773                 1.0955                 1.0959
 Frc consts  --      6.0446                 6.2101                 6.2690
 IR Inten    --     53.9926                36.5846                 3.1189

                     61                     62                     63
                      A                      A                      A
 Frequencies --   3124.9169              3133.5875              3144.9130
 Red. masses --      1.1054                 1.0936                 1.1033
 Frc consts  --      6.3600                 6.3267                 6.4290
 IR Inten    --     37.6753                35.9294                10.1329

                     64                     65                     66
                      A                      A                      A
 Frequencies --   3151.7333              3566.0520              3621.9236
 Red. masses --      1.0882                 1.0745                 1.0762
 Frc consts  --      6.3691                 8.0507                 8.3177
 IR Inten    --     18.1581                12.9044                31.5093

 - Thermochemistry -
 -------------------
 Temperature   298.150 Kelvin.  Pressure   1.00000 Atm.
 Atom     1 has atomic number  6 and mass  12.00000

 Molecular mass:   142.11061 amu.
 Principal axes and moments of inertia in atomic units:
                           1         2         3
     Eigenvalues --   705.580142853.956553231.96101
           X            0.99973   0.02280   0.00428
           Y           -0.02279   0.99974  -0.00196
           Z           -0.00432   0.00186   0.99999
 This molecule is an asymmetric top.
 Rotational symmetry number  1.
 Warning -- assumption of classical behavior for rotation
           may cause significant error
 Rotational temperatures (Kelvin)      0.12276     0.03035     0.02680
 Rotational constants (GHZ):           2.55781     0.63236     0.55840
 Zero-point vibrational energy     557735.8 (Joules/Mol)
                                  133.30205 (Kcal/Mol)
 Warning -- explicit consideration of  16 degrees of freedom as
           vibrations may cause significant error
 Vibrational temperatures:     43.56    70.87   113.88   171.93   218.33
          (Kelvin)            224.44   261.76   307.62   356.79   420.83
                              445.06   503.09   688.08   727.97   764.13
                              824.97   941.67  1090.22  1130.50  1162.47
                             1183.42  1262.54  1325.25  1382.02  1482.49
                             1511.92  1554.20  1580.76  1601.80  1645.50
                             1666.47  1681.43  1725.37  1784.65  1840.45
                             1939.40  1952.85  1981.98  2005.96  2054.65
                             2075.98  2116.86  2138.10  2158.63  2173.38
                             2174.74  2190.78  2198.98  2205.27  2235.77
                             2534.68  2587.52  4360.95  4367.77  4372.63
                             4418.89  4426.24  4439.99  4462.84  4483.20
                             4496.06  4508.53  4524.83  4534.64  5130.75
                             5211.14

 Zero-point correction=                           0.212430 (Hartree/Particle)
 Thermal correction to Energy=                    0.224319
 Thermal correction to Enthalpy=                  0.225263
 Thermal correction to Gibbs Free Energy=         0.173531
 Sum of electronic and zero-point Energies=           -459.721947
 Sum of electronic and thermal Energies=              -459.710058
 Sum of electronic and thermal Enthalpies=            -459.709114
 Sum of electronic and thermal Free Energies=         -459.760846

                     E (Thermal)             CV                S
                      KCal/Mol        Cal/Mol-Kelvin    Cal/Mol-Kelvin
 Total                  140.762             41.912            108.879
 Electronic               0.000              0.000              0.000
 Translational            0.889              2.981             40.766
 Rotational               0.889              2.981             30.255
 Vibrational            138.985             35.950             37.859
 Vibration     1          0.594              1.984              5.811
 Vibration     2          0.595              1.978              4.847
 Vibration     3          0.600              1.963              3.912
 Vibration     4          0.609              1.933              3.109
 Vibration     5          0.619              1.901              2.650
 Vibration     6          0.620              1.896              2.598
 Vibration     7          0.630              1.864              2.309
 Vibration     8          0.644              1.820              2.011
 Vibration     9          0.662              1.766              1.745
 Vibration    10          0.688              1.688              1.460
 Vibration    11          0.699              1.656              1.366
 Vibration    12          0.727              1.576              1.168
 Vibration    13          0.835              1.298              0.715
 Vibration    14          0.861              1.237              0.643
 Vibration    15          0.886              1.181              0.585
 Vibration    16          0.930              1.089              0.498

                           ! Non-Optimized Parameters !
 Normal termination of Gaussian 16 at Tue Dec  8 13:10:25 2020.

 ----------------------------------------------------------------------
 # B3LYP/6-311++G(d,p) empiricaldispersion=gd3bj scf=xqc pop=npa geom=c
 heck
 ----------------------------------------------------------------------

 --------------------------------------
 CID_115629283_JID_594_Energie_neutraal
 --------------------------------------
 Structure from the checkpoint file:  "JID_594.chk"
 Charge =  0 Multiplicity = 1

 SCF Done:  E(RB3LYP) =  -460.077222547     A.U. after   14 cycles
 Normal termination of Gaussian 16 at Tue Dec  8 13:17:01 2020.

 ----------------------------------------------------------------------
 # B3LYP/6-311++G(d,p) empiricaldispersion=gd3bj scf=xqc pop=npa geom=c
 heck
 ----------------------------------------------------------------------

 ------------------------------------
 CID_115629283_JID_594_Energie_kation
 ------------------------------------
 Structure from the checkpoint file:  "JID_594.chk"
 Charge =  1 Multiplicity = 2

 SCF Done:  E(UB3LYP) =  -459.765230046     A.U. after   33 cycles
 SCF Done:  E(UB3LYP) =  -459.765703234     a.u. after    3 cycles
 Normal termination of Gaussian 16 at Tue Dec  8 13:29:33 2020.
 Gaussian 16:  ES64L-G16RevA.03 25-Dec-2016

 ----------------------------------------------------------------------
 # B3LYP/6-311++G(d,p) empiricaldispersion=gd3bj scf=xqc pop=npa geom=c
 heck
 ----------------------------------------------------------------------

 -----------------------------------
 CID_115629283_JID_594_Energie_anion
 -----------------------------------
 Structure from the checkpoint file:  "JID_594.chk"
 Charge = -1 Multiplicity = 2

                         Standard orientation:
 ---------------------------------------------------------------------
 Center     Atomic      Atomic             Coordinates (Angstroms)
 Number     Number       Type             X           Y           Z
 ---------------------------------------------------------------------
      1          6           0        4.133676    0.598966    0.009844
      2          6           0        3.045631   -0.417067   -0.181475
      3          6           0        1.754240   -0.131581   -0.364722
      4          6           0        0.665642   -1.155250   -0.537047
      5          6           0       -0.282109   -1.226440    0.678257
      6          7           0       -0.844289    0.072738    1.079195
      7          6           0       -1.458936    0.904256    0.136495
      8          8           0       -1.140702    2.081609   -0.002753
      9          7           0       -2.449726    0.322279   -0.624201
     10          6           0       -3.295868   -0.785124   -0.199979
     11          1           0        3.735290    1.618674   -0.011011
     12          1           0        4.898495    0.516210   -0.774129
     13          1           0        4.650600    0.454106    0.968202
     14          1           0        3.356963   -1.463913   -0.173114
     15          1           0        1.435595    0.911545   -0.380085
     16          1           0        0.065462   -0.914102   -1.424954
     17          1           0        1.097290   -2.151350   -0.699265
     18          1           0       -1.091176   -1.933629    0.476546
     19          1           0        0.262705   -1.606012    1.548488
     20          1           0       -0.157549    0.638566    1.566844
     21          1           0       -2.860622    0.995907   -1.255794
     22          1           0       -3.189721   -0.943211    0.876272
     23          1           0       -4.343368   -0.547158   -0.409669
     24          1           0       -3.049898   -1.720189   -0.719508
 ---------------------------------------------------------------------

 SCF Done:  E(UB3LYP) =  -460.063320431     A.U. after   33 cycles
 SCF Done:  E(UB3LYP) =  -460.063320431     a.u. after    1 cycles

 The electronic state is 2-A.
 Alpha  occ. eigenvalues --  -18.98209 -14.22970 -14.22374 -10.18999 -10.10475
 Alpha  occ. eigenvalues --  -10.09611 -10.07371 -10.07317 -10.07133 -10.06815
 Alpha  occ. eigenvalues --   -0.94583  -0.82898  -0.80116  -0.70660  -0.65385
 Alpha  occ. eigenvalues --   -0.60284  -0.58688  -0.52847  -0.49740  -0.45207
 Alpha  occ. eigenvalues --   -0.39920  -0.38883  -0.38318  -0.35660  -0.35282
 Alpha  occ. eigenvalues --   -0.34238  -0.32894  -0.31982  -0.31372  -0.29622
 Alpha  occ. eigenvalues --   -0.28589  -0.28275  -0.27526  -0.25377  -0.23659
 Alpha  occ. eigenvalues --   -0.18136  -0.16232  -0.15123  -0.14386   0.04452
 Alpha virt. eigenvalues --    0.06090   0.07458   0.08313   0.08927   0.09343
 Alpha virt. eigenvalues --    0.09855   0.10264   0.11158   0.11444   0.12084
 Alpha virt. eigenvalues --    0.12555   0.12650   0.13642   0.14131   0.15527

  Beta  occ. eigenvalues --  -18.98206 -14.22955 -14.22367 -10.19000 -10.10448
  Beta  occ. eigenvalues --  -10.09542 -10.07350 -10.07289 -10.07117 -10.06816
  Beta  occ. eigenvalues --   -0.94574  -0.82879  -0.80087  -0.70626  -0.65340
  Beta  occ. eigenvalues --   -0.60188  -0.58634  -0.52799  -0.49698  -0.45153
  Beta  occ. eigenvalues --   -0.39875  -0.38840  -0.38241  -0.35618  -0.35248
  Beta  occ. eigenvalues --   -0.34197  -0.32851  -0.31939  -0.31345  -0.29568
  Beta  occ. eigenvalues --   -0.28547  -0.28238  -0.27491  -0.25348  -0.23620
  Beta  occ. eigenvalues --   -0.18123  -0.16199  -0.15091  -0.14357
  Beta virt. eigenvalues --    0.06614   0.07457   0.08367   0.08770   0.09568
  Beta virt. eigenvalues --    0.09918   0.10140   0.10615   0.11473   0.11841
  Beta virt. eigenvalues --    0.12659   0.12782   0.13169   0.13765   0.14388

 Mulliken charges and spin densities:
               1          2
     1  C    1.082782  -1.831979
     2  C    0.111400  -0.233325
     3  C   -0.585439   0.793462
     4  C   -0.524212   0.270201
     5  C    0.963154  -1.346794
     6  N   -0.246906   0.074327
     7  C   -0.065988   0.010303
     8  O   -0.388671   0.020050
     9  N   -0.494250   0.300990
    10  C    1.715974  -2.116004
    11  H    0.068630   0.068954
    12  H   -0.054256   0.185070
    13  H   -0.247934   0.393435
    14  H   -0.357195   0.493469
    15  H    0.014695   0.159806
    16  H    0.082055   0.086223
    17  H   -0.405996   0.581555
    18  H    0.042121   0.104823
    19  H   -0.383646   0.565052
    20  H    0.269628   0.017101
    21  H    0.077309   0.222974
    22  H   -0.252600   0.423939
    23  H   -0.773809   0.936830
    24  H   -0.646845   0.819539
 Sum of Mulliken charges =  -1.00000   1.00000

 Dipole moment (field-independent basis, Debye):
    X=              3.6043    Y=              2.8798    Z=              0.2429  Tot=              4.6199
 Quadrupole moment (field-independent basis, Debye-Ang):
   XX=           -145.8951   YY=           -106.8944   ZZ=            -89.1798
   XY=             -3.2372   XZ=             -5.7204   YZ=             -0.9681

 Summary of Natural Population Analysis:

                                       Natural Population
                Natural  -----------------------------------------------
    Atom  No    Charge         Core      Valence    Rydberg      Total
 -----------------------------------------------------------------------
      C    1   -0.30068      0.99965     2.29461    0.00641     3.30068
      C    2   -0.08617      0.99952     2.07770    0.00895     3.08617
      C    3   -0.10140      0.99950     2.09103    0.01087     3.10140
      C    4   -0.21415      0.99961     2.20510    0.00945     3.21415
      C    5   -0.08511      0.99961     2.07393    0.01158     3.08511
      N    6   -0.34133      0.99969     2.83155    0.01009     3.84133
      C    7    0.40544      0.99970     1.57033    0.02454     2.59456
      O    8   -0.34082      0.99988     3.33579    0.00516     4.34082
      N    9   -0.33007      0.99968     2.81954    0.01085     3.83007
      C   10   -0.18216      0.99964     2.17387    0.00865     3.18216
      H   11    0.09973      0.00000     0.39936    0.00091     0.40027
      H   12    0.09993      0.00000     0.39910    0.00098     0.40007
      H   13    0.10256      0.00000     0.39609    0.00135     0.39744
      H   14    0.08994      0.00000     0.40853    0.00153     0.41006
      H   15    0.09789      0.00000     0.40072    0.00140     0.40211
      H   16    0.10389      0.00000     0.39461    0.00150     0.39611
      H   17    0.10367      0.00000     0.39472    0.00161     0.39633
      H   18    0.09950      0.00000     0.39847    0.00203     0.40050
      H   19    0.09685      0.00000     0.40172    0.00143     0.40315
      H   20    0.19035      0.00000     0.30743    0.00222     0.30965
      H   21    0.19479      0.00000     0.30315    0.00207     0.30521
      H   22    0.10149      0.00000     0.39663    0.00189     0.39851
      H   23    0.10138      0.00000     0.39498    0.00364     0.39862
      H   24    0.09449      0.00000     0.40275    0.00276     0.40551
 =======================================================================
   * Total *    0.00000      9.99648    28.87169    0.13183    39.00000

 Normal termination of Gaussian 16 at Tue Dec  8 13:36:30 2020.
