 Gaussian 16, Revision A.03,

 -----------------------------------------------------------
 # opt freq B3LYP/6-31G(d) empiricaldispersion=gd3bj scf=xqc
 -----------------------------------------------------------

 -------------------------------
 CID_153852750_JID_7262_neutraal
 -------------------------------
 Symbolic Z-matrix:
 Charge =  0 Multiplicity = 1

 SCF Done:  E(RB3LYP) =  -800.962863594     A.U. after   33 cycles
 SCF Done:  E(RB3LYP) =  -800.962866272     a.u. after    2 cycles
 SCF Done:  E(RB3LYP) =  -800.981922565     A.U. after   23 cycles
 SCF Done:  E(RB3LYP) =  -800.981602583     A.U. after   24 cycles
 SCF Done:  E(RB3LYP) =  -800.990097598     A.U. after   21 cycles
 SCF Done:  E(RB3LYP) =  -800.991893904     A.U. after   22 cycles
 SCF Done:  E(RB3LYP) =  -800.979087765     A.U. after   22 cycles
 SCF Done:  E(RB3LYP) =  -800.995559750     A.U. after   21 cycles
 SCF Done:  E(RB3LYP) =  -800.998028543     A.U. after   21 cycles
 SCF Done:  E(RB3LYP) =  -801.000808629     A.U. after   22 cycles
 SCF Done:  E(RB3LYP) =  -801.075881453     A.U. after    9 cycles
 SCF Done:  E(RB3LYP) =  -801.075886846     A.U. after    9 cycles
 SCF Done:  E(RB3LYP) =  -801.075888327     A.U. after    9 cycles
 SCF Done:  E(RB3LYP) =  -801.075888758     A.U. after    8 cycles
 SCF Done:  E(RB3LYP) =  -801.075888793     A.U. after    7 cycles
 Optimization completed.
    -- Stationary point found.

 1\1\GINC-NODE205\FOpt\RB3LYP\6-31G(d)\C13H8O4\VSC10255\11-Dec-2020\0\\
 # opt freq B3LYP/6-31G(d) empiricaldispersion=gd3bj scf=xqc\\CID_15385
 2750_JID_7262_neutraal\\0,1\C,-0.9481154824,1.4740029315,-0.830666902\
 C,0.1933662598,0.6294106392,-0.2949232079\C,1.3202919035,1.2329773456,
 0.2636817849\C,2.3690843557,0.4587320322,0.7641086199\C,2.2955353432,-
 0.9319798303,0.711702341\C,1.1728949044,-1.550711474,0.158067733\C,0.1
 323307741,-0.7753925629,-0.345789339\C,-1.1150862713,-1.3840279728,-0.
 9172873968\C,-2.3689803155,-1.0050882435,-0.1651642199\C,-2.8522045363

 Normal termination of Gaussian 16 at Fri Dec 11 12:35:23 2020.

 --------------------------------------------------------------------
 #N Geom=AllCheck Guess=TCheck SCRF=Check GenChk RB3LYP/6-31G(d) Freq
 --------------------------------------------------------------------

 Structure from the checkpoint file:  "JID_7262.chk"
 -------------------------------
 CID_153852750_JID_7262_neutraal
 -------------------------------
 Charge =  0 Multiplicity = 1

 SCF Done:  E(RB3LYP) =  -801.075888793     A.U. after    1 cycles

  Exact polarizability: 174.985   7.718 151.055  -6.331   5.352  80.817
 Approx polarizability: 280.201  31.044 238.709  -9.098  17.541 143.778

                      1                      2                      3
                      A                      A                      A
 Frequencies --     48.3276                77.2824               105.2780
 Red. masses --      6.8489                 7.2019                 8.0772
 Frc consts  --      0.0094                 0.0253                 0.0527
 IR Inten    --      1.5325                 1.1665                 2.3589

                      4                      5                      6
                      A                      A                      A
 Frequencies --    122.6939               142.0387               205.4966
 Red. masses --      8.9436                 4.6802                 7.4392
 Frc consts  --      0.0793                 0.0556                 0.1851
 IR Inten    --      6.9283                 0.5614                 0.5157

                      7                      8                      9
                      A                      A                      A
 Frequencies --    219.9174               269.1165               287.6155
 Red. masses --      7.1587                 9.9290                 5.8095
 Frc consts  --      0.2040                 0.4237                 0.2831
 IR Inten    --      0.6001                 1.4917                 2.0719

                     10                     11                     12
                      A                      A                      A
 Frequencies --    325.2300               350.6156               387.4725
 Red. masses --      4.2933                 5.0764                 5.3110
 Frc consts  --      0.2676                 0.3677                 0.4698
 IR Inten    --      1.2689                 0.8915                 3.7471

                     13                     14                     15
                      A                      A                      A
 Frequencies --    411.9945               453.3656               469.0842
 Red. masses --      3.5962                 3.9704                 3.7935
 Frc consts  --      0.3597                 0.4808                 0.4918
 IR Inten    --      5.0516                 8.2459                 5.4215

                     16                     17                     18
                      A                      A                      A
 Frequencies --    501.4415               556.2550               587.4493
 Red. masses --      4.0131                 5.9768                 6.2901
 Frc consts  --      0.5945                 1.0896                 1.2789
 IR Inten    --      1.2113                 1.3061                51.4971

                     19                     20                     21
                      A                      A                      A
 Frequencies --    624.1737               649.3936               685.9980
 Red. masses --      6.0453                 6.4592                 6.4749
 Frc consts  --      1.3876                 1.6049                 1.7953
 IR Inten    --     13.8312                 4.8452                 8.6424

                     22                     23                     24
                      A                      A                      A
 Frequencies --    703.6343               722.9945               737.8597
 Red. masses --      8.4171                 8.5123                 5.8788
 Frc consts  --      2.4553                 2.6216                 1.8858
 IR Inten    --     41.9619                 9.2110                 6.7429

                     25                     26                     27
                      A                      A                      A
 Frequencies --    763.8337               781.6905               838.1304
 Red. masses --      1.3750                 4.4298                 4.3348
 Frc consts  --      0.4727                 1.5948                 1.7941
 IR Inten    --     48.4440                 2.5955                11.0814

                     28                     29                     30
                      A                      A                      A
 Frequencies --    855.0510               873.0263               880.9116
 Red. masses --      3.3045                 2.5487                 4.9098
 Frc consts  --      1.4234                 1.1445                 2.2448
 IR Inten    --      2.9819                 3.8585                35.7875

                     31                     32                     33
                      A                      A                      A
 Frequencies --    908.0836               923.8359               939.3639
 Red. masses --      1.9547                 1.6457                 2.5905
 Frc consts  --      0.9497                 0.8276                 1.3468
 IR Inten    --      0.3364                 9.3128                38.9406

                     34                     35                     36
                      A                      A                      A
 Frequencies --    960.9453               966.5049               995.6770
 Red. masses --      1.4567                 4.1248                 1.2779
 Frc consts  --      0.7925                 2.2702                 0.7464
 IR Inten    --      0.5222                54.8772                 0.1171

                     37                     38                     39
                      A                      A                      A
 Frequencies --   1041.4064              1073.9552              1094.0388
 Red. masses --      3.2590                 2.2259                 4.1943
 Frc consts  --      2.0824                 1.5126                 2.9579
 IR Inten    --     34.3727                 2.5333               116.3485

                     40                     41                     42
                      A                      A                      A
 Frequencies --   1130.0503              1148.7513              1165.0588
 Red. masses --      2.3217                 7.6754                 2.4140
 Frc consts  --      1.7468                 5.9677                 1.9305
 IR Inten    --     39.0446                68.1011                31.2136

                     43                     44                     45
                      A                      A                      A
 Frequencies --   1198.7603              1210.1491              1230.8012
 Red. masses --      1.1058                 2.0944                 2.6678
 Frc consts  --      0.9363                 1.8071                 2.3811
 IR Inten    --      0.2420                 1.5890                43.6180

                     46                     47                     48
                      A                      A                      A
 Frequencies --   1252.5029              1264.5745              1282.5763
 Red. masses --      1.6636                 1.8728                 2.0423
 Frc consts  --      1.5377                 1.7646                 1.9794
 IR Inten    --     26.7522                 2.5753                 2.8639

                     49                     50                     51
                      A                      A                      A
 Frequencies --   1328.6207              1341.1878              1364.4000
 Red. masses --      1.4487                 1.7797                 2.7877
 Frc consts  --      1.5067                 1.8861                 3.0576
 IR Inten    --      5.0515                21.7864                15.2877

                     52                     53                     54
                      A                      A                      A
 Frequencies --   1375.3603              1406.0791              1497.1164
 Red. masses --      2.1967                 1.6749                 1.0959
 Frc consts  --      2.4482                 1.9510                 1.4472
 IR Inten    --     12.4991                 3.4082                11.8925

                     55                     56                     57
                      A                      A                      A
 Frequencies --   1505.1397              1537.0627              1641.8233
 Red. masses --      2.3596                 2.6163                 6.0570
 Frc consts  --      3.1495                 3.6418                 9.6197
 IR Inten    --      9.4086                 9.5202                 0.6341

                     58                     59                     60
                      A                      A                      A
 Frequencies --   1669.3635              1779.3768              1936.0165
 Red. masses --      6.1054                 9.6748                12.9818
 Frc consts  --     10.0246                18.0479                28.6683
 IR Inten    --      0.3530                13.3621               565.5150

                     61                     62                     63
                      A                      A                      A
 Frequencies --   2007.0788              3037.8452              3064.4551
 Red. masses --     12.8896                 1.0699                 1.0847
 Frc consts  --     30.5928                 5.8173                 6.0014
 IR Inten    --    682.1149                11.3217                18.2318

                     64                     65                     66
                      A                      A                      A
 Frequencies --   3118.3233              3188.7036              3199.7040
 Red. masses --      1.0934                 1.0871                 1.0894
 Frc consts  --      6.2644                 6.5127                 6.5713
 IR Inten    --      5.4326                 2.3296                 9.6536

                     67                     68                     69
                      A                      A                      A
 Frequencies --   3205.4755              3212.9873              3223.8175
 Red. masses --      1.0917                 1.0940                 1.0952
 Frc consts  --      6.6090                 6.6539                 6.7064
 IR Inten    --      0.2723                17.1982                 8.1376

 - Thermochemistry -
 -------------------
 Temperature   298.150 Kelvin.  Pressure   1.00000 Atm.
 Atom     1 has atomic number  6 and mass  12.00000

 Molecular mass:   228.04226 amu.
 Principal axes and moments of inertia in atomic units:
                           1         2         3
     Eigenvalues --  3056.438703883.915856357.22479
           X            0.99783  -0.06549  -0.00610
           Y            0.06551   0.99784   0.00386
           Z            0.00584  -0.00425   0.99997
 This molecule is an asymmetric top.
 Rotational symmetry number  1.
 Warning -- assumption of classical behavior for rotation
           may cause significant error
 Rotational temperatures (Kelvin)      0.02834     0.02230     0.01362
 Rotational constants (GHZ):           0.59047     0.46467     0.28389
 Zero-point vibrational energy     478891.1 (Joules/Mol)
                                  114.45773 (Kcal/Mol)
 Warning -- explicit consideration of  18 degrees of freedom as
           vibrations may cause significant error
 Vibrational temperatures:     69.53   111.19   151.47   176.53   204.36
          (Kelvin)            295.66   316.41   387.20   413.81   467.93
                              504.46   557.49   592.77   652.29   674.91
                              721.46   800.33   845.21   898.05   934.33
                              987.00  1012.37  1040.23  1061.62  1098.99
                             1124.68  1205.88  1230.23  1256.09  1267.44
                             1306.53  1329.19  1351.54  1382.59  1390.58
                             1432.56  1498.35  1545.18  1574.08  1625.89
                             1652.80  1676.26  1724.75  1741.13  1770.85
                             1802.07  1819.44  1845.34  1911.59  1929.67
                             1963.07  1978.84  2023.03  2154.02  2165.56
                             2211.49  2362.22  2401.84  2560.13  2785.50
                             2887.74  4370.78  4409.07  4486.57  4587.83
                             4603.66  4611.96  4622.77  4638.35

 Zero-point correction=                           0.182400 (Hartree/Particle)
 Thermal correction to Energy=                    0.195062
 Thermal correction to Enthalpy=                  0.196006
 Thermal correction to Gibbs Free Energy=         0.142752
 Sum of electronic and zero-point Energies=           -800.893489
 Sum of electronic and thermal Energies=              -800.880827
 Sum of electronic and thermal Enthalpies=            -800.879882
 Sum of electronic and thermal Free Energies=         -800.933136

                     E (Thermal)             CV                S
                      KCal/Mol        Cal/Mol-Kelvin    Cal/Mol-Kelvin
 Total                  122.403             50.065            112.082
 Electronic               0.000              0.000              0.000
 Translational            0.889              2.981             42.175
 Rotational               0.889              2.981             32.690
 Vibrational            120.626             44.103             37.218
 Vibration     1          0.595              1.978              4.885
 Vibration     2          0.599              1.964              3.959
 Vibration     3          0.605              1.945              3.354
 Vibration     4          0.610              1.930              3.057
 Vibration     5          0.616              1.911              2.776
 Vibration     6          0.640              1.832              2.083
 Vibration     7          0.647              1.811              1.960
 Vibration     8          0.674              1.730              1.602
 Vibration     9          0.685              1.697              1.488
 Vibration    10          0.709              1.625              1.284
 Vibration    11          0.728              1.574              1.163
 Vibration    12          0.756              1.497              1.010
 Vibration    13          0.776              1.444              0.920
 Vibration    14          0.812              1.353              0.786
 Vibration    15          0.826              1.319              0.740
 Vibration    16          0.857              1.247              0.655
 Vibration    17          0.912              1.126              0.531
 Vibration    18          0.945              1.059              0.472

 Optimization completed.
    -- Stationary point found.

 1\1\GINC-NODE205\Freq\RB3LYP\6-31G(d)\C13H8O4\VSC10255\11-Dec-2020\0\\
 #N Geom=AllCheck Guess=TCheck SCRF=Check GenChk RB3LYP/6-31G(d) Freq\\
 CID_153852750_JID_7262_neutraal\\0,1\C,-0.9481154824,1.4740029315,-0.8
 30666902\C,0.1933662598,0.6294106392,-0.2949232079\C,1.3202919035,1.23
 29773456,0.2636817849\C,2.3690843557,0.4587320322,0.7641086199\C,2.295
 5353432,-0.9319798303,0.711702341\C,1.1728949044,-1.550711474,0.158067
 733\C,0.1323307741,-0.7753925629,-0.345789339\C,-1.1150862713,-1.38402
 79728,-0.9172873968\C,-2.3689803155,-1.0050882435,-0.1651642199\C,-2.8

 Normal termination of Gaussian 16 at Fri Dec 11 12:45:02 2020.

 ----------------------------------------------------------------------
 # B3LYP/6-311++G(d,p) empiricaldispersion=gd3bj scf=xqc pop=npa geom=c
 heck
 ----------------------------------------------------------------------

 ---------------------------------------
 CID_153852750_JID_7262_Energie_neutraal
 ---------------------------------------
 Structure from the checkpoint file:  "JID_7262.chk"
 Charge =  0 Multiplicity = 1

 SCF Done:  E(RB3LYP) =  -801.293825875     A.U. after   16 cycles
 Normal termination of Gaussian 16 at Fri Dec 11 12:49:26 2020.

 ----------------------------------------------------------------------
 # B3LYP/6-311++G(d,p) empiricaldispersion=gd3bj scf=xqc pop=npa geom=c
 heck
 ----------------------------------------------------------------------

 -------------------------------------
 CID_153852750_JID_7262_Energie_kation
 -------------------------------------
 Structure from the checkpoint file:  "JID_7262.chk"
 Charge =  1 Multiplicity = 2

 SCF Done:  E(UB3LYP) =  -800.952468252     A.U. after   33 cycles
 SCF Done:  E(UB3LYP) =  -800.952468253     a.u. after    3 cycles
 Normal termination of Gaussian 16 at Fri Dec 11 13:29:19 2020.
 Gaussian 16:  ES64L-G16RevA.03 25-Dec-2016

 ------------------------------------
 CID_153852750_JID_7262_Energie_anion
 ------------------------------------
 Structure from the checkpoint file:  "JID_7262.chk"
 Charge = -1 Multiplicity = 2

                         Standard orientation:
 ---------------------------------------------------------------------
 Center     Atomic      Atomic             Coordinates (Angstroms)
 Number     Number       Type             X           Y           Z
 ---------------------------------------------------------------------
      1          6           0       -1.014332   -1.001781    0.980178
      2          6           0        0.365854   -1.349735    0.453534
      3          6           0        0.639649   -2.631229   -0.025115
      4          6           0        1.906352   -2.952611   -0.517076
      5          6           0        2.911970   -1.987942   -0.536586
      6          6           0        2.652412   -0.700136   -0.063458
      7          6           0        1.390301   -0.385451    0.432337
      8          6           0        1.041777    0.991286    0.918364
      9          6           0       -0.070770    1.643602    0.132071
     10          6           0       -1.257044    1.232638   -0.312024
     11          6           0       -1.824056   -0.065564    0.095916
     12          6           0       -3.252133   -0.331320   -0.106874
     13          8           0       -4.395193   -0.284687    0.233765
     14          8           0       -2.521133   -0.797228   -1.112802
     15          6           0        0.906914    2.721584   -0.202528
     16          8           0        1.939015    2.073167    0.473529
     17          8           0        0.949256    3.752307   -0.802698
     18          1           0       -0.945450   -0.518392    1.965177
     19          1           0       -1.595252   -1.915566    1.129746
     20          1           0       -0.146870   -3.381066   -0.019097
     21          1           0        2.102289   -3.953960   -0.888557
     22          1           0        3.896711   -2.232409   -0.923375
     23          1           0        3.418207    0.067993   -0.087609
     24          1           0        0.940085    1.046808    2.008682
     25          1           0       -1.826646    1.838080   -1.011755
 ---------------------------------------------------------------------

 SCF Done:  E(UB3LYP) =  -801.335648649     A.U. after   22 cycles

 The electronic state is 2-A.
 Alpha  occ. eigenvalues --  -19.03230 -19.01374 -19.00672 -18.95880 -10.17865
 Alpha  occ. eigenvalues --  -10.13468 -10.12514 -10.11468 -10.08708 -10.08583
 Alpha  occ. eigenvalues --  -10.08114 -10.08080 -10.08042 -10.07973 -10.07432
 Alpha  occ. eigenvalues --  -10.02933 -10.02726  -0.99368  -0.95651  -0.92480
 Alpha  occ. eigenvalues --   -0.88618  -0.76928  -0.70538  -0.66737  -0.65340
 Alpha  occ. eigenvalues --   -0.62494  -0.56578  -0.55038  -0.50765  -0.49393
 Alpha  occ. eigenvalues --   -0.47733  -0.42498  -0.41621  -0.39587  -0.38583
 Alpha  occ. eigenvalues --   -0.36820  -0.36359  -0.35328  -0.34334  -0.33598
 Alpha  occ. eigenvalues --   -0.32917  -0.32515  -0.31535  -0.29653  -0.28686
 Alpha  occ. eigenvalues --   -0.27587  -0.27158  -0.25958  -0.25024  -0.24160
 Alpha  occ. eigenvalues --   -0.23635  -0.21644  -0.19813  -0.17618  -0.16729
 Alpha  occ. eigenvalues --   -0.15812  -0.14580  -0.13605  -0.12730   0.02144
 Alpha virt. eigenvalues --    0.07044   0.07882   0.08127   0.08877   0.09402
 Alpha virt. eigenvalues --    0.10706   0.11401   0.11842   0.12574   0.13642
 Alpha virt. eigenvalues --    0.13925   0.14172   0.14565   0.15271   0.16263

  Beta  occ. eigenvalues --  -19.02909 -19.01239 -19.00638 -18.95595 -10.17773
  Beta  occ. eigenvalues --  -10.13283 -10.12464 -10.11494 -10.08706 -10.08579
  Beta  occ. eigenvalues --  -10.08114 -10.08055 -10.08032 -10.07971 -10.07426
  Beta  occ. eigenvalues --  -10.02620 -10.02300  -0.98886  -0.95268  -0.92226
  Beta  occ. eigenvalues --   -0.88169  -0.76891  -0.70289  -0.66650  -0.64804
  Beta  occ. eigenvalues --   -0.62234  -0.56265  -0.54603  -0.50517  -0.48871
  Beta  occ. eigenvalues --   -0.47610  -0.42222  -0.41507  -0.39403  -0.38309
  Beta  occ. eigenvalues --   -0.36634  -0.36057  -0.35100  -0.34179  -0.33380
  Beta  occ. eigenvalues --   -0.32763  -0.32243  -0.31220  -0.29513  -0.28286
  Beta  occ. eigenvalues --   -0.27214  -0.26686  -0.25581  -0.24685  -0.23599
  Beta  occ. eigenvalues --   -0.23361  -0.21407  -0.19473  -0.16581  -0.15908
  Beta  occ. eigenvalues --   -0.15706  -0.14377  -0.13060  -0.10883
  Beta virt. eigenvalues --    0.07027   0.07841   0.07992   0.08717   0.09266
  Beta virt. eigenvalues --    0.09553   0.10711   0.11416   0.11837   0.12862
  Beta virt. eigenvalues --    0.13653   0.13916   0.14151   0.14705   0.15354

 Mulliken charges and spin densities:
               1          2
     1  C   -0.305419  -0.022353
     2  C    0.587948   0.021392
     3  C   -0.205863  -0.002335
     4  C   -0.535078   0.004133
     5  C   -0.429967  -0.007766
     6  C   -0.194412   0.002549
     7  C    0.628944   0.001678
     8  C   -0.420146   0.001880
     9  C   -0.106326   0.162526
    10  C   -0.180384   0.398267
    11  C   -0.225540   0.134532
    12  C    0.141754  -0.019295
    13  O   -0.312072   0.002885
    14  O   -0.056029   0.049458
    15  C   -0.139598   0.114858
    16  O   -0.153070   0.038127
    17  O   -0.413500   0.099951
    18  H    0.162021   0.005695
    19  H    0.188878   0.004031
    20  H    0.128994   0.005125
    21  H    0.135367  -0.000937
    22  H    0.136771   0.000569
    23  H    0.205917   0.000472
    24  H    0.199119   0.022722
    25  H    0.161691  -0.018163
 Sum of Mulliken charges =  -1.00000   1.00000

 Dipole moment (field-independent basis, Debye):
    X=              3.4953    Y=             -7.0443    Z=              2.6586  Tot=              8.3010
 Quadrupole moment (field-independent basis, Debye-Ang):
   XX=           -141.0043   YY=           -133.6067   ZZ=           -105.3292
   XY=            -11.1956   XZ=             -2.6146   YZ=              3.8566

 Summary of Natural Population Analysis:

                                       Natural Population
                Natural  -----------------------------------------------
    Atom  No    Charge         Core      Valence    Rydberg      Total
 -----------------------------------------------------------------------
      C    1   -0.20778      0.99956     2.20091    0.00731     3.20778
      C    2   -0.00873      0.99946     1.99840    0.01086     3.00873
      C    3   -0.09762      0.99952     2.08978    0.00831     3.09762
      C    4   -0.10685      0.99957     2.09838    0.00889     3.10685
      C    5   -0.10460      0.99958     2.09627    0.00875     3.10460
      C    6   -0.09641      0.99952     2.08848    0.00842     3.09641
      C    7   -0.01251      0.99945     2.00209    0.01097     3.01251
      C    8    0.04679      0.99950     1.93998    0.01373     2.95321
      C    9   -0.01461      0.99944     2.00364    0.01153     3.01461
      C   10   -0.02251      0.99944     2.01454    0.00854     3.02251
      C   11    0.08323      0.99952     1.90170    0.01555     2.91677
      C   12    0.40286      0.99953     1.56786    0.02975     2.59714
      O   13   -0.29692      0.99986     3.29096    0.00609     4.29692
      O   14   -0.24084      0.99991     3.23164    0.00929     4.24084
      C   15    0.41898      0.99966     1.55355    0.02781     2.58102
      O   16   -0.28217      0.99989     3.27443    0.00784     4.28217
      O   17   -0.27351      0.99986     3.26760    0.00605     4.27351
      H   18    0.11280      0.00000     0.38608    0.00112     0.38720
      H   19    0.10633      0.00000     0.39254    0.00113     0.39367
      H   20    0.09812      0.00000     0.40059    0.00129     0.40188
      H   21    0.09541      0.00000     0.40365    0.00095     0.40459
      H   22    0.09566      0.00000     0.40343    0.00091     0.40434
      H   23    0.10976      0.00000     0.38922    0.00102     0.39024
      H   24    0.09265      0.00000     0.40573    0.00161     0.40735
      H   25    0.10246      0.00000     0.39649    0.00104     0.39754
 =======================================================================
   * Total *    0.00000     16.99327    41.79797    0.20876    59.00000

 Normal termination of Gaussian 16 at Fri Dec 11 13:37:06 2020.
