 Gaussian 16, Revision A.03,

 -----------------------------------------------------------
 # opt freq B3LYP/6-31G(d) empiricaldispersion=gd3bj scf=xqc
 -----------------------------------------------------------

 ------------------------------
 CID_139314368_JID_593_neutraal
 ------------------------------
 Symbolic Z-matrix:
 Charge =  0 Multiplicity = 1

 SCF Done:  E(RB3LYP) =  -802.752913171     A.U. after   14 cycles
 SCF Done:  E(RB3LYP) =  -802.758683876     A.U. after   12 cycles
 SCF Done:  E(RB3LYP) =  -802.758983798     A.U. after   12 cycles
 SCF Done:  E(RB3LYP) =  -802.759497104     A.U. after   12 cycles
 SCF Done:  E(RB3LYP) =  -802.760001588     A.U. after   12 cycles
 SCF Done:  E(RB3LYP) =  -802.760051905     A.U. after   10 cycles
 SCF Done:  E(RB3LYP) =  -802.760067257     A.U. after    9 cycles
 SCF Done:  E(RB3LYP) =  -802.760073203     A.U. after    9 cycles
 SCF Done:  E(RB3LYP) =  -802.760075788     A.U. after    9 cycles
 SCF Done:  E(RB3LYP) =  -802.760076348     A.U. after    8 cycles
 SCF Done:  E(RB3LYP) =  -802.760076520     A.U. after    7 cycles
 Optimization completed.
    -- Stationary point found.
 Normal termination of Gaussian 16 at Tue Dec  8 12:23:01 2020.

 --------------------------------------------------------------------
 #N Geom=AllCheck Guess=TCheck SCRF=Check GenChk RB3LYP/6-31G(d) Freq
 --------------------------------------------------------------------

 Structure from the checkpoint file:  "JID_593.chk"
 ------------------------------
 CID_139314368_JID_593_neutraal
 ------------------------------
 Charge =  0 Multiplicity = 1

 SCF Done:  E(RB3LYP) =  -802.760076520     A.U. after    1 cycles

  Exact polarizability: 113.440  -3.617 102.649   2.123   2.573  74.761
 Approx polarizability: 158.986   0.418 153.517   5.938   8.148 109.719

                      1                      2                      3
                      A                      A                      A
 Frequencies --     52.6531                74.1821               114.4150
 Red. masses --      2.8390                 6.0069                 2.5343
 Frc consts  --      0.0046                 0.0195                 0.0195
 IR Inten    --      0.1431                 0.9334                 0.0322

                      4                      5                      6
                      A                      A                      A
 Frequencies --    154.3045               175.2578               213.4102
 Red. masses --      3.0480                 4.2906                 3.0544
 Frc consts  --      0.0428                 0.0776                 0.0820
 IR Inten    --      0.1467                 0.4888                 3.0355

                      7                      8                      9
                      A                      A                      A
 Frequencies --    231.2337               250.5463               280.9884
 Red. masses --      1.1412                 1.1438                 3.6224
 Frc consts  --      0.0360                 0.0423                 0.1685
 IR Inten    --      0.0737                 0.0923                 4.0237

                     10                     11                     12
                      A                      A                      A
 Frequencies --    326.8032               362.4322               373.7394
 Red. masses --      3.1929                 1.1301                 2.4854
 Frc consts  --      0.2009                 0.0875                 0.2045
 IR Inten    --      2.4535                22.9195                 4.6821

                     13                     14                     15
                      A                      A                      A
 Frequencies --    433.0384               456.0471               497.2964
 Red. masses --      6.2737                 3.8525                 3.1686
 Frc consts  --      0.6932                 0.4721                 0.4617
 IR Inten    --      2.3445                 5.3745                11.8504

                     16                     17                     18
                      A                      A                      A
 Frequencies --    517.0118               634.3543               675.1179
 Red. masses --      2.8747                 3.0478                 9.2258
 Frc consts  --      0.4527                 0.7226                 2.4775
 IR Inten    --     14.0575                 4.9006                17.0581

                     19                     20                     21
                      A                      A                      A
 Frequencies --    792.8849               815.7257               850.8678
 Red. masses --      1.1144                 2.2135                 1.5308
 Frc consts  --      0.4128                 0.8678                 0.6530
 IR Inten    --      0.9001                39.3212                44.6779

                     22                     23                     24
                      A                      A                      A
 Frequencies --    887.8614               919.1226               946.4053
 Red. masses --      2.8621                 1.7739                 1.1612
 Frc consts  --      1.3293                 0.8829                 0.6128
 IR Inten    --     21.4135                18.1624                 1.9366

                     25                     26                     27
                      A                      A                      A
 Frequencies --    958.9410               962.9060               985.7735
 Red. masses --      1.9797                 1.6740                 2.0818
 Frc consts  --      1.0726                 0.9145                 1.1919
 IR Inten    --      2.5824                 0.3180                14.5756

                     28                     29                     30
                      A                      A                      A
 Frequencies --   1073.5401              1082.7250              1095.0758
 Red. masses --      1.2912                 1.8483                 1.3412
 Frc consts  --      0.8767                 1.2766                 0.9476
 IR Inten    --     12.7172                 7.6258                 0.1357

                     31                     32                     33
                      A                      A                      A
 Frequencies --   1140.5325              1157.1952              1165.3201
 Red. masses --      1.1673                 1.8082                 2.1669
 Frc consts  --      0.8946                 1.4266                 1.7337
 IR Inten    --      2.8031                14.7513                 3.4940

                     34                     35                     36
                      A                      A                      A
 Frequencies --   1207.9947              1211.4677              1230.8977
 Red. masses --      1.7408                 1.5148                 2.3238
 Frc consts  --      1.4967                 1.3099                 2.0744
 IR Inten    --      0.1868                 0.8121                 6.1037

                     37                     38                     39
                      A                      A                      A
 Frequencies --   1276.7754              1319.8529              1378.8015
 Red. masses --      3.1818                 2.6651                 1.3217
 Frc consts  --      3.0560                 2.7353                 1.4804
 IR Inten    --    235.5167               198.4205                 4.0500

                     40                     41                     42
                      A                      A                      A
 Frequencies --   1414.1673              1423.6084              1437.6137
 Red. masses --      1.5502                 1.2782                 1.2840
 Frc consts  --      1.8266                 1.5263                 1.5635
 IR Inten    --     51.1518                14.5871                25.3804

                     43                     44                     45
                      A                      A                      A
 Frequencies --   1453.5184              1487.8274              1509.4811
 Red. masses --      1.4286                 1.0898                 1.0425
 Frc consts  --      1.7783                 1.4214                 1.3996
 IR Inten    --     15.1869                 1.4675                 0.2383

                     46                     47                     48
                      A                      A                      A
 Frequencies --   1524.2181              1527.4936              1533.4208
 Red. masses --      1.0504                 1.3357                 1.0579
 Frc consts  --      1.4378                 1.8362                 1.4655
 IR Inten    --     15.9984                 7.3344                 0.9330

                     49                     50                     51
                      A                      A                      A
 Frequencies --   1550.7974              1781.7318              2710.7477
 Red. masses --      1.0577                10.4691                 1.0380
 Frc consts  --      1.4987                19.5815                 4.4941
 IR Inten    --      5.7696               293.1330                 7.5577

                     52                     53                     54
                      A                      A                      A
 Frequencies --   3056.3015              3060.2906              3094.7188
 Red. masses --      1.0379                 1.0393                 1.0843
 Frc consts  --      5.7120                 5.7347                 6.1186
 IR Inten    --     29.1858                16.6330                13.7511

                     55                     56                     57
                      A                      A                      A
 Frequencies --   3117.6363              3121.3711              3129.2213
 Red. masses --      1.1027                 1.1023                 1.0874
 Frc consts  --      6.3150                 6.3274                 6.2735
 IR Inten    --     13.3732                52.3782                19.7877

                     58                     59                     60
                      A                      A                      A
 Frequencies --   3157.7323              3163.0707              3168.8657
 Red. masses --      1.0539                 1.0999                 1.0575
 Frc consts  --      6.1913                 6.4834                 6.2564
 IR Inten    --      9.4144                 5.1196                 4.4116

                     61                     62                     63
                      A                      A                      A
 Frequencies --   3170.1773              3237.5850              3256.6904
 Red. masses --      1.0988                 1.1196                 1.1170
 Frc consts  --      6.5062                 6.9144                 6.9801
 IR Inten    --     13.9318                 4.5341                 8.9613

 - Thermochemistry -
 -------------------
 Temperature   298.150 Kelvin.  Pressure   1.00000 Atm.
 Atom     1 has atomic number  6 and mass  12.00000

 Molecular mass:   159.07179 amu.
 Principal axes and moments of inertia in atomic units:
                           1         2         3
     Eigenvalues --  1363.413781707.882012588.11497
           X            0.99833   0.05761  -0.00309
           Y           -0.05763   0.99831  -0.00719
           Z            0.00267   0.00735   0.99997
 This molecule is an asymmetric top.
 Rotational symmetry number  1.
 Warning -- assumption of classical behavior for rotation
           may cause significant error
 Rotational temperatures (Kelvin)      0.06353     0.05071     0.03347
 Rotational constants (GHZ):           1.32369     1.05671     0.69732
 Zero-point vibrational energy     510636.7 (Joules/Mol)
                                  122.04509 (Kcal/Mol)
 Warning -- explicit consideration of  16 degrees of freedom as
           vibrations may cause significant error
 Vibrational temperatures:     75.76   106.73   164.62   222.01   252.16
          (Kelvin)            307.05   332.69   360.48   404.28   470.20
                              521.46   537.73   623.05   656.15   715.50
                              743.86   912.69   971.34  1140.78  1173.65
                             1224.21  1277.43  1322.41  1361.67  1379.70
                             1385.41  1418.31  1544.58  1557.80  1575.57
                             1640.97  1664.95  1676.64  1738.03  1743.03
                             1770.99  1837.00  1898.97  1983.79  2034.67
                             2048.26  2068.41  2091.29  2140.65  2171.81
                             2193.01  2197.72  2206.25  2231.25  2563.51
                             3900.16  4397.34  4403.08  4452.61  4485.58
                             4490.96  4502.25  4543.27  4550.95  4559.29
                             4561.18  4658.16  4685.65

 Zero-point correction=                           0.194491 (Hartree/Particle)
 Thermal correction to Energy=                    0.205946
 Thermal correction to Enthalpy=                  0.206890
 Thermal correction to Gibbs Free Energy=         0.157280
 Sum of electronic and zero-point Energies=           -802.565585
 Sum of electronic and thermal Energies=              -802.554131
 Sum of electronic and thermal Enthalpies=            -802.553187
 Sum of electronic and thermal Free Energies=         -802.602796

                     E (Thermal)             CV                S
                      KCal/Mol        Cal/Mol-Kelvin    Cal/Mol-Kelvin
 Total                  129.233             42.386            104.412
 Electronic               0.000              0.000              0.000
 Translational            0.889              2.981             41.102
 Rotational               0.889              2.981             30.178
 Vibrational            127.455             36.424             33.132
 Vibration     1          0.596              1.977              4.715
 Vibration     2          0.599              1.966              4.039
 Vibration     3          0.607              1.937              3.193
 Vibration     4          0.620              1.898              2.618
 Vibration     5          0.627              1.873              2.378
 Vibration     6          0.644              1.821              2.014
 Vibration     7          0.653              1.793              1.869
 Vibration     8          0.663              1.762              1.727
 Vibration     9          0.681              1.709              1.528
 Vibration    10          0.710              1.622              1.276
 Vibration    11          0.736              1.550              1.112
 Vibration    12          0.745              1.526              1.064
 Vibration    13          0.794              1.398              0.849
 Vibration    14          0.814              1.348              0.778
 Vibration    15          0.853              1.256              0.665
 Vibration    16          0.872              1.212              0.617

 Optimization completed.
    -- Stationary point found.
 Normal termination of Gaussian 16 at Tue Dec  8 12:28:10 2020.

 ----------------------------------------------------------------------
 # B3LYP/6-311++G(d,p) empiricaldispersion=gd3bj scf=xqc pop=npa geom=c
 heck
 ----------------------------------------------------------------------

 --------------------------------------
 CID_139314368_JID_593_Energie_neutraal
 --------------------------------------
 Structure from the checkpoint file:  "JID_593.chk"
 Charge =  0 Multiplicity = 1

 SCF Done:  E(RB3LYP) =  -802.906095191     A.U. after   14 cycles
 Normal termination of Gaussian 16 at Tue Dec  8 12:32:32 2020.

 ----------------------------------------------------------------------
 # B3LYP/6-311++G(d,p) empiricaldispersion=gd3bj scf=xqc pop=npa geom=c
 heck
 ----------------------------------------------------------------------

 ------------------------------------
 CID_139314368_JID_593_Energie_kation
 ------------------------------------
 Structure from the checkpoint file:  "JID_593.chk"
 Charge =  1 Multiplicity = 2

 SCF Done:  E(UB3LYP) =  -802.580726669     A.U. after   26 cycles
 Normal termination of Gaussian 16 at Tue Dec  8 12:50:13 2020.
 Gaussian 16:  ES64L-G16RevA.03 25-Dec-2016

 ----------------------------------------------------------------------
 # B3LYP/6-311++G(d,p) empiricaldispersion=gd3bj scf=xqc pop=npa geom=c
 heck
 ----------------------------------------------------------------------

 -----------------------------------
 CID_139314368_JID_593_Energie_anion
 -----------------------------------
 Structure from the checkpoint file:  "JID_593.chk"
 Charge = -1 Multiplicity = 2

                         Standard orientation:
 ---------------------------------------------------------------------
 Center     Atomic      Atomic             Coordinates (Angstroms)
 Number     Number       Type             X           Y           Z
 ---------------------------------------------------------------------
      1          6           0       -2.349516    0.132706   -1.226193
      2          6           0       -1.683579    0.384965    0.129219
      3          6           0       -2.328346   -0.413195    1.267072
      4          7           0       -0.210540    0.172609    0.064614
      5          6           0        0.649785    1.221004    0.549050
      6          6           0        1.730930    1.777705   -0.350774
      7          6           0        0.508833    2.597694   -0.050091
      8          6           0        0.260001   -1.094680   -0.135285
      9          8           0       -0.420591   -2.058518   -0.432908
     10         16           0        2.074297   -1.272916    0.097612
     11          1           0       -2.274563   -0.919688   -1.504629
     12          1           0       -1.874023    0.735585   -2.007427
     13          1           0       -3.408302    0.410077   -1.174197
     14          1           0       -1.784237    1.447810    0.363419
     15          1           0       -2.253016   -1.486143    1.080118
     16          1           0       -1.842484   -0.187627    2.222797
     17          1           0       -3.387498   -0.146108    1.352193
     18          1           0        0.876596    1.175356    1.614303
     19          1           0        2.678315    2.041099    0.108828
     20          1           0        1.812238    1.347583   -1.342889
     21          1           0       -0.213780    2.722854   -0.850739
     22          1           0        0.590825    3.446770    0.621568
     23          1           0        2.001045   -2.598221   -0.132158
 ---------------------------------------------------------------------

 SCF Done:  E(UB3LYP) =  -802.890214317     A.U. after   28 cycles

 The electronic state is 2-A.
 Alpha  occ. eigenvalues --  -88.75878 -19.00376 -14.25084 -10.20073 -10.11560
 Alpha  occ. eigenvalues --  -10.11059 -10.07752 -10.07416 -10.05359 -10.05296
 Alpha  occ. eigenvalues --   -7.84597  -5.80955  -5.80570  -5.80034  -0.95758
 Alpha  occ. eigenvalues --   -0.85443  -0.75214  -0.68804  -0.64787  -0.58548
 Alpha  occ. eigenvalues --   -0.54547  -0.51819  -0.49981  -0.43551  -0.41762
 Alpha  occ. eigenvalues --   -0.39559  -0.36536  -0.34432  -0.33458  -0.33176
 Alpha  occ. eigenvalues --   -0.32124  -0.30524  -0.28779  -0.27708  -0.27138
 Alpha  occ. eigenvalues --   -0.27027  -0.24907  -0.24518  -0.21942  -0.20329
 Alpha  occ. eigenvalues --   -0.16692  -0.16488  -0.15223   0.04885
 Alpha virt. eigenvalues --    0.07398   0.07857   0.08034   0.09474   0.09960
 Alpha virt. eigenvalues --    0.10060   0.10183   0.10862   0.11269   0.12348
 Alpha virt. eigenvalues --    0.13139   0.13375   0.13492   0.14801   0.15406

  Beta  occ. eigenvalues --  -88.75876 -19.00365 -14.25088 -10.20060 -10.11541
  Beta  occ. eigenvalues --  -10.11047 -10.07733 -10.07367 -10.05329 -10.05265
  Beta  occ. eigenvalues --   -7.84593  -5.80952  -5.80568  -5.80030  -0.95736
  Beta  occ. eigenvalues --   -0.85429  -0.75179  -0.68774  -0.64765  -0.58488
  Beta  occ. eigenvalues --   -0.54512  -0.51748  -0.49894  -0.43502  -0.41735
  Beta  occ. eigenvalues --   -0.39457  -0.36507  -0.34377  -0.33427  -0.33131
  Beta  occ. eigenvalues --   -0.32088  -0.30489  -0.28760  -0.27669  -0.27102
  Beta  occ. eigenvalues --   -0.26978  -0.24867  -0.24481  -0.21900  -0.20288
  Beta  occ. eigenvalues --   -0.16666  -0.16475  -0.15206
  Beta virt. eigenvalues --    0.07353   0.08082   0.08548   0.08865   0.09859
  Beta virt. eigenvalues --    0.10324   0.10521   0.10767   0.11189   0.11778
  Beta virt. eigenvalues --    0.12728   0.13616   0.13836   0.13896   0.15001

 Mulliken charges and spin densities:
               1          2
     1  C    0.733737  -1.167447
     2  C   -1.596334   1.484173
     3  C    1.631525  -2.180140
     4  N    0.647185  -0.135146
     5  C   -2.197188   1.887920
     6  C    1.352664  -1.655554
     7  C    1.868287  -2.237426
     8  C   -0.123808  -0.058196
     9  O   -0.255169  -0.011292
    10  S   -0.030365  -0.014874
    11  H    0.028448   0.141678
    12  H   -0.018290   0.157417
    13  H   -0.272585   0.423950
    14  H   -0.721206   0.907783
    15  H    0.128549   0.039169
    16  H   -0.346677   0.495416
    17  H   -0.301466   0.451553
    18  H   -0.514881   0.737172
    19  H   -0.031715   0.182446
    20  H   -0.040648   0.194345
    21  H   -0.068397   0.206718
    22  H   -0.873345   1.064170
    23  H    0.001679   0.086167
 Sum of Mulliken charges =  -1.00000   1.00000

 Dipole moment (field-independent basis, Debye):
    X=              3.1814    Y=             -6.2495    Z=             -2.8359  Tot=              7.5644
 Quadrupole moment (field-independent basis, Debye-Ang):
   XX=           -117.8815   YY=           -123.6319   ZZ=           -104.9251
   XY=             -2.5834   XZ=              0.3743   YZ=             -7.8814

 Summary of Natural Population Analysis:

                                       Natural Population
                Natural  -----------------------------------------------
    Atom  No    Charge         Core      Valence    Rydberg      Total
 -----------------------------------------------------------------------
      C    1   -0.29038      0.99964     2.28422    0.00652     3.29038
      C    2   -0.00407      0.99959     1.99056    0.01392     3.00407
      C    3   -0.29222      0.99964     2.28628    0.00631     3.29222
      N    4   -0.26981      0.99960     2.75488    0.01533     3.76981
      C    5   -0.02469      0.99955     2.01134    0.01379     3.02469
      C    6   -0.19631      0.99961     2.18658    0.01012     3.19631
      C    7   -0.19432      0.99961     2.18375    0.01096     3.19432
      C    8    0.29636      0.99965     1.67666    0.02733     2.70364
      O    9   -0.32084      0.99987     3.31386    0.00712     4.32084
      S   10   -0.03552      4.99961     3.02259    0.01331     8.03552
      H   11    0.10853      0.00000     0.39043    0.00104     0.39147
      H   12    0.09996      0.00000     0.39886    0.00117     0.40004
      H   13    0.10162      0.00000     0.39735    0.00103     0.39838
      H   14    0.10371      0.00000     0.39277    0.00352     0.39629
      H   15    0.10654      0.00000     0.39235    0.00111     0.39346
      H   16    0.10179      0.00000     0.39686    0.00134     0.39821
      H   17    0.10273      0.00000     0.39611    0.00115     0.39727
      H   18    0.10595      0.00000     0.39168    0.00237     0.39405
      H   19    0.10754      0.00000     0.39125    0.00120     0.39246
      H   20    0.10736      0.00000     0.39134    0.00130     0.39264
      H   21    0.10733      0.00000     0.39089    0.00178     0.39267
      H   22    0.11274      0.00000     0.38188    0.00538     0.38726
      H   23    0.06598      0.00000     0.43090    0.00312     0.43402
 =======================================================================
   * Total *    0.00000     13.99636    28.85341    0.15023    43.00000

 Normal termination of Gaussian 16 at Tue Dec  8 13:04:43 2020.
