 Gaussian 16, Revision A.03,

 -----------------------------------------------------------
 # opt freq B3LYP/6-31G(d) empiricaldispersion=gd3bj scf=xqc
 -----------------------------------------------------------

 ------------------------------
 CID_66189794_JID_7383_neutraal
 ------------------------------
 Symbolic Z-matrix:
 Charge =  0 Multiplicity = 1

 SCF Done:  E(RB3LYP) =  -775.865862839     A.U. after   17 cycles
 SCF Done:  E(RB3LYP) =  -775.893257575     A.U. after   15 cycles
 SCF Done:  E(RB3LYP) =  -775.907819546     A.U. after   14 cycles
 SCF Done:  E(RB3LYP) =  -775.913776135     A.U. after   15 cycles
 SCF Done:  E(RB3LYP) =  -775.916851009     A.U. after   14 cycles
 SCF Done:  E(RB3LYP) =  -775.917490377     A.U. after   14 cycles
 SCF Done:  E(RB3LYP) =  -775.919199008     A.U. after   13 cycles
 SCF Done:  E(RB3LYP) =  -775.919993288     A.U. after   13 cycles
 SCF Done:  E(RB3LYP) =  -775.921144046     A.U. after   14 cycles
 SCF Done:  E(RB3LYP) =  -775.921858699     A.U. after   13 cycles
 SCF Done:  E(RB3LYP) =  -775.926503010     A.U. after    9 cycles
 SCF Done:  E(RB3LYP) =  -775.926503072     A.U. after    8 cycles
 SCF Done:  E(RB3LYP) =  -775.926503114     A.U. after    8 cycles
 SCF Done:  E(RB3LYP) =  -775.926503136     A.U. after    8 cycles
 SCF Done:  E(RB3LYP) =  -775.926503145     A.U. after    7 cycles
 Optimization completed.
    -- Stationary point found.
 Normal termination of Gaussian 16 at Fri Dec 11 12:24:04 2020.

 --------------------------------------------------------------------
 #N Geom=AllCheck Guess=TCheck SCRF=Check GenChk RB3LYP/6-31G(d) Freq
 --------------------------------------------------------------------

 Structure from the checkpoint file:  "JID_7383.chk"
 ------------------------------
 CID_66189794_JID_7383_neutraal
 ------------------------------
 Charge =  0 Multiplicity = 1

 SCF Done:  E(RB3LYP) =  -775.926503145     A.U. after    1 cycles

  Exact polarizability: 176.861 -13.419 165.377 -14.487  -6.333  86.004
 Approx polarizability: 254.996 -52.492 285.172 -30.519  -6.332 141.561

                      1                      2                      3
                      A                      A                      A
 Frequencies --     19.5857                32.6947                39.6293
 Red. masses --      8.2391                 5.9154                 9.1631
 Frc consts  --      0.0019                 0.0037                 0.0085
 IR Inten    --      0.4041                 0.5296                 1.0044

                      4                      5                      6
                      A                      A                      A
 Frequencies --     76.9809                80.4591                98.1015
 Red. masses --      5.2036                 5.1383                 3.3238
 Frc consts  --      0.0182                 0.0196                 0.0188
 IR Inten    --      1.4252                 1.2195                 7.7251

                      7                      8                      9
                      A                      A                      A
 Frequencies --    132.2320               141.9324               152.2803
 Red. masses --      4.4813                 9.6447                 3.9985
 Frc consts  --      0.0462                 0.1145                 0.0546
 IR Inten    --      1.4579                 8.7537                 1.2174

                     10                     11                     12
                      A                      A                      A
 Frequencies --    179.7143               186.0344               243.0033
 Red. masses --      2.4267                 1.4327                 3.4032
 Frc consts  --      0.0462                 0.0292                 0.1184
 IR Inten    --      0.2187                 0.2349                 7.9900

                     13                     14                     15
                      A                      A                      A
 Frequencies --    257.9787               273.3363               289.3466
 Red. masses --      4.2390                 3.8830                 5.1751
 Frc consts  --      0.1662                 0.1709                 0.2553
 IR Inten    --      3.3586                 9.3831                 6.3539

                     16                     17                     18
                      A                      A                      A
 Frequencies --    344.0183               372.7180               422.3569
 Red. masses --      2.8203                 3.4030                 5.4867
 Frc consts  --      0.1967                 0.2785                 0.5767
 IR Inten    --      0.6424                 0.9690                 8.1881

                     19                     20                     21
                      A                      A                      A
 Frequencies --    482.4191               506.0010               528.3506
 Red. masses --      4.2420                 3.7577                 4.6309
 Frc consts  --      0.5817                 0.5669                 0.7617
 IR Inten    --      2.5468                 6.4706                 3.5011

                     22                     23                     24
                      A                      A                      A
 Frequencies --    552.3200               569.1739               593.1598
 Red. masses --      4.6042                11.9204                 3.8293
 Frc consts  --      0.8275                 2.2753                 0.7938
 IR Inten    --      1.2582                12.7837                 4.3960

                     25                     26                     27
                      A                      A                      A
 Frequencies --    605.7079               637.5064               653.6394
 Red. masses --      3.9999                 7.2386                 5.7114
 Frc consts  --      0.8646                 1.7333                 1.4377
 IR Inten    --      5.9398                 4.1638                 2.4370

                     28                     29                     30
                      A                      A                      A
 Frequencies --    742.0442               770.4437               784.0414
 Red. masses --      2.2362                 1.6631                 1.9127
 Frc consts  --      0.7255                 0.5816                 0.6928
 IR Inten    --    101.0777                42.7724                27.0478

                     31                     32                     33
                      A                      A                      A
 Frequencies --    814.2353               827.2804               858.6693
 Red. masses --      3.9434                 2.3815                 3.0248
 Frc consts  --      1.5404                 0.9603                 1.3140
 IR Inten    --     15.1916                 1.2425                 3.6732

                     34                     35                     36
                      A                      A                      A
 Frequencies --    886.2379               900.6436               952.4753
 Red. masses --      1.5713                 2.6930                 1.4897
 Frc consts  --      0.7271                 1.2870                 0.7962
 IR Inten    --      0.3734                 4.3940                 6.7932

                     37                     38                     39
                      A                      A                      A
 Frequencies --    961.4094               985.0533              1007.3363
 Red. masses --      3.8225                 1.2608                 3.5994
 Frc consts  --      2.0817                 0.7208                 2.1520
 IR Inten    --     47.0324                 0.1037                16.3339

                     40                     41                     42
                      A                      A                      A
 Frequencies --   1048.0287              1057.6303              1074.4995
 Red. masses --      7.3691                 2.1317                 2.0662
 Frc consts  --      4.7688                 1.4049                 1.4055
 IR Inten    --     69.0537                29.1871                 7.6483

                     43                     44                     45
                      A                      A                      A
 Frequencies --   1129.2372              1146.2670              1154.0444
 Red. masses --      2.1348                 2.6179                 3.1676
 Frc consts  --      1.6039                 2.0266                 2.4856
 IR Inten    --     23.3296                 0.8024                56.5066

                     46                     47                     48
                      A                      A                      A
 Frequencies --   1186.8290              1191.2102              1206.1187
 Red. masses --      1.2712                 1.1613                 1.5016
 Frc consts  --      1.0550                 0.9709                 1.2870
 IR Inten    --      0.9092                 3.6283                 7.0908

                     49                     50                     51
                      A                      A                      A
 Frequencies --   1222.3664              1250.9676              1278.9550
 Red. masses --      1.4242                 1.2035                 1.3822
 Frc consts  --      1.2537                 1.1097                 1.3321
 IR Inten    --      2.8495                10.6353                 1.2766

                     52                     53                     54
                      A                      A                      A
 Frequencies --   1284.5461              1304.8256              1316.1532
 Red. masses --      2.9527                 1.9134                 1.5879
 Frc consts  --      2.8706                 1.9194                 1.6206
 IR Inten    --    126.5425                17.6494                 5.9888

                     55                     56                     57
                      A                      A                      A
 Frequencies --   1351.4750              1364.5106              1379.1382
 Red. masses --      7.8360                 3.3964                 1.2998
 Frc consts  --      8.4326                 3.7258                 1.4566
 IR Inten    --    118.6532                 0.7729                 3.8062

                     58                     59                     60
                      A                      A                      A
 Frequencies --   1397.7902              1419.3231              1486.5812
 Red. masses --      1.2516                 1.2377                 1.3397
 Frc consts  --      1.4407                 1.4691                 1.7444
 IR Inten    --     51.8219                15.7515                22.0799

                     61                     62                     63
                      A                      A                      A
 Frequencies --   1499.8928              1506.1512              1516.8751
 Red. masses --      1.0918                 1.8529                 1.0798
 Frc consts  --      1.4472                 2.4765                 1.4638
 IR Inten    --      7.1896                 3.3792                 5.0213

                     64                     65                     66
                      A                      A                      A
 Frequencies --   1519.9354              1526.8964              1539.0485
 Red. masses --      1.1639                 1.1378                 1.0602
 Frc consts  --      1.5842                 1.5630                 1.4796
 IR Inten    --      7.4306                36.2478                 3.5412

                     67                     68                     69
                      A                      A                      A
 Frequencies --   1544.9680              1643.7945              1663.1538
 Red. masses --      2.3464                 6.3194                 5.9552
 Frc consts  --      3.2998                10.0605                 9.7053
 IR Inten    --     63.1528                10.2803                12.4761

                     70                     71                     72
                      A                      A                      A
 Frequencies --   2276.2090              2347.2454              3038.0152
 Red. masses --     13.5326                12.6541                 1.0633
 Frc consts  --     41.3102                41.0770                 5.7820
 IR Inten    --    448.5673                 5.2636                31.5212

                     73                     74                     75
                      A                      A                      A
 Frequencies --   3038.1176              3060.9999              3081.1966
 Red. masses --      1.0366                 1.0601                 1.0826
 Frc consts  --      5.6375                 5.8520                 6.0554
 IR Inten    --     58.7889                42.3311                 2.0071

                     76                     77                     78
                      A                      A                      A
 Frequencies --   3099.2727              3112.6321              3119.1811
 Red. masses --      1.1041                 1.1026                 1.1003
 Frc consts  --      6.2485                 6.2938                 6.3074
 IR Inten    --      5.9930                25.1641                29.2856

                     79                     80                     81
                      A                      A                      A
 Frequencies --   3155.0387              3190.7836              3198.5387
 Red. masses --      1.1049                 1.0856                 1.0895
 Frc consts  --      6.4800                 6.5122                 6.5672
 IR Inten    --     26.7180                 0.6074                 6.8403

                     82                     83                     84
                      A                      A                      A
 Frequencies --   3209.0991              3217.5611              3510.6574
 Red. masses --      1.0928                 1.0975                 1.0741
 Frc consts  --      6.6304                 6.6945                 7.7994
 IR Inten    --     15.7980                16.3629                 4.7784

 - Thermochemistry -
 -------------------
 Temperature   298.150 Kelvin.  Pressure   1.00000 Atm.
 Atom     1 has atomic number  6 and mass  12.00000

 Molecular mass:   231.11201 amu.
 Principal axes and moments of inertia in atomic units:
                           1         2         3
     Eigenvalues --  2118.156736417.817577777.13842
           X            0.99989   0.01169  -0.00868
           Y           -0.01174   0.99991  -0.00620
           Z            0.00861   0.00630   0.99994
 This molecule is an asymmetric top.
 Rotational symmetry number  1.
 Warning -- assumption of classical behavior for rotation
           may cause significant error
 Rotational temperatures (Kelvin)      0.04089     0.01350     0.01114
 Rotational constants (GHZ):           0.85203     0.28121     0.23206
 Zero-point vibrational energy     627000.6 (Joules/Mol)
                                  149.85674 (Kcal/Mol)
 Warning -- explicit consideration of  25 degrees of freedom as
           vibrations may cause significant error
 Vibrational temperatures:     28.18    47.04    57.02   110.76   115.76
          (Kelvin)            141.15   190.25   204.21   219.10   258.57
                              267.66   349.63   371.17   393.27   416.31
                              494.97   536.26   607.68   694.09   728.02
                              760.18   794.67   818.91   853.42   871.48
                              917.23   940.44  1067.64  1108.50  1128.06
                             1171.50  1190.27  1235.43  1275.10  1295.83
                             1370.40  1383.25  1417.27  1449.33  1507.88
                             1521.69  1545.97  1624.72  1649.22  1660.41
                             1707.58  1713.89  1735.34  1758.71  1799.86
                             1840.13  1848.18  1877.35  1893.65  1944.47
                             1963.23  1984.27  2011.11  2042.09  2138.86
                             2158.01  2167.02  2182.45  2186.85  2196.86
                             2214.35  2222.86  2365.05  2392.91  3274.96
                             3377.16  4371.03  4371.17  4404.10  4433.15
                             4459.16  4478.38  4487.81  4539.40  4590.83
                             4601.98  4617.18  4629.35  5051.05

 Zero-point correction=                           0.238812 (Hartree/Particle)
 Thermal correction to Energy=                    0.255293
 Thermal correction to Enthalpy=                  0.256237
 Thermal correction to Gibbs Free Energy=         0.192445
 Sum of electronic and zero-point Energies=           -775.687691
 Sum of electronic and thermal Energies=              -775.671211
 Sum of electronic and thermal Enthalpies=            -775.670266
 Sum of electronic and thermal Free Energies=         -775.734058

                     E (Thermal)             CV                S
                      KCal/Mol        Cal/Mol-Kelvin    Cal/Mol-Kelvin
 Total                  160.199             59.665            134.261
 Electronic               0.000              0.000              0.000
 Translational            0.889              2.981             42.215
 Rotational               0.889              2.981             33.025
 Vibrational            158.421             53.703             59.022
 Vibration     1          0.593              1.986              6.676
 Vibration     2          0.594              1.983              5.659
 Vibration     3          0.594              1.981              5.278
 Vibration     4          0.599              1.965              3.966
 Vibration     5          0.600              1.962              3.880
 Vibration     6          0.604              1.951              3.492
 Vibration     7          0.612              1.921              2.913
 Vibration     8          0.615              1.911              2.778
 Vibration     9          0.619              1.900              2.644
 Vibration    10          0.629              1.867              2.331
 Vibration    11          0.632              1.859              2.267
 Vibration    12          0.659              1.774              1.781
 Vibration    13          0.667              1.749              1.675
 Vibration    14          0.676              1.723              1.575
 Vibration    15          0.686              1.694              1.478
 Vibration    16          0.723              1.587              1.193
 Vibration    17          0.744              1.528              1.069
 Vibration    18          0.785              1.422              0.884
 Vibration    19          0.839              1.289              0.704
 Vibration    20          0.861              1.237              0.643
 Vibration    21          0.883              1.187              0.591
 Vibration    22          0.908              1.135              0.539
 Vibration    23          0.925              1.098              0.506
 Vibration    24          0.951              1.046              0.462
 Vibration    25          0.964              1.020              0.440

 Optimization completed.
    -- Stationary point found.
 Normal termination of Gaussian 16 at Fri Dec 11 12:35:50 2020.

 ----------------------------------------------------------------------
 # B3LYP/6-311++G(d,p) empiricaldispersion=gd3bj scf=xqc pop=npa geom=c
 heck
 ----------------------------------------------------------------------

 --------------------------------------
 CID_66189794_JID_7383_Energie_neutraal
 --------------------------------------
 Structure from the checkpoint file:  "JID_7383.chk"
 Charge =  0 Multiplicity = 1

 SCF Done:  E(RB3LYP) =  -776.140225791     A.U. after   17 cycles
 Normal termination of Gaussian 16 at Fri Dec 11 12:42:13 2020.

 ----------------------------------------------------------------------
 # B3LYP/6-311++G(d,p) empiricaldispersion=gd3bj scf=xqc pop=npa geom=c
 heck
 ----------------------------------------------------------------------

 ------------------------------------
 CID_66189794_JID_7383_Energie_kation
 ------------------------------------
 Structure from the checkpoint file:  "JID_7383.chk"
 Charge =  1 Multiplicity = 2

 SCF Done:  E(UB3LYP) =  -775.828311414     A.U. after   32 cycles
 Normal termination of Gaussian 16 at Fri Dec 11 12:58:39 2020.
 Gaussian 16:  ES64L-G16RevA.03 25-Dec-2016

 ----------------------------------------------------------------------
 # B3LYP/6-311++G(d,p) empiricaldispersion=gd3bj scf=xqc pop=npa geom=c
 heck
 ----------------------------------------------------------------------

 -----------------------------------
 CID_66189794_JID_7383_Energie_anion
 -----------------------------------
 Structure from the checkpoint file:  "JID_7383.chk"
 Charge = -1 Multiplicity = 2

                         Standard orientation:
 ---------------------------------------------------------------------
 Center     Atomic      Atomic             Coordinates (Angstroms)
 Number     Number       Type             X           Y           Z
 ---------------------------------------------------------------------
      1          6           0        2.408652   -2.598506   -0.327779
      2          8           0        2.376898   -1.605117    0.702536
      3          6           0        2.462204   -0.309797    0.243728
      4          6           0        3.686148    0.217449   -0.166383
      5          6           0        3.765313    1.545156   -0.587116
      6          6           0        2.624368    2.347312   -0.589178
      7          6           0        1.403123    1.818832   -0.169185
      8          6           0        1.308224    0.488688    0.244001
      9          6           0       -0.006294   -0.156299    0.652613
     10          6           0       -0.953736    0.864440    1.168038
     11          7           0       -1.732464    1.650190    1.522066
     12          7           0       -0.537527   -0.947317   -0.460207
     13          6           0       -1.610871   -1.889525   -0.160130
     14          6           0       -2.977644   -1.285084    0.191303
     15          7           0       -3.347261   -0.363796   -0.906362
     16          7           0       -4.078186    0.582568   -0.592508
     17          7           0       -4.747188    1.491907   -0.431222
     18          1           0        2.338298   -3.564159    0.177665
     19          1           0        3.348807   -2.552958   -0.891923
     20          1           0        1.559516   -2.464394   -1.005932
     21          1           0        4.567653   -0.415634   -0.136388
     22          1           0        4.720933    1.953668   -0.902875
     23          1           0        2.683145    3.383145   -0.908724
     24          1           0        0.516793    2.446709   -0.152947
     25          1           0        0.200029   -0.858886    1.467235
     26          1           0       -0.821439   -0.330108   -1.218852
     27          1           0       -1.730787   -2.523586   -1.045658
     28          1           0       -1.284322   -2.537847    0.661602
     29          1           0       -3.721805   -2.089732    0.266302
     30          1           0       -2.950549   -0.756131    1.148358
 ---------------------------------------------------------------------

 SCF Done:  E(UB3LYP) =  -776.133534430     A.U. after   33 cycles
 SCF Done:  E(UB3LYP) =  -776.133534898     a.u. after    2 cycles

 The electronic state is 2-A.
 Alpha  occ. eigenvalues --  -19.05192 -14.35767 -14.25995 -14.24706 -14.22592
 Alpha  occ. eigenvalues --  -14.22520 -10.16148 -10.14369 -10.12230 -10.12120
 Alpha  occ. eigenvalues --  -10.11448 -10.11017 -10.10401 -10.09522 -10.09364
 Alpha  occ. eigenvalues --  -10.08990 -10.08943  -1.02409  -0.96830  -0.86919
 Alpha  occ. eigenvalues --   -0.84566  -0.81515  -0.77429  -0.70635  -0.66711
 Alpha  occ. eigenvalues --   -0.66395  -0.62271  -0.59702  -0.54597  -0.53303
 Alpha  occ. eigenvalues --   -0.50839  -0.45813  -0.44705  -0.43954  -0.41708
 Alpha  occ. eigenvalues --   -0.40259  -0.40139  -0.39347  -0.37864  -0.37298
 Alpha  occ. eigenvalues --   -0.36200  -0.35438  -0.34570  -0.34024  -0.33842
 Alpha  occ. eigenvalues --   -0.32187  -0.29839  -0.29472  -0.28772  -0.28426
 Alpha  occ. eigenvalues --   -0.28075  -0.27539  -0.25655  -0.24835  -0.24153
 Alpha  occ. eigenvalues --   -0.19979  -0.19475  -0.17532  -0.16428  -0.15267
 Alpha  occ. eigenvalues --   -0.14691   0.03982
 Alpha virt. eigenvalues --    0.05473   0.06168   0.06330   0.06843   0.07280
 Alpha virt. eigenvalues --    0.07986   0.08390   0.09185   0.09863   0.10243
 Alpha virt. eigenvalues --    0.10588   0.10811   0.11229   0.11486   0.12138

  Beta  occ. eigenvalues --  -19.05195 -14.35578 -14.25728 -14.24754 -14.22587
  Beta  occ. eigenvalues --  -14.22511 -10.16146 -10.14326 -10.12227 -10.12071
  Beta  occ. eigenvalues --  -10.11378 -10.10988 -10.10383 -10.09526 -10.09338
  Beta  occ. eigenvalues --  -10.08981 -10.08904  -1.02034  -0.96806  -0.86751
  Beta  occ. eigenvalues --   -0.84525  -0.81500  -0.77378  -0.70575  -0.66647
  Beta  occ. eigenvalues --   -0.66296  -0.62206  -0.59634  -0.54468  -0.53275
  Beta  occ. eigenvalues --   -0.50759  -0.45768  -0.44666  -0.43884  -0.41578
  Beta  occ. eigenvalues --   -0.40136  -0.39543  -0.39297  -0.37682  -0.37240
  Beta  occ. eigenvalues --   -0.36117  -0.35389  -0.34368  -0.33772  -0.33624
  Beta  occ. eigenvalues --   -0.32035  -0.29699  -0.29413  -0.28698  -0.28393
  Beta  occ. eigenvalues --   -0.28009  -0.27496  -0.25605  -0.24812  -0.24122
  Beta  occ. eigenvalues --   -0.19549  -0.19444  -0.17431  -0.16337  -0.15161
  Beta  occ. eigenvalues --   -0.14625
  Beta virt. eigenvalues --    0.06138   0.06315   0.06707   0.07089   0.07520
  Beta virt. eigenvalues --    0.08261   0.08410   0.08943   0.09699   0.10111
  Beta virt. eigenvalues --    0.10557   0.10757   0.10952   0.11479   0.11651

 Mulliken charges and spin densities:
               1          2
     1  C    0.711321  -1.005284
     2  O   -0.133312   0.032177
     3  C   -0.244172   0.129093
     4  C    0.334645  -0.581504
     5  C    0.706823  -0.939820
     6  C   -0.431482  -0.015677
     7  C   -1.441053   0.327311
     8  C    1.541168   0.232164
     9  C   -0.527629   0.266296
    10  C   -0.655854  -0.106986
    11  N   -0.197296   0.002547
    12  N    0.279734  -0.023304
    13  C    0.575446  -0.630346
    14  C   -0.026294  -0.569916
    15  N   -0.478128   0.027087
    16  N    0.486588   0.105460
    17  N   -0.195044   0.119562
    18  H   -0.258707   0.412920
    19  H   -0.308710   0.442583
    20  H    0.025615   0.145365
    21  H   -0.341548   0.525925
    22  H   -0.304203   0.463523
    23  H    0.058647   0.104378
    24  H    0.126803   0.034006
    25  H    0.135631   0.115238
    26  H    0.168993   0.035499
    27  H   -0.283049   0.488892
    28  H   -0.038560   0.203080
    29  H   -0.514890   0.719223
    30  H    0.228518  -0.059490
 Sum of Mulliken charges =  -1.00000   1.00000

 Dipole moment (field-independent basis, Debye):
    X=              1.4002    Y=              2.2866    Z=              0.5771  Tot=              2.7426
 Quadrupole moment (field-independent basis, Debye-Ang):
   XX=           -190.6436   YY=           -151.1633   ZZ=           -125.4846
   XY=              8.6213   XZ=              0.6153   YZ=             -5.1097

 Summary of Natural Population Analysis:

                                       Natural Population
                Natural  -----------------------------------------------
    Atom  No    Charge         Core      Valence    Rydberg      Total
 -----------------------------------------------------------------------
      C    1   -0.09678      0.99959     2.08852    0.00867     3.09678
      O    2   -0.29502      0.99986     3.28519    0.00997     4.29502
      C    3    0.17116      0.99931     1.81574    0.01379     2.82884
      C    4   -0.11808      0.99951     2.10900    0.00957     3.11808
      C    5   -0.09293      0.99957     2.08348    0.00988     3.09293
      C    6   -0.10095      0.99957     2.09139    0.00999     3.10095
      C    7   -0.09820      0.99952     2.09014    0.00854     3.09820
      C    8   -0.03136      0.99944     2.02109    0.01084     3.03136
      C    9   -0.06997      0.99946     2.05842    0.01209     3.06997
      C   10    0.14827      0.99965     1.83187    0.02021     2.85173
      N   11   -0.17909      0.99979     2.66856    0.01073     3.67909
      N   12   -0.32643      0.99975     2.81533    0.01136     3.82643
      C   13   -0.09065      0.99961     2.07815    0.01289     3.09065
      C   14   -0.10191      0.99959     2.09094    0.01137     3.10191
      N   15   -0.21603      0.99970     2.70195    0.01438     3.71603
      N   16    0.13351      0.99971     2.35140    0.01538     3.36649
      N   17   -0.01652      0.99982     2.50360    0.01310     3.51652
      H   18    0.09139      0.00000     0.40703    0.00158     0.40861
      H   19    0.08096      0.00000     0.41745    0.00159     0.41904
      H   20    0.09345      0.00000     0.40491    0.00164     0.40655
      H   21    0.10761      0.00000     0.39106    0.00133     0.39239
      H   22    0.10178      0.00000     0.39715    0.00107     0.39822
      H   23    0.10049      0.00000     0.39880    0.00071     0.39951
      H   24    0.10731      0.00000     0.39121    0.00148     0.39269
      H   25    0.12529      0.00000     0.37231    0.00240     0.37471
      H   26    0.18247      0.00000     0.31474    0.00279     0.31753
      H   27    0.10141      0.00000     0.39689    0.00169     0.39859
      H   28    0.09632      0.00000     0.40227    0.00141     0.40368
      H   29    0.09688      0.00000     0.40137    0.00175     0.40312
      H   30    0.09562      0.00000     0.40289    0.00149     0.40438
 =======================================================================
   * Total *    0.00000     16.99344    43.78286    0.22370    61.00000

 Normal termination of Gaussian 16 at Fri Dec 11 13:33:25 2020.
