 Gaussian 16, Revision A.03,

 -----------------------------------------------------------
 # opt freq B3LYP/6-31G(d) empiricaldispersion=gd3bj scf=xqc
 -----------------------------------------------------------

 ------------------------------
 CID_88663601_JID_3000_neutraal
 ------------------------------
 Symbolic Z-matrix:
 Charge =  0 Multiplicity = 1

 SCF Done:  E(RB3LYP) =  -649.862692532     A.U. after   15 cycles
 SCF Done:  E(RB3LYP) =  -649.865652299     A.U. after   12 cycles
 SCF Done:  E(RB3LYP) =  -649.866291574     A.U. after   12 cycles
 SCF Done:  E(RB3LYP) =  -649.866508050     A.U. after   12 cycles
 SCF Done:  E(RB3LYP) =  -649.866626939     A.U. after   13 cycles
 SCF Done:  E(RB3LYP) =  -649.866984624     A.U. after   12 cycles
 SCF Done:  E(RB3LYP) =  -649.867105201     A.U. after   12 cycles
 SCF Done:  E(RB3LYP) =  -649.867138784     A.U. after   11 cycles
 SCF Done:  E(RB3LYP) =  -649.867161641     A.U. after   10 cycles
 SCF Done:  E(RB3LYP) =  -649.867190378     A.U. after   12 cycles
 SCF Done:  E(RB3LYP) =  -649.867194801     A.U. after    9 cycles
 SCF Done:  E(RB3LYP) =  -649.867196444     A.U. after    9 cycles
 SCF Done:  E(RB3LYP) =  -649.867196828     A.U. after    8 cycles
 Optimization completed.
    -- Stationary point found.

 1\1\GINC-NODE320\FOpt\RB3LYP\6-31G(d)\C9H10O4\VSC10255\09-Dec-2020\0\\
 # opt freq B3LYP/6-31G(d) empiricaldispersion=gd3bj scf=xqc\\CID_88663
 601_JID_3000_neutraal\\0,1\C,0.9966241621,0.6769274947,-0.1248682892\C
 ,-0.308142362,1.0501392584,-0.2079541456\O,-1.1188315323,-0.0503534941
 ,-0.1689194678\C,-0.3061988508,-1.1515812161,-0.064449938\C,0.99736910
 01,-0.7565447741,-0.0342750784\C,-0.9875309446,-2.4816525392,-0.003101
 1511\C,-1.7877265978,-2.7041924455,1.3147689161\C,-2.9373293091,-1.752
 6759582,1.4483415648\C,-4.1804408883,-2.0353419628,1.0320219599\C,-5.3

 Normal termination of Gaussian 16 at Wed Dec  9 22:20:47 2020.

 --------------------------------------------------------------------
 #N Geom=AllCheck Guess=TCheck SCRF=Check GenChk RB3LYP/6-31G(d) Freq
 --------------------------------------------------------------------

 Structure from the checkpoint file:  "JID_3000.chk"
 ------------------------------
 CID_88663601_JID_3000_neutraal
 ------------------------------
 Charge =  0 Multiplicity = 1

 SCF Done:  E(RB3LYP) =  -649.867196828     A.U. after    1 cycles

  Exact polarizability: 137.137   0.344 105.206  19.491   3.079  64.579
 Approx polarizability: 199.143   1.027 156.558  43.777   1.549 105.665

                      1                      2                      3
                      A                      A                      A
 Frequencies --     27.3048                33.6087                54.8447
 Red. masses --      5.3848                 7.7535                 6.6858
 Frc consts  --      0.0024                 0.0052                 0.0118
 IR Inten    --      0.1079                 0.4293                 0.4664

                      4                      5                      6
                      A                      A                      A
 Frequencies --     83.0024               122.5066               140.9264
 Red. masses --      6.0345                 5.1265                 3.0801
 Frc consts  --      0.0245                 0.0453                 0.0360
 IR Inten    --      0.5014                 0.9357                 0.5953

                      7                      8                      9
                      A                      A                      A
 Frequencies --    179.7270               221.5852               292.0240
 Red. masses --      5.0248                 4.0617                 3.3633
 Frc consts  --      0.0956                 0.1175                 0.1690
 IR Inten    --      0.7551                 1.2478                 6.7921

                     10                     11                     12
                      A                      A                      A
 Frequencies --    313.3460               373.9814               407.4563
 Red. masses --      1.9342                 1.7312                 2.5231
 Frc consts  --      0.1119                 0.1427                 0.2468
 IR Inten    --     44.5259               113.7116                20.4814

                     13                     14                     15
                      A                      A                      A
 Frequencies --    429.4346               502.2236               564.9184
 Red. masses --      5.2945                 5.8250                 2.2007
 Frc consts  --      0.5753                 0.8657                 0.4138
 IR Inten    --     17.9846                 9.8437                26.6267

                     16                     17                     18
                      A                      A                      A
 Frequencies --    602.2431               611.2722               623.5434
 Red. masses --      1.4686                 3.3659                 3.5220
 Frc consts  --      0.3138                 0.7410                 0.8068
 IR Inten    --     44.0094                 6.5477                50.9019

                     19                     20                     21
                      A                      A                      A
 Frequencies --    700.4218               721.3112               739.8157
 Red. masses --      3.3141                 3.0264                 1.4860
 Frc consts  --      0.9579                 0.9277                 0.4792
 IR Inten    --     31.9627                32.4381                41.4615

                     22                     23                     24
                      A                      A                      A
 Frequencies --    782.4772               815.4207               863.7236
 Red. masses --      4.3252                 1.3024                 1.6704
 Frc consts  --      1.5603                 0.5102                 0.7342
 IR Inten    --     20.8317                13.6150                 0.9992

                     25                     26                     27
                      A                      A                      A
 Frequencies --    871.3159               900.6802               905.3609
 Red. masses --      1.8224                 3.8868                 2.5675
 Frc consts  --      0.8151                 1.8577                 1.2399
 IR Inten    --      2.3292                31.4915                12.3634

                     28                     29                     30
                      A                      A                      A
 Frequencies --    910.9959               947.9302               999.0376
 Red. masses --      5.1346                 3.4210                 2.2707
 Frc consts  --      2.5107                 1.8111                 1.3353
 IR Inten    --      1.7328                17.8717                20.6422

                     31                     32                     33
                      A                      A                      A
 Frequencies --   1024.6378              1039.8990              1051.4937
 Red. masses --      1.1409                 1.4946                 2.2629
 Frc consts  --      0.7057                 0.9522                 1.4741
 IR Inten    --     35.6893                48.8287                30.7056

                     34                     35                     36
                      A                      A                      A
 Frequencies --   1095.5663              1114.1407              1177.9599
 Red. masses --      3.4032                 2.8028                 1.6357
 Frc consts  --      2.4066                 2.0498                 1.3373
 IR Inten    --     44.3325                 5.1615                37.0388

                     37                     38                     39
                      A                      A                      A
 Frequencies --   1194.7820              1223.1454              1242.2771
 Red. masses --      1.8584                 1.5578                 1.4923
 Frc consts  --      1.5630                 1.3731                 1.3569
 IR Inten    --    174.4235                77.7427                 1.8936

                     40                     41                     42
                      A                      A                      A
 Frequencies --   1254.6507              1278.9867              1324.5198
 Red. masses --      1.5038                 2.4709                 1.3276
 Frc consts  --      1.3947                 2.3815                 1.3722
 IR Inten    --     27.6329                23.1631                12.1644

                     43                     44                     45
                      A                      A                      A
 Frequencies --   1336.6244              1346.9070              1382.5290
 Red. masses --      1.3335                 1.3682                 1.4083
 Frc consts  --      1.4037                 1.4624                 1.5860
 IR Inten    --      8.7560                 6.2281                14.1370

                     46                     47                     48
                      A                      A                      A
 Frequencies --   1398.6553              1431.4451              1442.0102
 Red. masses --      2.7203                 2.5003                 1.2736
 Frc consts  --      3.1353                 3.0185                 1.5603
 IR Inten    --     86.6323                 4.2125                52.1492

                     49                     50                     51
                      A                      A                      A
 Frequencies --   1509.3027              1554.2680              1653.5130
 Red. masses --      1.1162                 4.5292                 6.1709
 Frc consts  --      1.4981                 6.4466                 9.9406
 IR Inten    --      8.7814                 8.7387                 0.0722

                     52                     53                     54
                      A                      A                      A
 Frequencies --   1713.1824              1826.8620              3060.8412
 Red. masses --      6.0533                 8.9932                 1.0594
 Frc consts  --     10.4677                17.6838                 5.8476
 IR Inten    --     18.5081               404.1986                15.7183

                     55                     56                     57
                      A                      A                      A
 Frequencies --   3099.9682              3111.3681              3207.3878
 Red. masses --      1.0863                 1.1053                 1.0942
 Frc consts  --      6.1505                 6.3043                 6.6322
 IR Inten    --     26.3577                16.9753                 0.7455

                     58                     59                     60
                      A                      A                      A
 Frequencies --   3216.1813              3265.1453              3276.4605
 Red. masses --      1.0865                 1.0920                 1.0968
 Frc consts  --      6.6215                 6.8590                 6.9375
 IR Inten    --      3.3110                 3.9099                 1.3221

                     61                     62                     63
                      A                      A                      A
 Frequencies --   3305.6856              3702.6361              3717.0019
 Red. masses --      1.1047                 1.0642                 1.0655
 Frc consts  --      7.1126                 8.5961                 8.6733
 IR Inten    --      0.9780                64.7043                20.7796

 - Thermochemistry -
 -------------------
 Temperature   298.150 Kelvin.  Pressure   1.00000 Atm.
 Atom     1 has atomic number  6 and mass  12.00000

 Molecular mass:   182.05791 amu.
 Principal axes and moments of inertia in atomic units:
                           1         2         3
     Eigenvalues --  1249.935474115.578044821.09236
           X            0.99999  -0.00312   0.00190
           Y            0.00308   0.99972   0.02339
           Z           -0.00197  -0.02339   0.99972
 This molecule is an asymmetric top.
 Rotational symmetry number  1.
 Warning -- assumption of classical behavior for rotation
           may cause significant error
 Rotational temperatures (Kelvin)      0.06929     0.02105     0.01797
 Rotational constants (GHZ):           1.44387     0.43851     0.37434
 Zero-point vibrational energy     474453.8 (Joules/Mol)
                                  113.39717 (Kcal/Mol)
 Warning -- explicit consideration of  17 degrees of freedom as
           vibrations may cause significant error
 Vibrational temperatures:     39.29    48.36    78.91   119.42   176.26
          (Kelvin)            202.76   258.59   318.81   420.16   450.84
                              538.08   586.24   617.86   722.59   812.79
                              866.49   879.48   897.14  1007.75  1037.81
                             1064.43  1125.81  1173.21  1242.71  1253.63
                             1295.88  1302.61  1310.72  1363.86  1437.39
                             1474.23  1496.18  1512.86  1576.28  1603.00
                             1694.82  1719.02  1759.83  1787.36  1805.16
                             1840.18  1905.69  1923.10  1937.90  1989.15
                             2012.35  2059.53  2074.73  2171.55  2236.24
                             2379.04  2464.89  2628.45  4403.87  4460.16
                             4476.56  4614.72  4627.37  4697.82  4714.10
                             4756.14  5327.27  5347.94

 Zero-point correction=                           0.180710 (Hartree/Particle)
 Thermal correction to Energy=                    0.193118
 Thermal correction to Enthalpy=                  0.194062
 Thermal correction to Gibbs Free Energy=         0.139720
 Sum of electronic and zero-point Energies=           -649.686487
 Sum of electronic and thermal Energies=              -649.674079
 Sum of electronic and thermal Enthalpies=            -649.673135
 Sum of electronic and thermal Free Energies=         -649.727477

                     E (Thermal)             CV                S
                      KCal/Mol        Cal/Mol-Kelvin    Cal/Mol-Kelvin
 Total                  121.183             45.264            114.373
 Electronic               0.000              0.000              0.000
 Translational            0.889              2.981             41.504
 Rotational               0.889              2.981             31.584
 Vibrational            119.406             39.303             41.285
 Vibration     1          0.593              1.984              6.016
 Vibration     2          0.594              1.983              5.604
 Vibration     3          0.596              1.976              4.635
 Vibration     4          0.600              1.961              3.819
 Vibration     5          0.610              1.930              3.060
 Vibration     6          0.615              1.912              2.791
 Vibration     7          0.629              1.867              2.331
 Vibration     8          0.648              1.808              1.946
 Vibration     9          0.687              1.689              1.462
 Vibration    10          0.701              1.648              1.345
 Vibration    11          0.745              1.525              1.063
 Vibration    12          0.772              1.454              0.936
 Vibration    13          0.791              1.406              0.861
 Vibration    14          0.858              1.245              0.653
 Vibration    15          0.921              1.107              0.514
 Vibration    16          0.961              1.027              0.446
 Vibration    17          0.970              1.008              0.431

                           ! Non-Optimized Parameters !

 1\1\GINC-NODE320\Freq\RB3LYP\6-31G(d)\C9H10O4\VSC10255\09-Dec-2020\0\\
 #N Geom=AllCheck Guess=TCheck SCRF=Check GenChk RB3LYP/6-31G(d) Freq\\
 CID_88663601_JID_3000_neutraal\\0,1\C,0.9966241621,0.6769274947,-0.124
 8682892\C,-0.308142362,1.0501392584,-0.2079541456\O,-1.1188315323,-0.0
 503534941,-0.1689194678\C,-0.3061988508,-1.1515812161,-0.064449938\C,0
 .9973691001,-0.7565447741,-0.0342750784\C,-0.9875309446,-2.4816525392,
 -0.0031011511\C,-1.7877265978,-2.7041924455,1.3147689161\C,-2.93732930
 91,-1.7526759582,1.4483415648\C,-4.1804408883,-2.0353419628,1.03202195

 Normal termination of Gaussian 16 at Wed Dec  9 22:25:45 2020.

 ----------------------------------------------------------------------
 # B3LYP/6-311++G(d,p) empiricaldispersion=gd3bj scf=xqc pop=npa geom=c
 heck
 ----------------------------------------------------------------------

 --------------------------------------
 CID_88663601_JID_3000_Energie_neutraal
 --------------------------------------
 Structure from the checkpoint file:  "JID_3000.chk"
 Charge =  0 Multiplicity = 1

 SCF Done:  E(RB3LYP) =  -650.073166370     A.U. after   15 cycles
 Normal termination of Gaussian 16 at Wed Dec  9 22:27:27 2020.

 ----------------------------------------------------------------------
 # B3LYP/6-311++G(d,p) empiricaldispersion=gd3bj scf=xqc pop=npa geom=c
 heck
 ----------------------------------------------------------------------

 ------------------------------------
 CID_88663601_JID_3000_Energie_kation
 ------------------------------------
 Structure from the checkpoint file:  "JID_3000.chk"
 Charge =  1 Multiplicity = 2

 SCF Done:  E(UB3LYP) =  -649.755720714     A.U. after   28 cycles
 Normal termination of Gaussian 16 at Wed Dec  9 22:31:40 2020.
 Gaussian 16:  ES64L-G16RevA.03 25-Dec-2016

 -----------------------------------
 CID_88663601_JID_3000_Energie_anion
 -----------------------------------
 Structure from the checkpoint file:  "JID_3000.chk"
 Charge = -1 Multiplicity = 2

                         Standard orientation:
 ---------------------------------------------------------------------
 Center     Atomic      Atomic             Coordinates (Angstroms)
 Number     Number       Type             X           Y           Z
 ---------------------------------------------------------------------
      1          6           0       -3.474469    1.346817   -0.081622
      2          6           0       -2.281350    1.854480    0.327462
      3          8           0       -1.343876    0.861593    0.399170
      4          6           0       -1.960481   -0.308315    0.031607
      5          6           0       -3.265685   -0.061535   -0.271370
      6          6           0       -1.112729   -1.540536    0.035439
      7          6           0       -0.019022   -1.539806   -1.073807
      8          6           0        0.995562   -0.456375   -0.869831
      9          6           0        2.142212   -0.637145   -0.198217
     10          6           0        3.128312    0.427913    0.062418
     11          8           0        4.161265    0.266559    0.681585
     12          8           0        2.778165    1.636059   -0.457710
     13          8           0       -0.533270   -1.794411    1.307410
     14          1           0       -4.392908    1.897901   -0.226143
     15          1           0       -1.939092    2.840379    0.600938
     16          1           0       -3.995871   -0.793801   -0.586432
     17          1           0       -1.775774   -2.388480   -0.159972
     18          1           0        0.463688   -2.522151   -1.040601
     19          1           0       -0.509449   -1.427935   -2.047797
     20          1           0        0.754241    0.536889   -1.236753
     21          1           0        2.424391   -1.609453    0.195332
     22          1           0        3.504434    2.240197   -0.218299
     23          1           0        0.053965   -1.044937    1.503624
 ---------------------------------------------------------------------

 SCF Done:  E(UB3LYP) =  -650.076339930     A.U. after   33 cycles
 SCF Done:  E(UB3LYP) =  -650.076339930     a.u. after    1 cycles

 The electronic state is 2-A.
 Alpha  occ. eigenvalues --  -19.08309 -19.02600 -19.00870 -18.95186 -10.13735
 Alpha  occ. eigenvalues --  -10.12055 -10.11845 -10.11769 -10.07403 -10.06686
 Alpha  occ. eigenvalues --  -10.05125 -10.02286 -10.01979  -1.00729  -0.96061
 Alpha  occ. eigenvalues --   -0.91305  -0.86664  -0.70062  -0.68355  -0.65283
 Alpha  occ. eigenvalues --   -0.60357  -0.54026  -0.50201  -0.47848  -0.45439
 Alpha  occ. eigenvalues --   -0.44273  -0.42733  -0.37548  -0.35595  -0.35245
 Alpha  occ. eigenvalues --   -0.34490  -0.34086  -0.31928  -0.31149  -0.30439
 Alpha  occ. eigenvalues --   -0.29871  -0.28035  -0.27690  -0.26833  -0.23982
 Alpha  occ. eigenvalues --   -0.23868  -0.21349  -0.18660  -0.18255  -0.17345
 Alpha  occ. eigenvalues --   -0.13724  -0.13349  -0.12380   0.04578
 Alpha virt. eigenvalues --    0.06643   0.07823   0.08776   0.09704   0.09950
 Alpha virt. eigenvalues --    0.10314   0.11062   0.12015   0.12762   0.14075
 Alpha virt. eigenvalues --    0.14397   0.14905   0.15306   0.16273   0.16975

  Beta  occ. eigenvalues --  -19.08293 -19.02567 -19.00866 -18.94896 -10.13517
  Beta  occ. eigenvalues --  -10.12035 -10.11782 -10.11749 -10.07398 -10.06665
  Beta  occ. eigenvalues --  -10.05161 -10.01919 -10.01826  -1.00700  -0.95827
  Beta  occ. eigenvalues --   -0.91287  -0.86255  -0.70027  -0.68080  -0.64915
  Beta  occ. eigenvalues --   -0.60103  -0.53694  -0.50167  -0.47547  -0.45376
  Beta  occ. eigenvalues --   -0.44129  -0.42325  -0.37460  -0.35458  -0.35101
  Beta  occ. eigenvalues --   -0.34334  -0.33804  -0.31798  -0.30997  -0.29842
  Beta  occ. eigenvalues --   -0.29412  -0.27970  -0.27530  -0.26684  -0.23777
  Beta  occ. eigenvalues --   -0.23744  -0.21172  -0.18202  -0.17670  -0.17102
  Beta  occ. eigenvalues --   -0.13129  -0.12811  -0.11391
  Beta virt. eigenvalues --    0.06961   0.08338   0.08842   0.09522   0.09990
  Beta virt. eigenvalues --    0.10480   0.11047   0.11275   0.12323   0.12879
  Beta virt. eigenvalues --    0.14015   0.14433   0.14931   0.15221   0.16307

 Mulliken charges and spin densities:
               1          2
     1  C    0.771297  -1.194182
     2  C   -0.368457   0.394707
     3  O    0.006853   0.024434
     4  C   -0.123195  -0.238983
     5  C   -0.912515   0.942212
     6  C    1.191893  -1.219409
     7  C    0.013677  -0.510711
     8  C   -0.224052   0.504704
     9  C   -0.237028   0.011507
    10  C   -0.137077   0.155724
    11  O   -0.403578   0.090606
    12  O   -0.239952   0.008113
    13  O   -0.197345  -0.006769
    14  H   -0.170551   0.319096
    15  H    0.079083   0.076624
    16  H   -0.701006   0.877701
    17  H   -0.383851   0.615714
    18  H    0.144520   0.031909
    19  H   -0.016045   0.158184
    20  H    0.214518  -0.036269
    21  H    0.153797   0.002890
    22  H    0.253490   0.000464
    23  H    0.285523  -0.008264
 Sum of Mulliken charges =  -1.00000   1.00000

 Dipole moment (field-independent basis, Debye):
    X=             -1.6178    Y=              3.8634    Z=             -0.0806  Tot=              4.1892
 Quadrupole moment (field-independent basis, Debye-Ang):
   XX=           -143.5083   YY=            -94.1121   ZZ=            -94.5524
   XY=             -3.6927   XZ=             -7.2542   YZ=              1.2275

 Summary of Natural Population Analysis:

                                       Natural Population
                Natural  -----------------------------------------------
    Atom  No    Charge         Core      Valence    Rydberg      Total
 -----------------------------------------------------------------------
      C    1   -0.15507      0.99957     2.14547    0.01002     3.15507
      C    2    0.05719      0.99951     1.93045    0.01286     2.94281
      O    3   -0.23384      0.99986     3.22569    0.00829     4.23384
      C    4    0.14918      0.99944     1.83501    0.01636     2.85082
      C    5   -0.14958      0.99950     2.14116    0.00892     3.14958
      C    6    0.05227      0.99951     1.93250    0.01572     2.94773
      C    7   -0.21704      0.99960     2.20644    0.01100     3.21704
      C    8    0.01305      0.99954     1.97677    0.01063     2.98695
      C    9   -0.16293      0.99946     2.15370    0.00977     3.16293
      C   10    0.41002      0.99969     1.56641    0.02389     2.58998
      O   11   -0.30529      0.99987     3.29848    0.00694     4.30529
      O   12   -0.35915      0.99988     3.35099    0.00829     4.35915
      O   13   -0.36907      0.99990     3.36296    0.00622     4.36907
      H   14    0.10600      0.00000     0.39323    0.00077     0.39400
      H   15    0.09340      0.00000     0.40573    0.00087     0.40660
      H   16    0.11085      0.00000     0.38746    0.00169     0.38915
      H   17    0.09618      0.00000     0.40102    0.00280     0.40382
      H   18    0.10260      0.00000     0.39627    0.00113     0.39740
      H   19    0.10395      0.00000     0.39500    0.00105     0.39605
      H   20    0.09470      0.00000     0.40380    0.00151     0.40530
      H   21    0.09589      0.00000     0.40283    0.00128     0.40411
      H   22    0.23117      0.00000     0.26580    0.00303     0.26883
      H   23    0.23553      0.00000     0.26167    0.00280     0.26447
 =======================================================================
   * Total *    0.00000     12.99533    34.83881    0.16586    48.00000

 Normal termination of Gaussian 16 at Wed Dec  9 22:36:48 2020.
