 Gaussian 16, Revision A.03,

 -----------------------------------------------------------
 # opt freq B3LYP/6-31G(d) empiricaldispersion=gd3bj scf=xqc
 -----------------------------------------------------------

 -------------------------------
 CID_103850413_JID_5655_neutraal
 -------------------------------
 Symbolic Z-matrix:
 Charge =  0 Multiplicity = 1

 SCF Done:  E(RB3LYP) =  -1408.89976986     A.U. after   15 cycles
 SCF Done:  E(RB3LYP) =  -1408.90664245     A.U. after   13 cycles
 SCF Done:  E(RB3LYP) =  -1408.90822006     A.U. after   13 cycles
 SCF Done:  E(RB3LYP) =  -1408.90832750     A.U. after   14 cycles
 SCF Done:  E(RB3LYP) =  -1408.90884223     A.U. after   12 cycles
 SCF Done:  E(RB3LYP) =  -1408.90890342     A.U. after   12 cycles
 SCF Done:  E(RB3LYP) =  -1408.90907144     A.U. after   11 cycles
 SCF Done:  E(RB3LYP) =  -1408.90924942     A.U. after   12 cycles
 SCF Done:  E(RB3LYP) =  -1408.90946819     A.U. after   12 cycles
 SCF Done:  E(RB3LYP) =  -1408.90973652     A.U. after   12 cycles
 SCF Done:  E(RB3LYP) =  -1408.91019838     A.U. after   11 cycles
 SCF Done:  E(RB3LYP) =  -1408.91019618     A.U. after   10 cycles
 SCF Done:  E(RB3LYP) =  -1408.91019989     A.U. after   10 cycles
 SCF Done:  E(RB3LYP) =  -1408.91019529     A.U. after   12 cycles
 SCF Done:  E(RB3LYP) =  -1408.91020021     A.U. after   11 cycles
 Optimization completed.
    -- Stationary point found.
 Normal termination of Gaussian 16 at Thu Dec 10 16:45:37 2020.

 --------------------------------------------------------------------
 #N Geom=AllCheck Guess=TCheck SCRF=Check GenChk RB3LYP/6-31G(d) Freq
 --------------------------------------------------------------------

 Structure from the checkpoint file:  "JID_5655.chk"
 -------------------------------
 CID_103850413_JID_5655_neutraal
 -------------------------------
 Charge =  0 Multiplicity = 1

 SCF Done:  E(RB3LYP) =  -1408.91020021     A.U. after    1 cycles

  Exact polarizability: 149.220  -5.341 151.610   4.103  -6.402 114.552
 Approx polarizability: 200.302 -16.910 235.172   6.733 -19.824 188.273

                      1                      2                      3
                      A                      A                      A
 Frequencies --     19.9871                35.4871                47.9204
 Red. masses --      6.6877                 4.3377                 7.7178
 Frc consts  --      0.0016                 0.0032                 0.0104
 IR Inten    --      1.5702                 2.2612                 0.6040

                      4                      5                      6
                      A                      A                      A
 Frequencies --     62.3007                88.7631               118.1597
 Red. masses --      3.4587                 4.8372                 7.3637
 Frc consts  --      0.0079                 0.0225                 0.0606
 IR Inten    --      0.4097                 9.3768                 4.8365

                      7                      8                      9
                      A                      A                      A
 Frequencies --    136.4870               165.3891               188.6797
 Red. masses --      4.8698                 1.7490                 4.8851
 Frc consts  --      0.0534                 0.0282                 0.1025
 IR Inten    --      1.9199                 2.7566                 2.1971

                     10                     11                     12
                      A                      A                      A
 Frequencies --    204.5022               246.4916               259.4290
 Red. masses --      2.1476                 3.2784                 3.1640
 Frc consts  --      0.0529                 0.1174                 0.1255
 IR Inten    --      0.9157                 4.1403                 0.4606

                     13                     14                     15
                      A                      A                      A
 Frequencies --    285.9918               298.5510               347.6811
 Red. masses --      5.9310                 3.4688                 2.4743
 Frc consts  --      0.2858                 0.1822                 0.1762
 IR Inten    --      0.1415                 0.1827                 2.5938

                     16                     17                     18
                      A                      A                      A
 Frequencies --    365.4440               385.7270               392.6028
 Red. masses --      2.8071                 2.9778                 4.1316
 Frc consts  --      0.2209                 0.2610                 0.3752
 IR Inten    --      6.3418                 0.3573                11.5772

                     19                     20                     21
                      A                      A                      A
 Frequencies --    421.0053               447.8603               475.0720
 Red. masses --      3.9382                 2.5205                 3.6058
 Frc consts  --      0.4113                 0.2979                 0.4795
 IR Inten    --     30.9606                 2.4258                 6.2638

                     22                     23                     24
                      A                      A                      A
 Frequencies --    517.3129               548.1234               583.2968
 Red. masses --      4.7017                 4.0911                 5.8059
 Frc consts  --      0.7413                 0.7242                 1.1638
 IR Inten    --     17.9713                 8.0274                40.9658

                     25                     26                     27
                      A                      A                      A
 Frequencies --    619.5017               672.4064               719.2997
 Red. masses --      3.8541                 2.6462                 2.1737
 Frc consts  --      0.8715                 0.7049                 0.6626
 IR Inten    --     12.7736                69.4431                11.2141

                     28                     29                     30
                      A                      A                      A
 Frequencies --    728.2250               752.0928               817.8091
 Red. masses --      4.5273                 4.4175                 3.9500
 Frc consts  --      1.4146                 1.4722                 1.5565
 IR Inten    --      2.2357                48.1861                21.6217

                     31                     32                     33
                      A                      A                      A
 Frequencies --    850.0600               874.5942               881.8142
 Red. masses --      1.7624                 2.3956                 2.1965
 Frc consts  --      0.7503                 1.0797                 1.0063
 IR Inten    --      3.7785                 3.2532                45.6014

                     34                     35                     36
                      A                      A                      A
 Frequencies --    901.9207               916.2539               948.4968
 Red. masses --      1.7589                 1.8364                 1.9908
 Frc consts  --      0.8430                 0.9083                 1.0552
 IR Inten    --     19.0382                28.3117                50.4395

                     37                     38                     39
                      A                      A                      A
 Frequencies --    973.0364               988.1602               995.7362
 Red. masses --      3.9946                 1.2878                 1.5758
 Frc consts  --      2.2283                 0.7409                 0.9205
 IR Inten    --      1.2352                 3.4617                18.9049

                     40                     41                     42
                      A                      A                      A
 Frequencies --   1006.4772              1031.4093              1052.9720
 Red. masses --      1.6812                 2.8032                 1.7709
 Frc consts  --      1.0034                 1.7570                 1.1569
 IR Inten    --     64.5111                 8.2932                 0.4874

                     43                     44                     45
                      A                      A                      A
 Frequencies --   1100.5974              1102.2621              1124.6994
 Red. masses --      2.0385                 1.8650                 3.5171
 Frc consts  --      1.4549                 1.3351                 2.6212
 IR Inten    --     14.5308                 0.3147               104.8826

                     46                     47                     48
                      A                      A                      A
 Frequencies --   1138.7793              1155.9739              1195.7323
 Red. masses --      2.4067                 1.0488                 1.1647
 Frc consts  --      1.8389                 0.8258                 0.9812
 IR Inten    --     53.3531                 1.4839                17.6721

                     49                     50                     51
                      A                      A                      A
 Frequencies --   1204.6170              1258.3409              1277.2580
 Red. masses --      1.4315                 1.2325                 1.5208
 Frc consts  --      1.2239                 1.1498                 1.4618
 IR Inten    --      5.4351                23.2256                24.8465

                     52                     53                     54
                      A                      A                      A
 Frequencies --   1298.9993              1318.3741              1321.4547
 Red. masses --      1.2208                 1.3829                 1.7934
 Frc consts  --      1.2137                 1.4161                 1.8451
 IR Inten    --     23.8863                36.8465                53.6525

                     55                     56                     57
                      A                      A                      A
 Frequencies --   1337.8352              1361.7325              1370.5480
 Red. masses --      2.2668                 1.5889                 1.4844
 Frc consts  --      2.3904                 1.7360                 1.6428
 IR Inten    --     48.9322                22.9526                14.0470

                     58                     59                     60
                      A                      A                      A
 Frequencies --   1375.3859              1388.4654              1406.7179
 Red. masses --      1.3249                 1.1804                 1.4540
 Frc consts  --      1.4766                 1.3407                 1.6953
 IR Inten    --      0.3360                 2.8861                 1.8496

                     61                     62                     63
                      A                      A                      A
 Frequencies --   1409.1916              1415.8210              1463.9919
 Red. masses --      1.4629                 1.4293                 1.1062
 Frc consts  --      1.7116                 1.6881                 1.3969
 IR Inten    --      2.7536                 1.3706                 8.3959

                     64                     65                     66
                      A                      A                      A
 Frequencies --   1491.3143              1497.1881              1502.2117
 Red. masses --      1.2079                 1.0603                 1.0794
 Frc consts  --      1.5828                 1.4004                 1.4352
 IR Inten    --     87.7455                11.8353                11.3144

                     67                     68                     69
                      A                      A                      A
 Frequencies --   1509.7013              1521.4935              1526.4457
 Red. masses --      1.0633                 1.0840                 1.0802
 Frc consts  --      1.4278                 1.4785                 1.4829
 IR Inten    --     10.3559                12.9232                 9.1602

                     70                     71                     72
                      A                      A                      A
 Frequencies --   1534.8180              2376.8641              3023.0543
 Red. masses --      1.0898                12.5877                 1.0718
 Frc consts  --      1.5125                41.8990                 5.7711
 IR Inten    --      8.1198                 5.1871                17.5275

                     73                     74                     75
                      A                      A                      A
 Frequencies --   3038.1929              3049.7918              3057.7983
 Red. masses --      1.0698                 1.0697                 1.0606
 Frc consts  --      5.8180                 5.8619                 5.8430
 IR Inten    --     17.7017                11.1275                15.6714

                     76                     77                     78
                      A                      A                      A
 Frequencies --   3062.4332              3064.9147              3096.1510
 Red. masses --      1.0431                 1.0697                 1.1005
 Frc consts  --      5.7638                 5.9204                 6.2157
 IR Inten    --     36.5062                36.3222                39.5858

                     79                     80                     81
                      A                      A                      A
 Frequencies --   3098.5477              3098.8190              3106.2132
 Red. masses --      1.0586                 1.0910                 1.0991
 Frc consts  --      5.9880                 6.1726                 6.2480
 IR Inten    --      2.3877                33.5574                13.5958

                     82                     83                     84
                      A                      A                      A
 Frequencies --   3108.2376              3114.4931              3145.2644
 Red. masses --      1.0967                 1.0861                 1.1064
 Frc consts  --      6.2424                 6.2070                 6.4485
 IR Inten    --     24.0597                12.2548                 9.8213

                     85                     86                     87
                      A                      A                      A
 Frequencies --   3160.3250              3161.5024              3418.8854
 Red. masses --      1.1042                 1.1070                 1.0759
 Frc consts  --      6.4979                 6.5191                 7.4096
 IR Inten    --      5.3356                 1.3300               192.1475

 - Thermochemistry -
 -------------------
 Temperature   298.150 Kelvin.  Pressure   1.00000 Atm.
 Atom     1 has atomic number  6 and mass  12.00000

 Molecular mass:   248.06532 amu.
 Principal axes and moments of inertia in atomic units:
                           1         2         3
     Eigenvalues --  2634.093284822.478326279.51146
           X            0.99989   0.00454   0.01380
           Y           -0.00444   0.99996  -0.00761
           Z           -0.01383   0.00755   0.99988
 This molecule is an asymmetric top.
 Rotational symmetry number  1.
 Warning -- assumption of classical behavior for rotation
           may cause significant error
 Rotational temperatures (Kelvin)      0.03288     0.01796     0.01379
 Rotational constants (GHZ):           0.68515     0.37424     0.28740
 Zero-point vibrational energy     670889.5 (Joules/Mol)
                                  160.34644 (Kcal/Mol)
 Warning -- explicit consideration of  25 degrees of freedom as
           vibrations may cause significant error
 Vibrational temperatures:     28.76    51.06    68.95    89.64   127.71
          (Kelvin)            170.01   196.37   237.96   271.47   294.23
                              354.65   373.26   411.48   429.55   500.24
                              525.79   554.98   564.87   605.73   644.37
                              683.52   744.30   788.63   839.23   891.32
                              967.44  1034.91  1047.75  1082.09  1176.64
                             1223.05  1258.35  1268.73  1297.66  1318.29
                             1364.68  1399.98  1421.74  1432.64  1448.10
                             1483.97  1514.99  1583.51  1585.91  1618.19
                             1638.45  1663.19  1720.39  1733.18  1810.47
                             1837.69  1868.97  1896.85  1901.28  1924.85
                             1959.23  1971.91  1978.87  1997.69  2023.95
                             2027.51  2037.05  2106.36  2145.67  2154.12
                             2161.35  2172.12  2189.09  2196.21  2208.26
                             3419.78  4349.50  4371.28  4387.97  4399.49
                             4406.16  4409.73  4454.67  4458.12  4458.51
                             4469.15  4472.06  4481.06  4525.33  4547.00
                             4548.70  4919.01

 Zero-point correction=                           0.255528 (Hartree/Particle)
 Thermal correction to Energy=                    0.271693
 Thermal correction to Enthalpy=                  0.272637
 Thermal correction to Gibbs Free Energy=         0.210072
 Sum of electronic and zero-point Energies=          -1408.654672
 Sum of electronic and thermal Energies=             -1408.638507
 Sum of electronic and thermal Enthalpies=           -1408.637563
 Sum of electronic and thermal Free Energies=        -1408.700128

                     E (Thermal)             CV                S
                      KCal/Mol        Cal/Mol-Kelvin    Cal/Mol-Kelvin
 Total                  170.490             59.800            131.680
 Electronic               0.000              0.000              0.000
 Translational            0.889              2.981             42.426
 Rotational               0.889              2.981             32.745
 Vibrational            168.713             53.839             56.509
 Vibration     1          0.593              1.986              6.635
 Vibration     2          0.594              1.982              5.496
 Vibration     3          0.595              1.978              4.901
 Vibration     4          0.597              1.972              4.383
 Vibration     5          0.602              1.957              3.687
 Vibration     6          0.608              1.934              3.130
 Vibration     7          0.614              1.917              2.853
 Vibration     8          0.624              1.885              2.487
 Vibration     9          0.633              1.855              2.241
 Vibration    10          0.640              1.833              2.092
 Vibration    11          0.661              1.769              1.756
 Vibration    12          0.668              1.747              1.666
 Vibration    13          0.684              1.700              1.498
 Vibration    14          0.692              1.676              1.425
 Vibration    15          0.725              1.580              1.177
 Vibration    16          0.739              1.543              1.099
 Vibration    17          0.754              1.501              1.017
 Vibration    18          0.760              1.486              0.990
 Vibration    19          0.784              1.425              0.889
 Vibration    20          0.807              1.366              0.802
 Vibration    21          0.832              1.305              0.723
 Vibration    22          0.872              1.212              0.616
 Vibration    23          0.903              1.144              0.548
 Vibration    24          0.940              1.067              0.479
 Vibration    25          0.979              0.991              0.417

                           ! Non-Optimized Parameters !
 Normal termination of Gaussian 16 at Thu Dec 10 16:57:12 2020.

 ----------------------------------------------------------------------
 # B3LYP/6-311++G(d,p) empiricaldispersion=gd3bj scf=xqc pop=npa geom=c
 heck
 ----------------------------------------------------------------------

 ---------------------------------------
 CID_103850413_JID_5655_Energie_neutraal
 ---------------------------------------
 Structure from the checkpoint file:  "JID_5655.chk"
 Charge =  0 Multiplicity = 1

 SCF Done:  E(RB3LYP) =  -1409.14062998     A.U. after   15 cycles
 Normal termination of Gaussian 16 at Thu Dec 10 17:03:42 2020.

 ----------------------------------------------------------------------
 # B3LYP/6-311++G(d,p) empiricaldispersion=gd3bj scf=xqc pop=npa geom=c
 heck
 ----------------------------------------------------------------------

 -------------------------------------
 CID_103850413_JID_5655_Energie_kation
 -------------------------------------
 Structure from the checkpoint file:  "JID_5655.chk"
 Charge =  1 Multiplicity = 2

 SCF Done:  E(UB3LYP) =  -1408.82277104     A.U. after   25 cycles
 Normal termination of Gaussian 16 at Thu Dec 10 17:20:42 2020.
 Gaussian 16:  ES64L-G16RevA.03 25-Dec-2016

 ----------------------------------------------------------------------
 # B3LYP/6-311++G(d,p) empiricaldispersion=gd3bj scf=xqc pop=npa geom=c
 heck
 ----------------------------------------------------------------------

 ------------------------------------
 CID_103850413_JID_5655_Energie_anion
 ------------------------------------
 Structure from the checkpoint file:  "JID_5655.chk"
 Charge = -1 Multiplicity = 2

                         Standard orientation:
 ---------------------------------------------------------------------
 Center     Atomic      Atomic             Coordinates (Angstroms)
 Number     Number       Type             X           Y           Z
 ---------------------------------------------------------------------
      1          6           0       -3.325320    2.034048   -0.748910
      2         16           0       -1.957153    1.482207    0.321517
      3          6           0       -2.491379   -0.242519    0.750297
      4          6           0       -2.828503   -1.117275   -0.467076
      5          6           0       -1.590841   -1.522070   -1.274489
      6          6           0       -0.576314   -2.242452   -0.380730
      7          6           0       -0.159851   -1.383618    0.826039
      8          6           0       -1.391595   -0.897183    1.611021
      9          7           0        0.666087   -0.205210    0.460567
     10         16           0        2.170505   -0.499780   -0.204546
     11          8           0        2.720309   -1.699789    0.429562
     12          8           0        2.167907   -0.346463   -1.661695
     13          6           0        3.103263    0.929307    0.480473
     14          6           0        2.464459    2.190890    0.145577
     15          7           0        1.916290    3.175442   -0.130645
     16          1           0       -3.181679    3.105946   -0.904775
     17          1           0       -4.290323    1.875964   -0.257681
     18          1           0       -3.315706    1.533147   -1.719798
     19          1           0       -3.388957   -0.129955    1.368941
     20          1           0       -3.316934   -2.025930   -0.084362
     21          1           0       -3.567881   -0.621621   -1.104177
     22          1           0       -1.127943   -0.636007   -1.726449
     23          1           0       -1.885347   -2.173733   -2.104412
     24          1           0        0.310684   -2.537640   -0.949863
     25          1           0       -1.025209   -3.168358    0.005295
     26          1           0        0.464321   -1.980125    1.495458
     27          1           0       -1.076718   -0.223702    2.414781
     28          1           0       -1.838057   -1.780333    2.085729
     29          1           0        0.159832    0.479535   -0.108492
     30          1           0        3.152965    0.783792    1.561995
     31          1           0        4.107432    0.863811    0.050669
 ---------------------------------------------------------------------

 SCF Done:  E(UB3LYP) =  -1409.13346927     A.U. after   33 cycles
 SCF Done:  E(UB3LYP) =  -1409.13346927     a.u. after    1 cycles

 The electronic state is 2-A.
 Alpha  occ. eigenvalues --  -88.98564 -88.74704 -19.04121 -19.03892 -14.25294
 Alpha  occ. eigenvalues --  -14.24195 -10.16539 -10.14231 -10.12740 -10.11285
 Alpha  occ. eigenvalues --  -10.10423 -10.08677 -10.07616 -10.07581 -10.07362
 Alpha  occ. eigenvalues --   -8.04770  -7.83347  -6.01009  -6.00987  -6.00911
 Alpha  occ. eigenvalues --   -5.79740  -5.79362  -5.78719  -1.04231  -0.93235
 Alpha  occ. eigenvalues --   -0.84843  -0.83675  -0.75203  -0.72544  -0.69383
 Alpha  occ. eigenvalues --   -0.66033  -0.64550  -0.56609  -0.55922  -0.53080
 Alpha  occ. eigenvalues --   -0.50562  -0.47631  -0.45597  -0.43790  -0.42095
 Alpha  occ. eigenvalues --   -0.40768  -0.39532  -0.38289  -0.36850  -0.36047
 Alpha  occ. eigenvalues --   -0.35367  -0.33877  -0.32977  -0.31826  -0.30301
 Alpha  occ. eigenvalues --   -0.30051  -0.29660  -0.29422  -0.28049  -0.27164
 Alpha  occ. eigenvalues --   -0.26075  -0.25989  -0.25430  -0.24851  -0.23643
 Alpha  occ. eigenvalues --   -0.23209  -0.22712  -0.21993  -0.20861  -0.18305
 Alpha  occ. eigenvalues --   -0.13742   0.03819
 Alpha virt. eigenvalues --    0.05507   0.06484   0.06510   0.07565   0.07953
 Alpha virt. eigenvalues --    0.08774   0.09536   0.09780   0.10163   0.10518
 Alpha virt. eigenvalues --    0.11183   0.11601   0.11881   0.12390   0.12773

  Beta  occ. eigenvalues --  -88.98549 -88.74699 -19.04107 -19.03877 -14.25278
  Beta  occ. eigenvalues --  -14.24167 -10.16470 -10.14229 -10.12733 -10.11268
  Beta  occ. eigenvalues --  -10.10392 -10.08654 -10.07585 -10.07567 -10.07351
  Beta  occ. eigenvalues --   -8.04751  -7.83342  -6.00995  -6.00975  -6.00888
  Beta  occ. eigenvalues --   -5.79732  -5.79357  -5.78716  -1.04183  -0.93192
  Beta  occ. eigenvalues --   -0.84806  -0.83627  -0.75154  -0.72455  -0.69351
  Beta  occ. eigenvalues --   -0.65989  -0.64503  -0.56553  -0.55864  -0.53036
  Beta  occ. eigenvalues --   -0.50514  -0.47574  -0.45540  -0.43724  -0.42052
  Beta  occ. eigenvalues --   -0.40700  -0.39486  -0.38255  -0.36812  -0.36010
  Beta  occ. eigenvalues --   -0.35327  -0.33840  -0.32945  -0.31785  -0.30261
  Beta  occ. eigenvalues --   -0.30010  -0.29620  -0.29382  -0.27961  -0.27134
  Beta  occ. eigenvalues --   -0.26028  -0.25960  -0.25394  -0.24823  -0.23611
  Beta  occ. eigenvalues --   -0.23161  -0.22676  -0.21953  -0.20821  -0.18282
  Beta  occ. eigenvalues --   -0.13720
  Beta virt. eigenvalues --    0.06066   0.06437   0.06708   0.07252   0.08145
  Beta virt. eigenvalues --    0.08539   0.09300   0.09882   0.10031   0.10471
  Beta virt. eigenvalues --    0.10794   0.11466   0.11960   0.12024   0.12470

 Mulliken charges and spin densities:
               1          2
     1  C    0.191455  -0.825535
     2  S   -0.193299   0.225841
     3  C   -0.033497   0.534259
     4  C    1.041881  -1.738659
     5  C   -0.655409   0.356288
     6  C    0.496371  -0.879636
     7  C   -0.966489   0.749391
     8  C    0.507194  -1.441431
     9  N    0.084885  -0.028752
    10  S    0.051135   0.087526
    11  O   -0.170753   0.029484
    12  O   -0.024264   0.005536
    13  C    0.265109  -0.836168
    14  C    0.054896   0.187634
    15  N   -0.267998  -0.007620
    16  H    0.066509   0.101489
    17  H   -0.225306   0.400845
    18  H    0.071905   0.107356
    19  H   -0.261462   0.592098
    20  H   -0.382988   0.550533
    21  H   -0.281978   0.444192
    22  H    0.021472   0.182692
    23  H   -0.015864   0.188160
    24  H    0.220259   0.034177
    25  H   -0.249649   0.415376
    26  H   -0.032065   0.297607
    27  H    0.041397   0.173841
    28  H   -0.375750   0.562515
    29  H    0.249460  -0.223904
    30  H   -0.226092   0.495602
    31  H   -0.001068   0.259264
 Sum of Mulliken charges =  -1.00000   1.00000

 Dipole moment (field-independent basis, Debye):
    X=              3.1084    Y=              1.3123    Z=             -1.3938  Tot=              3.6506
 Quadrupole moment (field-independent basis, Debye-Ang):
   XX=           -177.3944   YY=           -159.1060   ZZ=           -142.4373
   XY=             -9.3936   XZ=              5.0886   YZ=              2.1355

 Summary of Natural Population Analysis:

                                       Natural Population
                Natural  -----------------------------------------------
    Atom  No    Charge         Core      Valence    Rydberg      Total
 -----------------------------------------------------------------------
      C    1   -0.35085      0.99962     2.34551    0.00572     3.35085
      S    2    0.08622      4.99960     2.89536    0.01882     7.91378
      C    3   -0.16116      0.99956     2.14603    0.01557     3.16116
      C    4   -0.19800      0.99959     2.18719    0.01122     3.19800
      C    5   -0.19658      0.99962     2.18782    0.00913     3.19658
      C    6   -0.19852      0.99960     2.18981    0.00912     3.19852
      C    7   -0.01279      0.99957     1.99804    0.01518     3.01279
      C    8   -0.19758      0.99958     2.18631    0.01169     3.19758
      N    9   -0.45779      0.99974     2.94490    0.01315     3.95779
      S   10    1.10362      4.99930     1.79628    0.10080     6.89638
      O   11   -0.45747      0.99991     3.45218    0.00539     4.45747
      O   12   -0.45641      0.99990     3.45122    0.00528     4.45641
      C   13   -0.33835      0.99949     2.32641    0.01245     3.33835
      C   14    0.14268      0.99965     1.84116    0.01650     2.85732
      N   15   -0.15598      0.99979     2.64567    0.01052     3.65598
      H   16    0.10830      0.00000     0.39087    0.00084     0.39170
      H   17    0.10486      0.00000     0.39368    0.00146     0.39514
      H   18    0.10188      0.00000     0.39677    0.00135     0.39812
      H   19    0.10689      0.00000     0.39075    0.00237     0.39311
      H   20    0.10407      0.00000     0.39299    0.00294     0.39593
      H   21    0.10297      0.00000     0.39548    0.00155     0.39703
      H   22    0.09901      0.00000     0.39937    0.00162     0.40099
      H   23    0.10266      0.00000     0.39648    0.00085     0.39734
      H   24    0.10523      0.00000     0.39369    0.00108     0.39477
      H   25    0.10176      0.00000     0.39694    0.00131     0.39824
      H   26    0.11167      0.00000     0.38710    0.00123     0.38833
      H   27    0.10903      0.00000     0.38920    0.00177     0.39097
      H   28    0.11245      0.00000     0.38553    0.00202     0.38755
      H   29    0.20897      0.00000     0.28688    0.00414     0.29103
      H   30    0.13663      0.00000     0.36164    0.00173     0.36337
      H   31    0.13256      0.00000     0.36609    0.00134     0.36744
 =======================================================================
   * Total *   -0.00000     22.99451    42.71735    0.28814    66.00000

 Normal termination of Gaussian 16 at Thu Dec 10 17:41:03 2020.
