 Gaussian 16, Revision A.03,

 -----------------------------------------------------------
 # opt freq B3LYP/6-31G(d) empiricaldispersion=gd3bj scf=xqc
 -----------------------------------------------------------

 ------------------------------
 CID_65556465_JID_3206_neutraal
 ------------------------------
 Symbolic Z-matrix:
 Charge =  0 Multiplicity = 1

 SCF Done:  E(RB3LYP) =  -554.349935560     A.U. after   14 cycles
 SCF Done:  E(RB3LYP) =  -554.354832794     A.U. after   12 cycles
 SCF Done:  E(RB3LYP) =  -554.356232772     A.U. after   12 cycles
 SCF Done:  E(RB3LYP) =  -554.356729392     A.U. after   12 cycles
 SCF Done:  E(RB3LYP) =  -554.356811508     A.U. after   11 cycles
 SCF Done:  E(RB3LYP) =  -554.356837702     A.U. after   10 cycles
 SCF Done:  E(RB3LYP) =  -554.356841125     A.U. after    8 cycles
 SCF Done:  E(RB3LYP) =  -554.356842457     A.U. after    8 cycles
 SCF Done:  E(RB3LYP) =  -554.356842995     A.U. after    8 cycles
 SCF Done:  E(RB3LYP) =  -554.356843298     A.U. after    7 cycles
 SCF Done:  E(RB3LYP) =  -554.356843470     A.U. after    7 cycles
 SCF Done:  E(RB3LYP) =  -554.356843527     A.U. after    7 cycles
 Optimization completed.
    -- Stationary point found.
 Normal termination of Gaussian 16 at Wed Dec  9 22:28:37 2020.

 --------------------------------------------------------------------
 #N Geom=AllCheck Guess=TCheck SCRF=Check GenChk RB3LYP/6-31G(d) Freq
 --------------------------------------------------------------------

 Structure from the checkpoint file:  "JID_3206.chk"
 ------------------------------
 CID_65556465_JID_3206_neutraal
 ------------------------------
 Charge =  0 Multiplicity = 1

 SCF Done:  E(RB3LYP) =  -554.356843527     A.U. after    1 cycles

  Exact polarizability: 143.401   1.778 132.031 -16.975   4.432  82.183
 Approx polarizability: 194.609   5.690 219.600 -35.831   5.559 131.284

                      1                      2                      3
                      A                      A                      A
 Frequencies --     32.0216                48.4880                59.9999
 Red. masses --      3.9462                 2.7044                 4.2012
 Frc consts  --      0.0024                 0.0037                 0.0089
 IR Inten    --      0.1783                 0.4248                 0.8691

                      4                      5                      6
                      A                      A                      A
 Frequencies --    100.4811               147.1966               179.3540
 Red. masses --      3.6814                 3.3204                 3.6316
 Frc consts  --      0.0219                 0.0424                 0.0688
 IR Inten    --      0.7274                 1.1279                 1.5617

                      7                      8                      9
                      A                      A                      A
 Frequencies --    245.0928               266.4568               285.6402
 Red. masses --      1.9491                 2.2885                 1.4959
 Frc consts  --      0.0690                 0.0957                 0.0719
 IR Inten    --     17.0076                39.7459                50.7414

                     10                     11                     12
                      A                      A                      A
 Frequencies --    331.6730               361.9189               396.3644
 Red. masses --      3.0936                 2.9175                 1.9446
 Frc consts  --      0.2005                 0.2252                 0.1800
 IR Inten    --     45.3964                 1.3768                 1.0590

                     13                     14                     15
                      A                      A                      A
 Frequencies --    429.9427               468.1863               492.7055
 Red. masses --      2.9418                 1.6857                 2.2566
 Frc consts  --      0.3204                 0.2177                 0.3228
 IR Inten    --     20.0059                88.7076                71.7732

                     16                     17                     18
                      A                      A                      A
 Frequencies --    526.2709               556.9616               609.7722
 Red. masses --      2.4904                 3.8662                 5.0934
 Frc consts  --      0.4064                 0.7066                 1.1158
 IR Inten    --     10.2058                54.4145                 1.0914

                     19                     20                     21
                      A                      A                      A
 Frequencies --    634.7331               736.3895               763.0885
 Red. masses --      4.7652                 1.6948                 4.0830
 Frc consts  --      1.1311                 0.5415                 1.4008
 IR Inten    --      8.7187                49.3150                 7.6034

                     22                     23                     24
                      A                      A                      A
 Frequencies --    772.0643               786.6026               812.5079
 Red. masses --      3.3478                 1.1234                 2.0818
 Frc consts  --      1.1757                 0.4095                 0.8098
 IR Inten    --     36.7854                13.7585                25.5651

                     25                     26                     27
                      A                      A                      A
 Frequencies --    832.1018               837.6521               862.4467
 Red. masses --      1.3144                 1.3375                 2.4300
 Frc consts  --      0.5362                 0.5529                 1.0649
 IR Inten    --     24.0944                25.0660                 4.6695

                     28                     29                     30
                      A                      A                      A
 Frequencies --    887.4131               910.1897               924.1580
 Red. masses --      2.3725                 1.3836                 2.8470
 Frc consts  --      1.1008                 0.6753                 1.4326
 IR Inten    --      2.9415                 0.4578                11.7381

                     31                     32                     33
                      A                      A                      A
 Frequencies --    941.6810               956.6422              1000.4212
 Red. masses --      1.3830                 2.7858                 1.6800
 Frc consts  --      0.7226                 1.5021                 0.9907
 IR Inten    --      0.3958                19.2243                16.8105

                     34                     35                     36
                      A                      A                      A
 Frequencies --   1056.0521              1069.2104              1084.0868
 Red. masses --      1.5962                 1.8004                 1.4178
 Frc consts  --      1.0488                 1.2126                 0.9818
 IR Inten    --      0.4887                13.3642                 1.2063

                     37                     38                     39
                      A                      A                      A
 Frequencies --   1086.7215              1096.8459              1121.8295
 Red. masses --      1.7741                 1.7843                 2.5300
 Frc consts  --      1.2344                 1.2647                 1.8760
 IR Inten    --      6.7765                 2.9415                24.2130

                     40                     41                     42
                      A                      A                      A
 Frequencies --   1146.9402              1169.7621              1211.1491
 Red. masses --      1.1255                 1.7026                 1.4064
 Frc consts  --      0.8723                 1.3727                 1.2155
 IR Inten    --      0.2605                 4.6778                 2.1315

                     43                     44                     45
                      A                      A                      A
 Frequencies --   1225.4677              1238.7625              1245.7797
 Red. masses --      1.7814                 1.6210                 1.7197
 Frc consts  --      1.5762                 1.4656                 1.5724
 IR Inten    --     42.0930                 1.1666                14.3471

                     46                     47                     48
                      A                      A                      A
 Frequencies --   1287.7475              1293.6644              1317.0667
 Red. masses --      1.6312                 1.9562                 1.8326
 Frc consts  --      1.5938                 1.9288                 1.8730
 IR Inten    --     23.1351                 3.3064                35.5671

                     49                     50                     51
                      A                      A                      A
 Frequencies --   1337.2007              1366.0499              1382.5701
 Red. masses --      4.7707                 1.4830                 1.2544
 Frc consts  --      5.0261                 1.6306                 1.4127
 IR Inten    --     22.8979                24.2635                 5.3831

                     52                     53                     54
                      A                      A                      A
 Frequencies --   1407.9556              1442.3044              1468.5792
 Red. masses --      1.3128                 1.5982                 2.0429
 Frc consts  --      1.5333                 1.9588                 2.5959
 IR Inten    --      7.4332                 2.8049                31.7879

                     55                     56                     57
                      A                      A                      A
 Frequencies --   1495.6233              1498.7982              1505.6070
 Red. masses --      1.1481                 1.2953                 1.1050
 Frc consts  --      1.5131                 1.7143                 1.4759
 IR Inten    --      4.7956                20.4159                 5.4291

                     58                     59                     60
                      A                      A                      A
 Frequencies --   1515.7174              1538.1191              1551.5685
 Red. masses --      1.2018                 1.3597                 2.7235
 Frc consts  --      1.6267                 1.8952                 3.8630
 IR Inten    --      8.9517                 1.0336                69.6361

                     61                     62                     63
                      A                      A                      A
 Frequencies --   1630.3787              1637.9316              1668.5188
 Red. masses --      2.7810                 4.4827                 1.5471
 Frc consts  --      4.3554                 7.0857                 2.5377
 IR Inten    --      3.8538                60.6079                91.0152

                     64                     65                     66
                      A                      A                      A
 Frequencies --   3034.3456              3057.2250              3078.6013
 Red. masses --      1.0628                 1.0610                 1.0980
 Frc consts  --      5.7656                 5.8430                 6.1316
 IR Inten    --     19.0637                31.7469                26.1764

                     67                     68                     69
                      A                      A                      A
 Frequencies --   3103.5046              3141.8659              3145.1323
 Red. masses --      1.1060                 1.0517                 1.0730
 Frc consts  --      6.2764                 6.1168                 6.2538
 IR Inten    --     40.0624                21.7697                42.1225

                     70                     71                     72
                      A                      A                      A
 Frequencies --   3147.2651              3148.8780              3171.3632
 Red. masses --      1.0887                 1.0730                 1.0867
 Frc consts  --      6.3539                 6.2683                 6.4394
 IR Inten    --     39.0715                 5.1150                16.3426

                     73                     74                     75
                      A                      A                      A
 Frequencies --   3190.4726              3216.2435              3230.8752
 Red. masses --      1.0952                 1.1192                 1.1160
 Frc consts  --      6.5683                 6.8210                 6.8635
 IR Inten    --     28.4179                 0.7560                25.5899

                     76                     77                     78
                      A                      A                      A
 Frequencies --   3526.2410              3589.5677              3699.5645
 Red. masses --      1.0739                 1.0463                 1.1004
 Frc consts  --      7.8676                 7.9433                 8.8739
 IR Inten    --      1.3578                21.9300                23.4505

 - Thermochemistry -
 -------------------
 Temperature   298.150 Kelvin.  Pressure   1.00000 Atm.
 Atom     1 has atomic number  6 and mass  12.00000

 Molecular mass:   177.12660 amu.
 Principal axes and moments of inertia in atomic units:
                           1         2         3
     Eigenvalues --  1153.777694099.809014821.12264
           X            0.99994  -0.01042  -0.00153
           Y            0.01046   0.99969   0.02281
           Z            0.00129  -0.02283   0.99974
 This molecule is an asymmetric top.
 Rotational symmetry number  1.
 Warning -- assumption of classical behavior for rotation
           may cause significant error
 Rotational temperatures (Kelvin)      0.07507     0.02113     0.01797
 Rotational constants (GHZ):           1.56420     0.44020     0.37434
 Zero-point vibrational energy     638660.9 (Joules/Mol)
                                  152.64363 (Kcal/Mol)
 Warning -- explicit consideration of  18 degrees of freedom as
           vibrations may cause significant error
 Vibrational temperatures:     46.07    69.76    86.33   144.57   211.78
          (Kelvin)            258.05   352.63   383.37   410.97   477.20
                              520.72   570.28   618.59   673.62   708.89
                              757.19   801.34   877.33   913.24  1059.50
                             1097.91  1110.83  1131.75  1169.02  1197.21
                             1205.19  1240.87  1276.79  1309.56  1329.66
                             1354.87  1376.39  1439.38  1519.42  1538.36
                             1559.76  1563.55  1578.12  1614.06  1650.19
                             1683.03  1742.57  1763.17  1782.30  1792.40
                             1852.78  1861.29  1894.97  1923.93  1965.44
                             1989.21  2025.73  2075.15  2112.96  2151.87
                             2156.44  2166.23  2180.78  2213.01  2232.36
                             2345.75  2356.62  2400.63  4365.75  4398.66
                             4429.42  4465.25  4520.44  4525.14  4528.21
                             4530.53  4562.88  4590.38  4627.46  4648.51
                             5073.47  5164.59  5322.85

 Zero-point correction=                           0.243253 (Hartree/Particle)
 Thermal correction to Energy=                    0.255761
 Thermal correction to Enthalpy=                  0.256706
 Thermal correction to Gibbs Free Energy=         0.203382
 Sum of electronic and zero-point Energies=           -554.113590
 Sum of electronic and thermal Energies=              -554.101082
 Sum of electronic and thermal Enthalpies=            -554.100138
 Sum of electronic and thermal Free Energies=         -554.153461

                     E (Thermal)             CV                S
                      KCal/Mol        Cal/Mol-Kelvin    Cal/Mol-Kelvin
 Total                  160.493             48.297            112.228
 Electronic               0.000              0.000              0.000
 Translational            0.889              2.981             41.422
 Rotational               0.889              2.981             31.501
 Vibrational            158.715             42.336             39.305
 Vibration     1          0.594              1.983              5.700
 Vibration     2          0.595              1.978              4.878
 Vibration     3          0.597              1.973              4.457
 Vibration     4          0.604              1.949              3.445
 Vibration     5          0.617              1.906              2.708
 Vibration     6          0.629              1.868              2.335
 Vibration     7          0.660              1.771              1.766
 Vibration     8          0.672              1.735              1.619
 Vibration     9          0.683              1.700              1.500
 Vibration    10          0.714              1.612              1.252
 Vibration    11          0.736              1.551              1.114
 Vibration    12          0.763              1.478              0.976
 Vibration    13          0.791              1.405              0.859
 Vibration    14          0.825              1.321              0.743
 Vibration    15          0.848              1.266              0.677
 Vibration    16          0.881              1.192              0.596
 Vibration    17          0.912              1.124              0.530
 Vibration    18          0.969              1.011              0.433

 Optimization completed.
    -- Stationary point found.
 Normal termination of Gaussian 16 at Wed Dec  9 22:36:09 2020.

 ----------------------------------------------------------------------
 # B3LYP/6-311++G(d,p) empiricaldispersion=gd3bj scf=xqc pop=npa geom=c
 heck
 ----------------------------------------------------------------------

 --------------------------------------
 CID_65556465_JID_3206_Energie_neutraal
 --------------------------------------
 Structure from the checkpoint file:  "JID_3206.chk"
 Charge =  0 Multiplicity = 1

 SCF Done:  E(RB3LYP) =  -554.515847500     A.U. after   15 cycles
 Normal termination of Gaussian 16 at Wed Dec  9 22:39:52 2020.

 ----------------------------------------------------------------------
 # B3LYP/6-311++G(d,p) empiricaldispersion=gd3bj scf=xqc pop=npa geom=c
 heck
 ----------------------------------------------------------------------

 ------------------------------------
 CID_65556465_JID_3206_Energie_kation
 ------------------------------------
 Structure from the checkpoint file:  "JID_3206.chk"
 Charge =  1 Multiplicity = 2

 SCF Done:  E(UB3LYP) =  -554.234775724     A.U. after   22 cycles
 Normal termination of Gaussian 16 at Wed Dec  9 22:47:25 2020.
 Gaussian 16:  ES64L-G16RevA.03 25-Dec-2016

 ----------------------------------------------------------------------
 # B3LYP/6-311++G(d,p) empiricaldispersion=gd3bj scf=xqc pop=npa geom=c
 heck
 ----------------------------------------------------------------------

 -----------------------------------
 CID_65556465_JID_3206_Energie_anion
 -----------------------------------
 Structure from the checkpoint file:  "JID_3206.chk"
 Charge = -1 Multiplicity = 2

                         Standard orientation:
 ---------------------------------------------------------------------
 Center     Atomic      Atomic             Coordinates (Angstroms)
 Number     Number       Type             X           Y           Z
 ---------------------------------------------------------------------
      1          6           0        3.970268    0.102551   -0.441663
      2          6           0        3.945184   -0.999620    0.590120
      3          6           0        2.652266   -0.473160    0.022595
      4          6           0        1.721135    0.364174    0.875120
      5          6           0        0.953962    1.426270    0.074021
      6          7           0        0.067292    0.903965   -0.985582
      7          6           0       -1.005810    0.089195   -0.535836
      8          6           0       -2.140449    0.707553    0.035480
      9          6           0       -3.160145   -0.128793    0.515139
     10          7           0       -3.151560   -1.460866    0.430705
     11          6           0       -2.099616   -2.031542   -0.167152
     12          6           0       -1.014400   -1.301859   -0.650415
     13          7           0       -2.271864    2.090060    0.053614
     14          1           0        4.322459   -0.133279   -1.441905
     15          1           0        4.228876    1.104129   -0.106275
     16          1           0        4.276390   -1.990797    0.293795
     17          1           0        4.187657   -0.739885    1.617445
     18          1           0        2.152638   -1.135554   -0.682349
     19          1           0        1.007017   -0.285853    1.396294
     20          1           0        2.305520    0.877449    1.651414
     21          1           0        0.343134    2.024091    0.759434
     22          1           0        1.662948    2.108034   -0.409758
     23          1           0        0.623638    0.406618   -1.675531
     24          1           0       -4.040035    0.323255    0.973906
     25          1           0       -2.115899   -3.116245   -0.249763
     26          1           0       -0.165405   -1.813120   -1.097540
     27          1           0       -2.764665    2.499841    0.833961
     28          1           0       -1.465712    2.610593   -0.258740
 ---------------------------------------------------------------------

 SCF Done:  E(UB3LYP) =  -554.503404563     A.U. after   33 cycles
 SCF Done:  E(UB3LYP) =  -554.503404563     a.u. after    1 cycles

 The electronic state is 2-A.
 Alpha  occ. eigenvalues --  -14.21858 -14.21661 -14.20621 -10.11726 -10.11529
 Alpha  occ. eigenvalues --  -10.09841 -10.09828 -10.09808 -10.08326 -10.07956
 Alpha  occ. eigenvalues --  -10.07724 -10.07351 -10.07179  -0.85505  -0.82510
 Alpha  occ. eigenvalues --   -0.80306  -0.76592  -0.68649  -0.64779  -0.63824
 Alpha  occ. eigenvalues --   -0.54888  -0.53761  -0.51160  -0.50658  -0.47002
 Alpha  occ. eigenvalues --   -0.43826  -0.41990  -0.40886  -0.40117  -0.37688
 Alpha  occ. eigenvalues --   -0.36850  -0.35701  -0.33893  -0.33304  -0.31756
 Alpha  occ. eigenvalues --   -0.30761  -0.30324  -0.27711  -0.27107  -0.26578
 Alpha  occ. eigenvalues --   -0.24711  -0.23127  -0.20335  -0.19574  -0.18785
 Alpha  occ. eigenvalues --   -0.16139  -0.14353  -0.11028   0.04359
 Alpha virt. eigenvalues --    0.05973   0.06937   0.07266   0.08004   0.08535
 Alpha virt. eigenvalues --    0.08994   0.09215   0.09992   0.10437   0.10948
 Alpha virt. eigenvalues --    0.11152   0.12357   0.12558   0.13138   0.13647

  Beta  occ. eigenvalues --  -14.21851 -14.21604 -14.20606 -10.11718 -10.11512
  Beta  occ. eigenvalues --  -10.09831 -10.09807 -10.09791 -10.08317 -10.07949
  Beta  occ. eigenvalues --  -10.07710 -10.07312 -10.07166  -0.85470  -0.82480
  Beta  occ. eigenvalues --   -0.80241  -0.76565  -0.68610  -0.64742  -0.63778
  Beta  occ. eigenvalues --   -0.54824  -0.53720  -0.51111  -0.50583  -0.46948
  Beta  occ. eigenvalues --   -0.43786  -0.41949  -0.40820  -0.40059  -0.37645
  Beta  occ. eigenvalues --   -0.36807  -0.35660  -0.33857  -0.33261  -0.31702
  Beta  occ. eigenvalues --   -0.30726  -0.30275  -0.27680  -0.27074  -0.26544
  Beta  occ. eigenvalues --   -0.24673  -0.23071  -0.20302  -0.19537  -0.18738
  Beta  occ. eigenvalues --   -0.16115  -0.14318  -0.10968
  Beta virt. eigenvalues --    0.06706   0.07075   0.07400   0.07794   0.08424
  Beta virt. eigenvalues --    0.08981   0.09061   0.09665   0.10416   0.10916
  Beta virt. eigenvalues --    0.11504   0.11535   0.12620   0.12807   0.13485

 Mulliken charges and spin densities:
               1          2
     1  C    1.075030  -1.600634
     2  C    0.610860  -1.020408
     3  C   -1.968405   2.242977
     4  C    1.626859  -2.111686
     5  C   -0.335287   0.033598
     6  N    0.083557  -0.027493
     7  C    0.417785  -1.040868
     8  C   -0.057326   0.241750
     9  C    0.230161  -0.747233
    10  N   -0.102183   0.020216
    11  C   -0.081332  -0.556581
    12  C   -0.156533   0.952128
    13  N   -0.451905   0.097504
    14  H   -0.555796   0.713639
    15  H   -0.062761   0.208578
    16  H   -0.052388   0.187455
    17  H    0.033666   0.086402
    18  H   -0.054290   0.263568
    19  H    0.242321  -0.099970
    20  H   -0.373336   0.553739
    21  H   -0.179449   0.317691
    22  H   -0.406292   0.593877
    23  H    0.210735   0.047106
    24  H   -0.059147   0.215789
    25  H    0.142267   0.009266
    26  H   -0.294104   0.419091
    27  H   -0.307009   0.560706
    28  H   -0.175697   0.439792
 Sum of Mulliken charges =  -1.00000   1.00000

 Dipole moment (field-independent basis, Debye):
    X=             -0.9323    Y=             -4.1616    Z=              0.6950  Tot=              4.3210
 Quadrupole moment (field-independent basis, Debye-Ang):
   XX=           -157.5314   YY=           -126.7379   ZZ=           -110.8378
   XY=              1.2192   XZ=             10.4614   YZ=             -3.3722

 Summary of Natural Population Analysis:

                                       Natural Population
                Natural  -----------------------------------------------
    Atom  No    Charge         Core      Valence    Rydberg      Total
 -----------------------------------------------------------------------
      C    1   -0.19865      0.99962     2.18918    0.00986     3.19865
      C    2   -0.19582      0.99962     2.18843    0.00777     3.19582
      C    3   -0.12128      0.99959     2.11002    0.01167     3.12128
      C    4   -0.19895      0.99960     2.19011    0.00923     3.19895
      C    5   -0.08498      0.99960     2.07330    0.01209     3.08498
      N    6   -0.33518      0.99972     2.82307    0.01240     3.83518
      C    7    0.07667      0.99943     1.91148    0.01242     2.92333
      C    8    0.06079      0.99944     1.92788    0.01189     2.93921
      C    9    0.00624      0.99955     1.97908    0.01513     2.99376
      N   10   -0.23464      0.99972     2.72406    0.01086     3.73464
      C   11    0.00507      0.99960     1.98106    0.01428     2.99493
      C   12   -0.13284      0.99951     2.12423    0.00911     3.13284
      N   13   -0.39595      0.99971     2.88578    0.01045     3.89595
      H   14    0.10513      0.00000     0.39277    0.00210     0.39487
      H   15    0.10238      0.00000     0.39625    0.00137     0.39762
      H   16    0.10096      0.00000     0.39815    0.00089     0.39904
      H   17    0.09898      0.00000     0.40010    0.00092     0.40102
      H   18    0.10052      0.00000     0.39782    0.00166     0.39948
      H   19    0.10120      0.00000     0.39744    0.00136     0.39880
      H   20    0.10090      0.00000     0.39777    0.00132     0.39910
      H   21    0.09555      0.00000     0.40237    0.00208     0.40445
      H   22    0.09795      0.00000     0.40003    0.00202     0.40205
      H   23    0.18119      0.00000     0.31577    0.00304     0.31881
      H   24    0.08681      0.00000     0.41125    0.00194     0.41319
      H   25    0.08714      0.00000     0.41174    0.00112     0.41286
      H   26    0.10236      0.00000     0.39633    0.00131     0.39764
      H   27    0.19190      0.00000     0.30333    0.00477     0.30810
      H   28    0.19654      0.00000     0.30013    0.00332     0.30346
 =======================================================================
   * Total *    0.00000     12.99469    34.82892    0.17639    48.00000

 Normal termination of Gaussian 16 at Wed Dec  9 22:58:57 2020.
