 Gaussian 16, Revision A.03,

 -----------------------------------------------------------
 # opt freq B3LYP/6-31G(d) empiricaldispersion=gd3bj scf=xqc
 -----------------------------------------------------------

 ------------------------------
 CID_69740724_JID_1100_neutraal
 ------------------------------
 Symbolic Z-matrix:
 Charge =  0 Multiplicity = 1

 SCF Done:  E(RB3LYP) =  -447.306455094     A.U. after   13 cycles
 SCF Done:  E(RB3LYP) =  -447.309955305     A.U. after   10 cycles
 SCF Done:  E(RB3LYP) =  -447.310454533     A.U. after   10 cycles
 SCF Done:  E(RB3LYP) =  -447.310626520     A.U. after   10 cycles
 SCF Done:  E(RB3LYP) =  -447.310653065     A.U. after    8 cycles
 SCF Done:  E(RB3LYP) =  -447.310667404     A.U. after    8 cycles
 SCF Done:  E(RB3LYP) =  -447.310672905     A.U. after    8 cycles
 SCF Done:  E(RB3LYP) =  -447.310685875     A.U. after    9 cycles
 SCF Done:  E(RB3LYP) =  -447.310692510     A.U. after    9 cycles
 SCF Done:  E(RB3LYP) =  -447.310692734     A.U. after    6 cycles
 SCF Done:  E(RB3LYP) =  -447.310692747     A.U. after    7 cycles
 Optimization completed.
    -- Stationary point found.
 Normal termination of Gaussian 16 at Tue Dec  8 19:14:25 2020.

 --------------------------------------------------------------------
 #N Geom=AllCheck Guess=TCheck SCRF=Check GenChk RB3LYP/6-31G(d) Freq
 --------------------------------------------------------------------

 Structure from the checkpoint file:  "JID_1100.chk"
 ------------------------------
 CID_69740724_JID_1100_neutraal
 ------------------------------
 Charge =  0 Multiplicity = 1

 SCF Done:  E(RB3LYP) =  -447.310692747     A.U. after    1 cycles

  Exact polarizability: 119.670  -0.482 104.319  -0.492  -0.961  93.388
 Approx polarizability: 146.954  -0.043 146.275  -2.467  -0.521 146.609

                      1                      2                      3
                      A                      A                      A
 Frequencies --     74.5705                81.3607               118.6676
 Red. masses --      2.1137                 2.4922                 1.8412
 Frc consts  --      0.0069                 0.0097                 0.0153
 IR Inten    --      0.0345                 0.1383                 0.0391

                      4                      5                      6
                      A                      A                      A
 Frequencies --    189.4306               241.0638               254.9142
 Red. masses --      2.5386                 1.1923                 1.5439
 Frc consts  --      0.0537                 0.0408                 0.0591
 IR Inten    --      0.1019                 0.0054                 0.1770

                      7                      8                      9
                      A                      A                      A
 Frequencies --    269.6491               307.6203               356.7420
 Red. masses --      1.3025                 2.5799                 2.7208
 Frc consts  --      0.0558                 0.1438                 0.2040
 IR Inten    --      0.0159                 0.1221                 2.7764

                     10                     11                     12
                      A                      A                      A
 Frequencies --    384.1254               402.2106               429.7649
 Red. masses --      2.0914                 1.7494                 3.0383
 Frc consts  --      0.1818                 0.1667                 0.3306
 IR Inten    --      0.4456                 0.0901                 1.8183

                     13                     14                     15
                      A                      A                      A
 Frequencies --    483.1469               491.7053               571.0866
 Red. masses --      3.8488                 2.4866                 2.3731
 Frc consts  --      0.5293                 0.3542                 0.4560
 IR Inten    --      1.4567                 3.1824                10.6335

                     16                     17                     18
                      A                      A                      A
 Frequencies --    610.4351               733.9831               782.4756
 Red. masses --      3.3187                 2.7714                 1.8434
 Frc consts  --      0.7286                 0.8797                 0.6650
 IR Inten    --      4.1840                 0.3937                 3.9273

                     19                     20                     21
                      A                      A                      A
 Frequencies --    796.7784               827.1497               838.3137
 Red. masses --      1.4851                 3.0378                 1.8136
 Frc consts  --      0.5555                 1.2246                 0.7510
 IR Inten    --      9.6575                 1.3395                 3.7205

                     22                     23                     24
                      A                      A                      A
 Frequencies --    867.0144               881.9286               903.6278
 Red. masses --      2.3043                 2.1128                 1.7214
 Frc consts  --      1.0206                 0.9682                 0.8281
 IR Inten    --     34.6911                 8.2466                 0.1826

                     25                     26                     27
                      A                      A                      A
 Frequencies --    917.2006               955.4344               962.1389
 Red. masses --      2.2395                 1.5099                 1.9624
 Frc consts  --      1.1100                 0.8121                 1.0703
 IR Inten    --     10.8330                17.0723                 0.4277

                     28                     29                     30
                      A                      A                      A
 Frequencies --    993.8609              1006.0118              1021.5141
 Red. masses --      1.9055                 1.7962                 1.9612
 Frc consts  --      1.1089                 1.0710                 1.2057
 IR Inten    --      6.2901                 3.2093                22.0585

                     31                     32                     33
                      A                      A                      A
 Frequencies --   1030.0380              1060.1835              1075.5867
 Red. masses --      1.9510                 2.5723                 1.6079
 Frc consts  --      1.2196                 1.7035                 1.0960
 IR Inten    --      1.9571                 0.9849                 0.0715

                     34                     35                     36
                      A                      A                      A
 Frequencies --   1100.7959              1127.9859              1142.4314
 Red. masses --      1.6660                 1.6583                 1.7475
 Frc consts  --      1.1894                 1.2431                 1.3438
 IR Inten    --      6.5841                 0.3858                 2.6279

                     37                     38                     39
                      A                      A                      A
 Frequencies --   1153.7596              1181.0421              1187.5316
 Red. masses --      2.4725                 1.4667                 2.2084
 Frc consts  --      1.9392                 1.2054                 1.8349
 IR Inten    --      8.4720                 1.5318                 9.8075

                     40                     41                     42
                      A                      A                      A
 Frequencies --   1237.7734              1251.9364              1256.4254
 Red. masses --      1.4730                 1.5405                 1.3330
 Frc consts  --      1.3297                 1.4225                 1.2398
 IR Inten    --      3.5062                 2.6947                 1.9814

                     43                     44                     45
                      A                      A                      A
 Frequencies --   1282.1788              1295.5566              1318.9841
 Red. masses --      1.3974                 1.2853                 1.3492
 Frc consts  --      1.3535                 1.2710                 1.3829
 IR Inten    --      4.4354                 4.3846                 1.9117

                     46                     47                     48
                      A                      A                      A
 Frequencies --   1326.8652              1343.4417              1349.0208
 Red. masses --      1.2704                 1.3619                 1.5081
 Frc consts  --      1.3178                 1.4482                 1.6170
 IR Inten    --      1.1761                 4.8195                 3.6455

                     49                     50                     51
                      A                      A                      A
 Frequencies --   1354.7776              1379.7091              1386.3467
 Red. masses --      1.3400                 1.5632                 1.4053
 Frc consts  --      1.4491                 1.7532                 1.5913
 IR Inten    --      2.6851                 5.1290                 7.4833

                     52                     53                     54
                      A                      A                      A
 Frequencies --   1412.1678              1416.0465              1436.7679
 Red. masses --      1.6081                 1.3700                 1.3169
 Frc consts  --      1.8895                 1.6186                 1.6017
 IR Inten    --      1.2112                 3.2675                 6.9879

                     55                     56                     57
                      A                      A                      A
 Frequencies --   1440.6548              1452.8276              1513.4844
 Red. masses --      1.2542                 1.3324                 1.0798
 Frc consts  --      1.5337                 1.6570                 1.4573
 IR Inten    --      1.9261                 8.3243                 0.1474

                     58                     59                     60
                      A                      A                      A
 Frequencies --   1516.3417              1521.8245              1525.2815
 Red. masses --      1.0725                 1.0646                 1.0678
 Frc consts  --      1.4530                 1.4527                 1.4636
 IR Inten    --      0.7094                 2.1936                 2.5664

                     61                     62                     63
                      A                      A                      A
 Frequencies --   1527.9793              1529.2593              1532.8588
 Red. masses --      1.0673                 1.0677                 1.0638
 Frc consts  --      1.4681                 1.4711                 1.4727
 IR Inten    --      1.7888                 4.0219                 4.2044

                     64                     65                     66
                      A                      A                      A
 Frequencies --   1539.1053              1545.5638              3016.7308
 Red. masses --      1.0642                 1.0935                 1.0606
 Frc consts  --      1.4853                 1.5391                 5.6869
 IR Inten    --      3.2146                 3.2322                21.2591

                     67                     68                     69
                      A                      A                      A
 Frequencies --   3032.4652              3035.9247              3039.5372
 Red. masses --      1.0615                 1.0663                 1.0454
 Frc consts  --      5.7512                 5.7907                 5.6902
 IR Inten    --     21.9627                26.2157                 4.1555

                     70                     71                     72
                      A                      A                      A
 Frequencies --   3044.0801              3045.4534              3046.6812
 Red. masses --      1.0837                 1.0428                 1.0587
 Frc consts  --      5.9168                 5.6985                 5.7898
 IR Inten    --     15.3965                59.7369                38.5130

                     73                     74                     75
                      A                      A                      A
 Frequencies --   3055.5328              3065.3042              3074.2997
 Red. masses --      1.0923                 1.0646                 1.1000
 Frc consts  --      6.0086                 5.8934                 6.1256
 IR Inten    --      7.4186                26.7315                18.9343

                     76                     77                     78
                      A                      A                      A
 Frequencies --   3083.5355              3090.1155              3097.2810
 Red. masses --      1.0930                 1.0993                 1.0943
 Frc consts  --      6.1229                 6.1848                 6.1848
 IR Inten    --     54.6496                55.3155                19.9665

                     79                     80                     81
                      A                      A                      A
 Frequencies --   3105.5830              3108.9960              3112.0938
 Red. masses --      1.0999                 1.1018                 1.1038
 Frc consts  --      6.2504                 6.2745                 6.2984
 IR Inten    --     18.2487                38.0712                91.4070

                     82                     83                     84
                      A                      A                      A
 Frequencies --   3117.3298              3123.2812              3446.0955
 Red. masses --      1.1017                 1.1027                 1.0741
 Frc consts  --      6.3081                 6.3374                 7.5154
 IR Inten    --     51.4819                25.1046                 7.1277

 - Thermochemistry -
 -------------------
 Temperature   298.150 Kelvin.  Pressure   1.00000 Atm.
 Atom     1 has atomic number  6 and mass  12.00000

 Molecular mass:   153.15175 amu.
 Principal axes and moments of inertia in atomic units:
                           1         2         3
     Eigenvalues --   950.974752287.524742687.86041
           X            0.99997  -0.00752   0.00261
           Y            0.00751   0.99996   0.00500
           Z           -0.00265  -0.00498   0.99998
 This molecule is an asymmetric top.
 Rotational symmetry number  1.
 Warning -- assumption of classical behavior for rotation
           may cause significant error
 Rotational temperatures (Kelvin)      0.09108     0.03786     0.03222
 Rotational constants (GHZ):           1.89778     0.78895     0.67144
 Zero-point vibrational energy     737179.4 (Joules/Mol)
                                  176.19012 (Kcal/Mol)
 Warning -- explicit consideration of  16 degrees of freedom as
           vibrations may cause significant error
 Vibrational temperatures:    107.29   117.06   170.74   272.55   346.84
          (Kelvin)            366.76   387.96   442.60   513.27   552.67
                              578.69   618.34   695.14   707.45   821.67
                              878.28  1056.04  1125.81  1146.39  1190.08
                             1206.15  1247.44  1268.90  1300.12  1319.65
                             1374.66  1384.30  1429.94  1447.43  1469.73
                             1481.99  1525.37  1547.53  1583.80  1622.92
                             1643.70  1660.00  1699.26  1708.59  1780.88
                             1801.26  1807.72  1844.77  1864.02  1897.72
                             1909.06  1932.91  1940.94  1949.22  1985.09
                             1994.64  2031.79  2037.38  2067.19  2072.78
                             2090.29  2177.57  2181.68  2189.57  2194.54
                             2198.42  2200.26  2205.44  2214.43  2223.72
                             4340.40  4363.04  4368.02  4373.22  4379.75
                             4381.73  4383.49  4396.23  4410.29  4423.23
                             4436.52  4445.99  4456.30  4468.24  4473.15
                             4477.61  4485.14  4493.71  4958.16

 Zero-point correction=                           0.280777 (Hartree/Particle)
 Thermal correction to Energy=                    0.291589
 Thermal correction to Enthalpy=                  0.292533
 Thermal correction to Gibbs Free Energy=         0.244883
 Sum of electronic and zero-point Energies=           -447.029916
 Sum of electronic and thermal Energies=              -447.019104
 Sum of electronic and thermal Enthalpies=            -447.018159
 Sum of electronic and thermal Free Energies=         -447.065809

                     E (Thermal)             CV                S
                      KCal/Mol        Cal/Mol-Kelvin    Cal/Mol-Kelvin
 Total                  182.975             43.705            100.288
 Electronic               0.000              0.000              0.000
 Translational            0.889              2.981             40.989
 Rotational               0.889              2.981             30.148
 Vibrational            181.198             37.743             29.151
 Vibration     1          0.599              1.966              4.029
 Vibration     2          0.600              1.962              3.858
 Vibration     3          0.609              1.934              3.122
 Vibration     4          0.633              1.854              2.233
 Vibration     5          0.658              1.777              1.795
 Vibration     6          0.665              1.754              1.696
 Vibration     7          0.674              1.729              1.598
 Vibration     8          0.697              1.659              1.375
 Vibration     9          0.732              1.561              1.136
 Vibration    10          0.753              1.504              1.023
 Vibration    11          0.768              1.465              0.955
 Vibration    12          0.791              1.405              0.859
 Vibration    13          0.839              1.287              0.702
 Vibration    14          0.847              1.268              0.679
 Vibration    15          0.927              1.094              0.502
 Vibration    16          0.969              1.010              0.432

 Optimization completed.
    -- Stationary point found.
 Normal termination of Gaussian 16 at Tue Dec  8 19:22:06 2020.

 ----------------------------------------------------------------------
 # B3LYP/6-311++G(d,p) empiricaldispersion=gd3bj scf=xqc pop=npa geom=c
 heck
 ----------------------------------------------------------------------

 --------------------------------------
 CID_69740724_JID_1100_Energie_neutraal
 --------------------------------------
 Structure from the checkpoint file:  "JID_1100.chk"
 Charge =  0 Multiplicity = 1

 SCF Done:  E(RB3LYP) =  -447.434052806     A.U. after   13 cycles
 Normal termination of Gaussian 16 at Tue Dec  8 19:25:27 2020.

 ----------------------------------------------------------------------
 # B3LYP/6-311++G(d,p) empiricaldispersion=gd3bj scf=xqc pop=npa geom=c
 heck
 ----------------------------------------------------------------------

 ------------------------------------
 CID_69740724_JID_1100_Energie_kation
 ------------------------------------
 Structure from the checkpoint file:  "JID_1100.chk"
 Charge =  1 Multiplicity = 2

 SCF Done:  E(UB3LYP) =  -447.123623553     A.U. after   18 cycles
 Normal termination of Gaussian 16 at Tue Dec  8 19:31:56 2020.
 Gaussian 16:  ES64L-G16RevA.03 25-Dec-2016

 ----------------------------------------------------------------------
 # B3LYP/6-311++G(d,p) empiricaldispersion=gd3bj scf=xqc pop=npa geom=c
 heck
 ----------------------------------------------------------------------

 -----------------------------------
 CID_69740724_JID_1100_Energie_anion
 -----------------------------------
 Structure from the checkpoint file:  "JID_1100.chk"
 Charge = -1 Multiplicity = 2

                         Standard orientation:
 ---------------------------------------------------------------------
 Center     Atomic      Atomic             Coordinates (Angstroms)
 Number     Number       Type             X           Y           Z
 ---------------------------------------------------------------------
      1          6           0       -3.750115   -0.092812   -0.169409
      2          6           0       -2.518709   -0.643997    0.555346
      3          6           0       -1.190503   -0.343096   -0.150774
      4          6           0       -0.921284    1.168832   -0.295058
      5          6           0        0.572790    1.442028   -0.592317
      6          6           0        1.415675    1.672511    0.705616
      7          6           0        2.107022    0.309993    0.948128
      8          6           0        1.374763   -0.641275   -0.033258
      9          6           0       -0.017081   -1.045801    0.552700
     10          7           0        1.120627    0.217964   -1.216268
     11          6           0        2.195052   -1.864856   -0.419961
     12          1           0       -3.732445    1.001341   -0.220475
     13          1           0       -4.674276   -0.385270    0.341561
     14          1           0       -3.802053   -0.471762   -1.197528
     15          1           0       -2.481685   -0.238167    1.577151
     16          1           0       -2.622130   -1.732876    0.663763
     17          1           0       -1.241052   -0.754035   -1.166181
     18          1           0       -1.540237    1.567695   -1.105896
     19          1           0       -1.221485    1.698666    0.619115
     20          1           0        0.669534    2.282463   -1.285417
     21          1           0        0.783196    1.972111    1.547638
     22          1           0        2.150860    2.470797    0.559502
     23          1           0        2.053021   -0.025720    1.989058
     24          1           0        3.169445    0.361093    0.677861
     25          1           0       -0.044331   -0.817063    1.626498
     26          1           0       -0.155705   -2.130747    0.469990
     27          1           0        2.024569    0.439698   -1.637529
     28          1           0        1.662768   -2.464534   -1.165767
     29          1           0        3.165626   -1.573769   -0.841633
     30          1           0        2.386330   -2.494826    0.456077
 ---------------------------------------------------------------------

 SCF Done:  E(UB3LYP) =  -447.417378711     A.U. after   29 cycles

 The electronic state is 2-A.
 Alpha  occ. eigenvalues --  -14.18197 -10.09428 -10.08365 -10.06078 -10.05965
 Alpha  occ. eigenvalues --  -10.05786 -10.05397 -10.05342 -10.05184 -10.05167
 Alpha  occ. eigenvalues --  -10.05158  -0.82016  -0.70249  -0.66765  -0.64627
 Alpha  occ. eigenvalues --   -0.62976  -0.58464  -0.53232  -0.52767  -0.47149
 Alpha  occ. eigenvalues --   -0.45031  -0.42921  -0.38761  -0.36765  -0.34715
 Alpha  occ. eigenvalues --   -0.34162  -0.33266  -0.31576  -0.30423  -0.29932
 Alpha  occ. eigenvalues --   -0.29542  -0.27872  -0.26384  -0.25571  -0.24626
 Alpha  occ. eigenvalues --   -0.24132  -0.23135  -0.22367  -0.20696  -0.20333
 Alpha  occ. eigenvalues --   -0.19731  -0.19331  -0.12552   0.04693
 Alpha virt. eigenvalues --    0.06639   0.07427   0.08087   0.09021   0.09211
 Alpha virt. eigenvalues --    0.09828   0.10347   0.10513   0.11309   0.12161
 Alpha virt. eigenvalues --    0.12428   0.12563   0.13105   0.13922   0.14123

  Beta  occ. eigenvalues --  -14.18175 -10.09431 -10.08351 -10.06062 -10.05960
  Beta  occ. eigenvalues --  -10.05763 -10.05380 -10.05314 -10.05161 -10.05155
  Beta  occ. eigenvalues --  -10.05137  -0.81980  -0.70224  -0.66734  -0.64578
  Beta  occ. eigenvalues --   -0.62941  -0.58416  -0.53178  -0.52714  -0.47094
  Beta  occ. eigenvalues --   -0.44978  -0.42862  -0.38700  -0.36737  -0.34687
  Beta  occ. eigenvalues --   -0.34132  -0.33228  -0.31544  -0.30388  -0.29899
  Beta  occ. eigenvalues --   -0.29511  -0.27826  -0.26345  -0.25538  -0.24594
  Beta  occ. eigenvalues --   -0.24103  -0.23099  -0.22331  -0.20668  -0.20297
  Beta  occ. eigenvalues --   -0.19699  -0.19296  -0.12524
  Beta virt. eigenvalues --    0.06816   0.07562   0.08192   0.08573   0.09632
  Beta virt. eigenvalues --    0.09793   0.10220   0.10737   0.10921   0.11895
  Beta virt. eigenvalues --    0.12531   0.12729   0.12963   0.13310   0.14268

 Mulliken charges and spin densities:
               1          2
     1  C    0.961316  -1.618605
     2  C   -0.811367   0.523189
     3  C   -0.519280   0.941881
     4  C    1.330050  -2.236811
     5  C   -1.188973   1.648855
     6  C    0.829096  -1.479503
     7  C    0.087673  -0.700691
     8  C   -1.713379   2.176143
     9  C    1.014491  -1.745840
    10  N    0.039395  -0.144236
    11  C    1.680212  -2.113562
    12  H   -0.113624   0.263627
    13  H   -0.262218   0.401876
    14  H   -0.066610   0.197248
    15  H   -0.005271   0.122323
    16  H   -0.178846   0.306666
    17  H    0.107069   0.119222
    18  H    0.245568  -0.108729
    19  H   -0.149552   0.305507
    20  H   -0.880025   1.118413
    21  H    0.040169   0.066768
    22  H   -0.539780   0.710089
    23  H   -0.098737   0.241881
    24  H   -0.342183   0.503907
    25  H   -0.069157   0.270926
    26  H    0.029381   0.117614
    27  H    0.030865   0.228074
    28  H   -0.016531   0.171897
    29  H   -0.344451   0.476867
    30  H   -0.095299   0.235006
 Sum of Mulliken charges =  -1.00000   1.00000

 Dipole moment (field-independent basis, Debye):
    X=             -2.1538    Y=             -1.9416    Z=              1.0530  Tot=              3.0850
 Quadrupole moment (field-independent basis, Debye-Ang):
   XX=           -140.5175   YY=           -113.6095   ZZ=           -104.7760
   XY=             -5.9251   XZ=              3.2946   YZ=              2.5440

 Summary of Natural Population Analysis:

                                       Natural Population
                Natural  -----------------------------------------------
    Atom  No    Charge         Core      Valence    Rydberg      Total
 -----------------------------------------------------------------------
      C    1   -0.28303      0.99967     2.27915    0.00422     3.28303
      C    2   -0.18442      0.99962     2.17583    0.00897     3.18442
      C    3   -0.11108      0.99958     2.10138    0.01012     3.11108
      C    4   -0.18804      0.99959     2.17914    0.00931     3.18804
      C    5   -0.01405      0.99961     2.00008    0.01436     3.01405
      C    6   -0.20022      0.99963     2.19216    0.00844     3.20022
      C    7   -0.19585      0.99958     2.18714    0.00913     3.19585
      C    8    0.05587      0.99958     1.92934    0.01522     2.94413
      C    9   -0.18667      0.99956     2.17737    0.00974     3.18667
      N   10   -0.34423      0.99974     2.83327    0.01122     3.84423
      C   11   -0.28390      0.99960     2.27724    0.00705     3.28390
      H   12    0.09709      0.00000     0.40180    0.00111     0.40291
      H   13    0.09660      0.00000     0.40237    0.00102     0.40340
      H   14    0.09488      0.00000     0.40395    0.00117     0.40512
      H   15    0.09175      0.00000     0.40705    0.00120     0.40825
      H   16    0.09404      0.00000     0.40486    0.00110     0.40596
      H   17    0.09982      0.00000     0.39805    0.00213     0.40018
      H   18    0.10040      0.00000     0.39829    0.00131     0.39960
      H   19    0.09344      0.00000     0.40526    0.00130     0.40656
      H   20    0.09809      0.00000     0.40027    0.00164     0.40191
      H   21    0.09586      0.00000     0.40282    0.00132     0.40414
      H   22    0.10245      0.00000     0.39547    0.00208     0.39755
      H   23    0.09865      0.00000     0.40022    0.00113     0.40135
      H   24    0.09884      0.00000     0.39910    0.00207     0.40116
      H   25    0.09546      0.00000     0.40306    0.00148     0.40454
      H   26    0.10003      0.00000     0.39876    0.00121     0.39997
      H   27    0.17595      0.00000     0.32049    0.00356     0.32405
      H   28    0.10183      0.00000     0.39719    0.00097     0.39817
      H   29    0.10017      0.00000     0.39863    0.00120     0.39983
      H   30    0.10027      0.00000     0.39873    0.00101     0.39973
 =======================================================================
   * Total *    0.00000     10.99576    31.86846    0.13578    43.00000

 Normal termination of Gaussian 16 at Tue Dec  8 19:42:09 2020.
