 Gaussian 16, Revision A.03,

 -----------------------------------------------------------
 # opt freq B3LYP/6-31G(d) empiricaldispersion=gd3bj scf=xqc
 -----------------------------------------------------------

 -------------------------------
 CID_63738832_JID_10707_neutraal
 -------------------------------
 Symbolic Z-matrix:
 Charge =  0 Multiplicity = 1

 SCF Done:  E(RB3LYP) =  -1168.82067612     A.U. after   20 cycles
 SCF Done:  E(RB3LYP) =  -1168.98599766     A.U. after   26 cycles
 SCF Done:  E(RB3LYP) =  -1169.02189645     A.U. after   29 cycles
 SCF Done:  E(RB3LYP) =  -1169.31306378     A.U. after   23 cycles
 SCF Done:  E(RB3LYP) =  -1169.30283800     A.U. after   20 cycles
 SCF Done:  E(RB3LYP) =  -1169.40741375     A.U. after   19 cycles
 SCF Done:  E(RB3LYP) =  -1169.51899220     A.U. after   18 cycles
 SCF Done:  E(RB3LYP) =  -1169.61472736     A.U. after   18 cycles
 SCF Done:  E(RB3LYP) =  -1169.73351996     A.U. after   17 cycles
 SCF Done:  E(RB3LYP) =  -1169.81856812     A.U. after   17 cycles
 SCF Done:  E(RB3LYP) =  -1170.10012379     A.U. after    8 cycles
 SCF Done:  E(RB3LYP) =  -1170.10012414     A.U. after    8 cycles
 SCF Done:  E(RB3LYP) =  -1170.10012466     A.U. after    8 cycles
 SCF Done:  E(RB3LYP) =  -1170.10012440     A.U. after    7 cycles
 SCF Done:  E(RB3LYP) =  -1170.10012466     A.U. after    7 cycles
 SCF Done:  E(RB3LYP) =  -1170.10012478     A.U. after    7 cycles
 Optimization completed.
    -- Stationary point found.
 Normal termination of Gaussian 16 at Sat Dec 12 17:21:09 2020.

 --------------------------------------------------------------------
 #N Geom=AllCheck Guess=TCheck SCRF=Check GenChk RB3LYP/6-31G(d) Freq
 --------------------------------------------------------------------

 Structure from the checkpoint file:  "JID_10707.chk"
 -------------------------------
 CID_63738832_JID_10707_neutraal
 -------------------------------
 Charge =  0 Multiplicity = 1

 SCF Done:  E(RB3LYP) =  -1170.10012478     A.U. after    1 cycles

  Exact polarizability: 252.091  14.384 194.517   8.178   2.843 141.278
 Approx polarizability: 380.067  34.780 323.244  24.204  21.583 262.517

                      1                      2                      3
                      A                      A                      A
 Frequencies --     87.0892               106.6659               123.4668
 Red. masses --      4.6538                 4.8482                 3.4061
 Frc consts  --      0.0208                 0.0325                 0.0306
 IR Inten    --      0.2137                 0.9854                 0.2361

                      4                      5                      6
                      A                      A                      A
 Frequencies --    140.8696               161.6302               208.5909
 Red. masses --      3.8669                 3.5031                 4.0406
 Frc consts  --      0.0452                 0.0539                 0.1036
 IR Inten    --      0.5933                 1.0789                 0.4571

                      7                      8                      9
                      A                      A                      A
 Frequencies --    227.1733               237.7113               255.6484
 Red. masses --      3.6541                 4.5399                 3.6371
 Frc consts  --      0.1111                 0.1511                 0.1401
 IR Inten    --      0.9186                 1.3466                 0.6267

                     10                     11                     12
                      A                      A                      A
 Frequencies --    275.4281               291.9031               323.3842
 Red. masses --      4.1180                 3.7315                 1.8385
 Frc consts  --      0.1841                 0.1873                 0.1133
 IR Inten    --      0.6165                 6.4489                35.6844

                     13                     14                     15
                      A                      A                      A
 Frequencies --    346.9968               362.5935               386.0494
 Red. masses --      3.5099                 2.1783                 4.0184
 Frc consts  --      0.2490                 0.1687                 0.3528
 IR Inten    --      5.6321                51.6683                 5.4053

                     16                     17                     18
                      A                      A                      A
 Frequencies --    402.0175               417.7104               428.3505
 Red. masses --      2.9307                 2.6595                 3.0557
 Frc consts  --      0.2791                 0.2734                 0.3303
 IR Inten    --      1.2157                 8.2432                 2.0730

                     19                     20                     21
                      A                      A                      A
 Frequencies --    439.6796               467.7129               503.9933
 Red. masses --      2.9226                 3.3142                 5.7710
 Frc consts  --      0.3329                 0.4272                 0.8637
 IR Inten    --      1.4343                 0.4097                 0.9196

                     22                     23                     24
                      A                      A                      A
 Frequencies --    523.5697               530.9050               553.8604
 Red. masses --      5.1264                 3.6982                 3.8927
 Frc consts  --      0.8280                 0.6142                 0.7036
 IR Inten    --      2.5920                 7.0433                 6.1481

                     25                     26                     27
                      A                      A                      A
 Frequencies --    588.7390               609.3726               617.0203
 Red. masses --      5.1198                 3.5310                 4.0470
 Frc consts  --      1.0456                 0.7725                 0.9078
 IR Inten    --      3.5049                 0.1581                 0.3956

                     28                     29                     30
                      A                      A                      A
 Frequencies --    642.4021               683.8826               695.2803
 Red. masses --      4.4489                 3.5544                 1.9697
 Frc consts  --      1.0817                 0.9795                 0.5610
 IR Inten    --      2.3951                 7.4324                32.6250

                     31                     32                     33
                      A                      A                      A
 Frequencies --    715.0688               724.3198               752.8754
 Red. masses --      4.1861                 3.5360                 2.7850
 Frc consts  --      1.2611                 1.0930                 0.9301
 IR Inten    --     22.4900                13.9489                 0.7070

                     34                     35                     36
                      A                      A                      A
 Frequencies --    769.5278               793.3134               801.9024
 Red. masses --      1.7039                 1.4869                 2.9500
 Frc consts  --      0.5945                 0.5514                 1.1177
 IR Inten    --      1.7801                 8.9492                 7.8674

                     37                     38                     39
                      A                      A                      A
 Frequencies --    815.4656               841.4211               852.6774
 Red. masses --      2.7620                 1.8988                 2.9700
 Frc consts  --      1.0821                 0.7920                 1.2723
 IR Inten    --      9.5769                12.9604                 7.5808

                     40                     41                     42
                      A                      A                      A
 Frequencies --    874.4380               887.3695               913.1382
 Red. masses --      2.2982                 1.6215                 2.2144
 Frc consts  --      1.0354                 0.7523                 1.0879
 IR Inten    --     12.0329                34.5280                15.6240

                     43                     44                     45
                      A                      A                      A
 Frequencies --    923.7403               940.2484               953.1003
 Red. masses --      3.1710                 3.1704                 2.8577
 Frc consts  --      1.5942                 1.6514                 1.5295
 IR Inten    --     13.6988                 2.4194                 4.4495

                     46                     47                     48
                      A                      A                      A
 Frequencies --    978.3552               985.7416               990.1721
 Red. masses --      1.4223                 2.5594                 1.4353
 Frc consts  --      0.8021                 1.4652                 0.8291
 IR Inten    --      2.6976                 6.8767                 0.7743

                     49                     50                     51
                      A                      A                      A
 Frequencies --    990.9157              1006.2075              1026.5274
 Red. masses --      2.8070                 3.3208                 3.1397
 Frc consts  --      1.6239                 1.9809                 1.9493
 IR Inten    --      0.2683                 4.7123                12.9424

                     52                     53                     54
                      A                      A                      A
 Frequencies --   1040.3555              1053.9687              1071.4594
 Red. masses --      3.5397                 4.1963                 2.8903
 Frc consts  --      2.2572                 2.7465                 1.9550
 IR Inten    --      4.5471               113.6174                 6.3202

                     55                     56                     57
                      A                      A                      A
 Frequencies --   1071.8725              1111.3816              1131.0160
 Red. masses --      2.4588                 3.3666                 2.4111
 Frc consts  --      1.6644                 2.4500                 1.8172
 IR Inten    --     21.8169                 4.1858                 8.7098

                     58                     59                     60
                      A                      A                      A
 Frequencies --   1143.0089              1154.7105              1188.9256
 Red. masses --      2.2397                 3.4884                 1.2660
 Frc consts  --      1.7240                 2.7405                 1.0544
 IR Inten    --      3.0927                 5.4213                 0.7199

                     61                     62                     63
                      A                      A                      A
 Frequencies --   1193.0742              1212.2150              1228.6982
 Red. masses --      1.2321                 1.2996                 1.2145
 Frc consts  --      1.0333                 1.1252                 1.0803
 IR Inten    --      1.8015                24.2099                 6.7103

                     64                     65                     66
                      A                      A                      A
 Frequencies --   1242.2428              1247.5897              1261.9130
 Red. masses --      1.3404                 1.2783                 1.1331
 Frc consts  --      1.2187                 1.1723                 1.0631
 IR Inten    --      2.1455                 2.0200                 0.8454

                     67                     68                     69
                      A                      A                      A
 Frequencies --   1280.4623              1316.7685              1319.6989
 Red. masses --      1.1207                 1.3051                 1.4963
 Frc consts  --      1.0826                 1.3333                 1.5354
 IR Inten    --      4.5500                 2.4850                 6.1694

                     70                     71                     72
                      A                      A                      A
 Frequencies --   1330.7593              1335.4904              1340.1260
 Red. masses --      1.5099                 1.3726                 1.3470
 Frc consts  --      1.5755                 1.4424                 1.4253
 IR Inten    --      0.9021                 0.8321                 4.8143

                     73                     74                     75
                      A                      A                      A
 Frequencies --   1358.0418              1370.9926              1395.4510
 Red. masses --      1.4957                 1.4679                 1.3913
 Frc consts  --      1.6252                 1.6256                 1.5963
 IR Inten    --      6.2327                 1.5210                 7.5770

                     76                     77                     78
                      A                      A                      A
 Frequencies --   1402.1824              1406.0807              1409.4575
 Red. masses --      1.6065                 1.3424                 1.5513
 Frc consts  --      1.8609                 1.5637                 1.8157
 IR Inten    --      0.5333                 4.8349                 3.7455

                     79                     80                     81
                      A                      A                      A
 Frequencies --   1423.3237              1425.1291              1457.9946
 Red. masses --      1.3341                 1.3315                 1.1925
 Frc consts  --      1.5924                 1.5933                 1.4935
 IR Inten    --      2.4621                 5.3077                37.2664

                     82                     83                     84
                      A                      A                      A
 Frequencies --   1474.3370              1498.9042              1508.6573
 Red. masses --      1.6179                 1.0854                 1.0828
 Frc consts  --      2.0721                 1.4368                 1.4521
 IR Inten    --      4.7098                 1.3829                 2.7802

                     85                     86                     87
                      A                      A                      A
 Frequencies --   1547.5880              1622.9107              1667.9090
 Red. masses --      1.0796                 8.0038                 8.6137
 Frc consts  --      1.5234                12.4203                14.1184
 IR Inten    --      6.1911                12.2946                 0.5455

                     88                     89                     90
                      A                      A                      A
 Frequencies --   1681.7215              1697.6250              1719.5866
 Red. masses --      7.9704                 7.5860                 5.2902
 Frc consts  --     13.2813                12.8809                 9.2167
 IR Inten    --      4.2664                14.4653                 0.0452

                     91                     92                     93
                      A                      A                      A
 Frequencies --   2997.8532              3028.3091              3034.1571
 Red. masses --      1.0692                 1.0770                 1.0600
 Frc consts  --      5.6616                 5.8194                 5.7497
 IR Inten    --     31.6465                41.4627                41.5205

                     94                     95                     96
                      A                      A                      A
 Frequencies --   3063.7431              3067.5055              3113.9605
 Red. masses --      1.0920                 1.1026                 1.0880
 Frc consts  --      6.0394                 6.1125                 6.2158
 IR Inten    --     19.7107                12.6227                17.2055

                     97                     98                     99
                      A                      A                      A
 Frequencies --   3114.5991              3116.6081              3146.9718
 Red. masses --      1.0866                 1.0868                 1.0867
 Frc consts  --      6.2106                 6.2197                 6.3410
 IR Inten    --     26.4579                20.0620                18.7005

                    100                    101                    102
                      A                      A                      A
 Frequencies --   3151.9785              3163.4873              3176.0119
 Red. masses --      1.0837                 1.0859                 1.0929
 Frc consts  --      6.3436                 6.4031                 6.4951
 IR Inten    --      1.1234                 1.9604                42.2871

                    103                    104                    105
                      A                      A                      A
 Frequencies --   3178.2403              3182.8337              3188.7065
 Red. masses --      1.0843                 1.0902                 1.0958
 Frc consts  --      6.4530                 6.5073                 6.5648
 IR Inten    --      8.5147                11.5311                53.7332

                    106                    107                    108
                      A                      A                      A
 Frequencies --   3216.0756              3237.6516              3713.7985
 Red. masses --      1.0872                 1.0938                 1.0657
 Frc consts  --      6.6252                 6.7555                 8.6602
 IR Inten    --     14.3297                 4.7133                 6.8166

 - Thermochemistry -
 -------------------
 Temperature   298.150 Kelvin.  Pressure   1.00000 Atm.
 Atom     1 has atomic number  6 and mass  12.00000

 Molecular mass:   282.10784 amu.
 Principal axes and moments of inertia in atomic units:
                           1         2         3
     Eigenvalues --  3614.603645982.235928277.89563
           X            0.99953  -0.03063   0.00142
           Y            0.03064   0.99948  -0.01043
           Z           -0.00110   0.01047   0.99994
 This molecule is an asymmetric top.
 Rotational symmetry number  1.
 Warning -- assumption of classical behavior for rotation
           may cause significant error
 Rotational temperatures (Kelvin)      0.02396     0.01448     0.01046
 Rotational constants (GHZ):           0.49929     0.30168     0.21802
 Zero-point vibrational energy     833871.0 (Joules/Mol)
                                  199.29995 (Kcal/Mol)
 Warning -- explicit consideration of  27 degrees of freedom as
           vibrations may cause significant error
 Vibrational temperatures:    125.30   153.47   177.64   202.68   232.55
          (Kelvin)            300.12   326.85   342.01   367.82   396.28
                              419.98   465.28   499.25   521.69   555.44
                              578.41   600.99   616.30   632.60   672.93
                              725.13   753.30   763.85   796.88   847.06
                              876.75   887.75   924.27   983.95  1000.35
                             1028.82  1042.13  1083.22  1107.18  1141.40
                             1153.76  1173.27  1210.62  1226.81  1258.12
                             1276.73  1313.80  1329.06  1352.81  1371.30
                             1407.63  1418.26  1424.64  1425.71  1447.71
                             1476.94  1496.84  1516.43  1541.59  1542.19
                             1599.03  1627.28  1644.53  1661.37  1710.60
                             1716.57  1744.11  1767.82  1787.31  1795.00
                             1815.61  1842.30  1894.54  1898.75  1914.67
                             1921.47  1928.14  1953.92  1972.55  2007.74
                             2017.43  2023.04  2027.89  2047.85  2050.44
                             2097.73  2121.24  2156.59  2170.62  2226.63
                             2335.01  2399.75  2419.62  2442.50  2474.10
                             4313.24  4357.06  4365.48  4408.04  4413.46
                             4480.29  4481.21  4484.10  4527.79  4534.99
                             4551.55  4569.57  4572.78  4579.39  4587.84
                             4627.22  4658.26  5343.33

 Zero-point correction=                           0.317605 (Hartree/Particle)
 Thermal correction to Energy=                    0.333073
 Thermal correction to Enthalpy=                  0.334018
 Thermal correction to Gibbs Free Energy=         0.276809
 Sum of electronic and zero-point Energies=          -1169.782520
 Sum of electronic and thermal Energies=             -1169.767051
 Sum of electronic and thermal Enthalpies=           -1169.766107
 Sum of electronic and thermal Free Energies=        -1169.823316

                     E (Thermal)             CV                S
                      KCal/Mol        Cal/Mol-Kelvin    Cal/Mol-Kelvin
 Total                  209.007             67.039            120.406
 Electronic               0.000              0.000              0.000
 Translational            0.889              2.981             42.809
 Rotational               0.889              2.981             33.548
 Vibrational            207.229             61.077             44.049
 Vibration     1          0.601              1.958              3.724
 Vibration     2          0.606              1.944              3.329
 Vibration     3          0.610              1.929              3.045
 Vibration     4          0.615              1.912              2.792
 Vibration     5          0.622              1.889              2.531
 Vibration     6          0.642              1.828              2.056
 Vibration     7          0.651              1.800              1.901
 Vibration     8          0.656              1.783              1.820
 Vibration     9          0.666              1.753              1.691
 Vibration    10          0.677              1.719              1.562
 Vibration    11          0.687              1.689              1.463
 Vibration    12          0.708              1.629              1.293
 Vibration    13          0.725              1.581              1.180
 Vibration    14          0.736              1.549              1.111
 Vibration    15          0.755              1.500              1.015
 Vibration    16          0.768              1.466              0.955
 Vibration    17          0.781              1.432              0.900
 Vibration    18          0.790              1.409              0.864
 Vibration    19          0.800              1.384              0.828
 Vibration    20          0.825              1.322              0.744
 Vibration    21          0.859              1.241              0.648
 Vibration    22          0.879              1.198              0.602
 Vibration    23          0.886              1.182              0.585
 Vibration    24          0.909              1.131              0.536
 Vibration    25          0.946              1.056              0.469
 Vibration    26          0.968              1.012              0.434
 Vibration    27          0.977              0.996              0.421

 Optimization completed.
    -- Stationary point found.
 Normal termination of Gaussian 16 at Sat Dec 12 17:45:30 2020.

 ----------------------------------------------------------------------
 # B3LYP/6-311++G(d,p) empiricaldispersion=gd3bj scf=xqc pop=npa geom=c
 heck
 ----------------------------------------------------------------------

 ---------------------------------------
 CID_63738832_JID_10707_Energie_neutraal
 ---------------------------------------
 Structure from the checkpoint file:  "JID_10707.chk"
 Charge =  0 Multiplicity = 1

 SCF Done:  E(RB3LYP) =  -1170.33086992     A.U. after   17 cycles
 Normal termination of Gaussian 16 at Sat Dec 12 17:55:53 2020.

 ----------------------------------------------------------------------
 # B3LYP/6-311++G(d,p) empiricaldispersion=gd3bj scf=xqc pop=npa geom=c
 heck
 ----------------------------------------------------------------------

 -------------------------------------
 CID_63738832_JID_10707_Energie_kation
 -------------------------------------
 Structure from the checkpoint file:  "JID_10707.chk"
 Charge =  1 Multiplicity = 2

 SCF Done:  E(UB3LYP) =  -1170.08632304     A.U. after   25 cycles
 Normal termination of Gaussian 16 at Sat Dec 12 18:16:31 2020.
 Gaussian 16:  ES64L-G16RevA.03 25-Dec-2016

 ----------------------------------------------------------------------
 # B3LYP/6-311++G(d,p) empiricaldispersion=gd3bj scf=xqc pop=npa geom=c
 heck
 ----------------------------------------------------------------------

 ------------------------------------
 CID_63738832_JID_10707_Energie_anion
 ------------------------------------
 Structure from the checkpoint file:  "JID_10707.chk"
 Charge = -1 Multiplicity = 2

                         Standard orientation:
 ---------------------------------------------------------------------
 Center     Atomic      Atomic             Coordinates (Angstroms)
 Number     Number       Type             X           Y           Z
 ---------------------------------------------------------------------
      1          6           0       -4.314997   -0.090090   -0.370574
      2          6           0       -3.606841    0.862559   -1.001420
      3          6           0       -2.129049    1.076249   -0.861844
      4          6           0       -1.302878   -0.416211    0.548095
      5          6           0       -2.504551   -1.234654    0.955395
      6          6           0       -3.781822   -1.088052    0.556585
      7          6           0       -0.044869   -0.877538    1.336323
      8          6           0        0.801507   -2.120054    0.952541
      9          6           0        1.676514   -2.257290   -0.324500
     10          6           0        2.787601   -1.207131   -0.677875
     11          6           0        2.427225    0.259311   -0.576177
     12          6           0        3.167369    1.207115    0.038152
     13         16           0        2.280541    2.699949    0.434485
     14          6           0        0.734493    1.826547    0.104530
     15          6           0       -0.421612    2.051261    0.747112
     16          6           0       -1.619073    1.149378    0.619803
     17          6           0       -1.284559   -0.220027   -1.037917
     18          6           0        0.134721   -0.061559   -1.451164
     19          6           0        1.040095    0.680257   -0.779340
     20          8           0        2.314707   -3.539240   -0.270297
     21          1           0       -5.385666   -0.141182   -0.556446
     22          1           0       -4.131662    1.540933   -1.670294
     23          1           0       -1.800779    1.913355   -1.480227
     24          1           0       -2.292988   -2.047973    1.647172
     25          1           0       -4.510751   -1.787652    0.960639
     26          1           0        0.634365   -0.040291    1.470434
     27          1           0       -0.415304   -1.089227    2.349514
     28          1           0        1.484352   -2.263122    1.805357
     29          1           0        0.164433   -3.013577    0.937954
     30          1           0        1.012255   -2.363207   -1.179701
     31          1           0        3.644275   -1.395740   -0.017855
     32          1           0        3.125069   -1.477813   -1.687176
     33          1           0        4.186832    1.105221    0.391635
     34          1           0       -0.505014    2.898569    1.422836
     35          1           0       -2.378826    1.418043    1.356249
     36          1           0       -1.775086   -1.011738   -1.607004
     37          1           0        0.513357   -0.819223   -2.126065
     38          1           0        2.869175   -3.551066    0.527258
 ---------------------------------------------------------------------

 SCF Done:  E(UB3LYP) =  -1170.34763478     A.U. after   29 cycles

 The electronic state is 2-A.
 Alpha  occ. eigenvalues --  -88.71930 -19.01974 -10.11208 -10.06295 -10.06158
 Alpha  occ. eigenvalues --  -10.06038 -10.05637 -10.05384 -10.05146 -10.05067
 Alpha  occ. eigenvalues --  -10.05031 -10.04986 -10.04966 -10.04722 -10.04536
 Alpha  occ. eigenvalues --  -10.04326 -10.04193 -10.02247 -10.02013 -10.00569
 Alpha  occ. eigenvalues --   -7.80506  -5.76844  -5.76529  -5.75963  -0.92103
 Alpha  occ. eigenvalues --   -0.75843  -0.72695  -0.67635  -0.67354  -0.64999
 Alpha  occ. eigenvalues --   -0.63130  -0.61639  -0.61129  -0.57414  -0.54078
 Alpha  occ. eigenvalues --   -0.52044  -0.50883  -0.48645  -0.47799  -0.46659
 Alpha  occ. eigenvalues --   -0.41691  -0.39155  -0.38673  -0.38301  -0.36868
 Alpha  occ. eigenvalues --   -0.35785  -0.35272  -0.34579  -0.32624  -0.32136
 Alpha  occ. eigenvalues --   -0.31510  -0.30682  -0.29242  -0.28516  -0.27880
 Alpha  occ. eigenvalues --   -0.27356  -0.26616  -0.26028  -0.25024  -0.24335
 Alpha  occ. eigenvalues --   -0.23464  -0.22394  -0.22108  -0.21339  -0.20526
 Alpha  occ. eigenvalues --   -0.19755  -0.19265  -0.17797  -0.17418  -0.16910
 Alpha  occ. eigenvalues --   -0.15818  -0.13130  -0.12319  -0.09871  -0.04826
 Alpha  occ. eigenvalues --    0.03466
 Alpha virt. eigenvalues --    0.06832   0.07433   0.07847   0.09161   0.09730
 Alpha virt. eigenvalues --    0.09798   0.10157   0.10672   0.11368   0.11750
 Alpha virt. eigenvalues --    0.11913   0.12397   0.12782   0.13115   0.14017

  Beta  occ. eigenvalues --  -88.71934 -19.01970 -10.11201 -10.06297 -10.06155
  Beta  occ. eigenvalues --  -10.05936 -10.05584 -10.05390 -10.05132 -10.05021
  Beta  occ. eigenvalues --  -10.04948 -10.04925 -10.04736 -10.04732 -10.04432
  Beta  occ. eigenvalues --  -10.04328 -10.04188 -10.02032 -10.01952 -10.00082
  Beta  occ. eigenvalues --   -7.80509  -5.76842  -5.76537  -5.75974  -0.92093
  Beta  occ. eigenvalues --   -0.75579  -0.72443  -0.67474  -0.67264  -0.64818
  Beta  occ. eigenvalues --   -0.62906  -0.61197  -0.60887  -0.57305  -0.53989
  Beta  occ. eigenvalues --   -0.51739  -0.50785  -0.48511  -0.47213  -0.46565
  Beta  occ. eigenvalues --   -0.41448  -0.39054  -0.38552  -0.38216  -0.36751
  Beta  occ. eigenvalues --   -0.35630  -0.35187  -0.34299  -0.32526  -0.32011
  Beta  occ. eigenvalues --   -0.31441  -0.30577  -0.29075  -0.28427  -0.27776
  Beta  occ. eigenvalues --   -0.27234  -0.26385  -0.25829  -0.24819  -0.24191
  Beta  occ. eigenvalues --   -0.23286  -0.22222  -0.21899  -0.21179  -0.20391
  Beta  occ. eigenvalues --   -0.19456  -0.19079  -0.17554  -0.17359  -0.16710
  Beta  occ. eigenvalues --   -0.15632  -0.12263  -0.11251  -0.09545  -0.03546
  Beta virt. eigenvalues --    0.07283   0.07437   0.07774   0.08851   0.09237
  Beta virt. eigenvalues --    0.09708   0.09759   0.10325   0.10650   0.11441
  Beta virt. eigenvalues --    0.11692   0.12025   0.12380   0.13042   0.13227

 Mulliken charges and spin densities:
               1          2
     1  C   -0.218769   0.003111
     2  C   -0.192538   0.020843
     3  C   -0.108114   0.076138
     4  C    0.592083   0.038727
     5  C   -0.246391   0.069353
     6  C   -0.268693   0.023303
     7  C   -0.181923  -0.016351
     8  C   -0.449618  -0.003099
     9  C   -0.306686   0.021538
    10  C   -0.657960  -0.008546
    11  C    0.655137  -0.018080
    12  C   -0.831401   0.211050
    13  S   -0.356741  -0.028816
    14  C    0.072506   0.021221
    15  C   -0.359168   0.223060
    16  C   -0.373806  -0.043707
    17  C   -0.356318  -0.059456
    18  C   -0.149612   0.393198
    19  C    0.013661  -0.050145
    20  O   -0.180312  -0.001674
    21  H    0.130538   0.002205
    22  H    0.107076   0.004334
    23  H    0.183108   0.072512
    24  H    0.109215   0.005037
    25  H    0.127967   0.001100
    26  H    0.286926   0.010476
    27  H    0.139697   0.004784
    28  H    0.101960   0.000595
    29  H    0.182695   0.002368
    30  H    0.230928  -0.012756
    31  H    0.130614  -0.001026
    32  H    0.166151   0.014821
    33  H    0.193884  -0.014242
    34  H    0.127347  -0.014465
    35  H    0.220560  -0.001014
    36  H    0.178865   0.052457
    37  H    0.064100  -0.002261
    38  H    0.223032   0.003410
 Sum of Mulliken charges =  -1.00000   1.00000

 Dipole moment (field-independent basis, Debye):
    X=             -0.3903    Y=             -2.4612    Z=              2.3091  Tot=              3.3973
 Quadrupole moment (field-independent basis, Debye-Ang):
   XX=           -160.8255   YY=           -159.7527   ZZ=           -142.9670
   XY=             -6.4591   XZ=              4.1654   YZ=             -4.2297

 Summary of Natural Population Analysis:

                                       Natural Population
                Natural  -----------------------------------------------
    Atom  No    Charge         Core      Valence    Rydberg      Total
 -----------------------------------------------------------------------
      C    1   -0.12781      0.99954     2.11900    0.00926     3.12781
      C    2   -0.05312      0.99954     2.04362    0.00996     3.05312
      C    3   -0.11447      0.99956     2.10115    0.01375     3.11447
      C    4   -0.02805      0.99954     2.01471    0.01380     3.02805
      C    5   -0.05989      0.99951     2.05053    0.00985     3.05989
      C    6   -0.12073      0.99954     2.11188    0.00931     3.12073
      C    7   -0.19565      0.99957     2.18508    0.01100     3.19565
      C    8   -0.19199      0.99960     2.18468    0.00771     3.19199
      C    9    0.06991      0.99957     1.91951    0.01101     2.93009
      C   10   -0.20004      0.99958     2.19217    0.00829     3.20004
      C   11   -0.04691      0.99940     2.03412    0.01339     3.04691
      C   12   -0.12594      0.99939     2.11572    0.01082     3.12594
      S   13    0.10765      4.99951     2.87161    0.02123     7.89235
      C   14   -0.06522      0.99935     2.05227    0.01360     3.06522
      C   15   -0.07562      0.99943     2.06449    0.01170     3.07562
      C   16   -0.09915      0.99956     2.08687    0.01272     3.09915
      C   17   -0.10679      0.99954     2.09452    0.01272     3.10679
      C   18    0.02757      0.99945     1.96142    0.01155     2.97243
      C   19   -0.05993      0.99940     2.04785    0.01268     3.05993
      O   20   -0.37372      0.99990     3.36705    0.00677     4.37372
      H   21    0.09043      0.00000     0.40790    0.00167     0.40957
      H   22    0.09133      0.00000     0.40768    0.00098     0.40867
      H   23    0.10261      0.00000     0.39592    0.00147     0.39739
      H   24    0.09090      0.00000     0.40782    0.00127     0.40910
      H   25    0.09026      0.00000     0.40790    0.00184     0.40974
      H   26    0.11619      0.00000     0.38238    0.00143     0.38381
      H   27    0.09403      0.00000     0.40482    0.00115     0.40597
      H   28    0.08755      0.00000     0.41124    0.00121     0.41245
      H   29    0.09725      0.00000     0.40165    0.00110     0.40275
      H   30    0.09048      0.00000     0.40774    0.00178     0.40952
      H   31    0.09424      0.00000     0.40456    0.00121     0.40576
      H   32    0.10103      0.00000     0.39683    0.00214     0.39897
      H   33    0.09393      0.00000     0.40527    0.00080     0.40607
      H   34    0.09504      0.00000     0.40401    0.00095     0.40496
      H   35    0.09978      0.00000     0.39913    0.00108     0.40022
      H   36    0.09984      0.00000     0.39889    0.00126     0.40016
      H   37    0.08582      0.00000     0.41288    0.00131     0.41418
      H   38    0.21915      0.00000     0.27827    0.00257     0.28085
 =======================================================================
   * Total *    0.00000     23.99048    50.75318    0.25635    75.00000

 Normal termination of Gaussian 16 at Sat Dec 12 18:39:36 2020.
