 Gaussian 16, Revision A.03,

 -----------------------------------------------------------
 # opt freq B3LYP/6-31G(d) empiricaldispersion=gd3bj scf=xqc
 -----------------------------------------------------------

 ------------------------------
 CID_79325760_JID_6329_neutraal
 ------------------------------
 Symbolic Z-matrix:
 Charge =  0 Multiplicity = 1

 SCF Done:  E(RB3LYP) =  -1387.68085499     A.U. after   14 cycles
 SCF Done:  E(RB3LYP) =  -1386.03447290     A.U. after   21 cycles
 SCF Done:  E(RB3LYP) =  -1387.68286934     A.U. after   14 cycles
 SCF Done:  E(RB3LYP) =  -1387.68583535     A.U. after   12 cycles
 SCF Done:  E(RB3LYP) =  -1387.68454403     A.U. after   14 cycles
 SCF Done:  E(RB3LYP) =  -1387.68633025     A.U. after   12 cycles
 SCF Done:  E(RB3LYP) =  -1387.68542599     A.U. after   13 cycles
 SCF Done:  E(RB3LYP) =  -1387.68632411     A.U. after   12 cycles
 SCF Done:  E(RB3LYP) =  -1387.68652651     A.U. after    7 cycles
 SCF Done:  E(RB3LYP) =  -1387.68660361     A.U. after   11 cycles
 SCF Done:  E(RB3LYP) =  -1387.68716318     A.U. after    8 cycles
 SCF Done:  E(RB3LYP) =  -1387.68716328     A.U. after    8 cycles
 SCF Done:  E(RB3LYP) =  -1387.68716342     A.U. after    8 cycles
 SCF Done:  E(RB3LYP) =  -1387.68716357     A.U. after    8 cycles
 SCF Done:  E(RB3LYP) =  -1387.68716371     A.U. after    7 cycles
 Optimization completed.
    -- Stationary point found.
 Normal termination of Gaussian 16 at Thu Dec 10 22:33:38 2020.

 --------------------------------------------------------------------
 #N Geom=AllCheck Guess=TCheck SCRF=Check GenChk RB3LYP/6-31G(d) Freq
 --------------------------------------------------------------------

 Structure from the checkpoint file:  "JID_6329.chk"
 ------------------------------
 CID_79325760_JID_6329_neutraal
 ------------------------------
 Charge =  0 Multiplicity = 1

 SCF Done:  E(RB3LYP) =  -1387.68716371     A.U. after    1 cycles

  Exact polarizability: 200.333  19.383 123.603   3.194 -23.937 135.089
 Approx polarizability: 321.073  39.318 190.712   3.411 -61.880 250.695

                      1                      2                      3
                      A                      A                      A
 Frequencies --     17.6078                42.0353                53.0952
 Red. masses --      5.7637                 5.5570                 6.1103
 Frc consts  --      0.0011                 0.0058                 0.0101
 IR Inten    --      0.7952                 1.1779                 2.1991

                      4                      5                      6
                      A                      A                      A
 Frequencies --     65.4525                85.9441                99.3715
 Red. masses --      1.0246                 5.1119                 4.5202
 Frc consts  --      0.0026                 0.0222                 0.0263
 IR Inten    --      0.0241                 0.7014                 0.1173

                      7                      8                      9
                      A                      A                      A
 Frequencies --    140.0366               164.6182               188.0743
 Red. masses --      3.6775                 4.2510                 4.8241
 Frc consts  --      0.0425                 0.0679                 0.1005
 IR Inten    --      1.8561                 4.0462                 5.0586

                     10                     11                     12
                      A                      A                      A
 Frequencies --    207.9290               267.3802               276.7988
 Red. masses --      4.4995                 3.6130                 2.8405
 Frc consts  --      0.1146                 0.1522                 0.1282
 IR Inten    --      3.8045                 1.6312                 3.5491

                     13                     14                     15
                      A                      A                      A
 Frequencies --    318.0114               344.3516               388.4356
 Red. masses --      4.9957                 6.0935                 2.6698
 Frc consts  --      0.2977                 0.4257                 0.2373
 IR Inten    --      1.3079                 0.2185                 0.4159

                     16                     17                     18
                      A                      A                      A
 Frequencies --    411.5631               416.7659               421.0646
 Red. masses --      5.3931                 3.2260                 4.3221
 Frc consts  --      0.5382                 0.3301                 0.4515
 IR Inten    --      0.2359                 0.7841                 3.6459

                     19                     20                     21
                      A                      A                      A
 Frequencies --    468.4075               484.1837               495.8950
 Red. masses --      7.7527                 3.4415                 1.4059
 Frc consts  --      1.0022                 0.4754                 0.2037
 IR Inten    --      0.3618                 7.2219               102.6247

                     22                     23                     24
                      A                      A                      A
 Frequencies --    618.4893               633.0705               676.9115
 Red. masses --      3.5370                 6.2446                 2.9569
 Frc consts  --      0.7972                 1.4745                 0.7983
 IR Inten    --      0.0313                 0.1611                21.5699

                     25                     26                     27
                      A                      A                      A
 Frequencies --    692.6576               703.7890               715.8377
 Red. masses --      6.2384                 2.6139                 5.9923
 Frc consts  --      1.7635                 0.7628                 1.8092
 IR Inten    --      3.4813                12.1087                 8.4791

                     28                     29                     30
                      A                      A                      A
 Frequencies --    717.6255               734.0530               750.4166
 Red. masses --      5.3684                 9.2586                 1.4625
 Frc consts  --      1.6289                 2.9394                 0.4852
 IR Inten    --      7.2236                 7.5619                49.2758

                     31                     32                     33
                      A                      A                      A
 Frequencies --    847.0632               889.6201               901.5723
 Red. masses --      1.2561                 1.8938                 1.3831
 Frc consts  --      0.5310                 0.8831                 0.6624
 IR Inten    --      0.7476                12.6618                 3.7631

                     34                     35                     36
                      A                      A                      A
 Frequencies --    907.7802               962.5633               983.0642
 Red. masses --      1.8176                 1.3451                 1.2320
 Frc consts  --      0.8825                 0.7343                 0.7015
 IR Inten    --     19.6165                 0.1715                 0.3905

                     37                     38                     39
                      A                      A                      A
 Frequencies --   1004.0986              1014.9237              1018.1081
 Red. masses --      2.9665                 2.2920                 6.0590
 Frc consts  --      1.7622                 1.3910                 3.7003
 IR Inten    --      5.3133                 0.2595                 0.7004

                     40                     41                     42
                      A                      A                      A
 Frequencies --   1018.7328              1056.7252              1076.8490
 Red. masses --      4.3802                 2.9184                 1.5809
 Frc consts  --      2.6783                 1.9201                 1.0801
 IR Inten    --      0.7530                 7.1518                10.4435

                     43                     44                     45
                      A                      A                      A
 Frequencies --   1084.9190              1115.8654              1117.9300
 Red. masses --      4.8223                 1.9780                 2.1891
 Frc consts  --      3.3443                 1.4511                 1.6120
 IR Inten    --      9.7336                12.1486                 9.0049

                     46                     47                     48
                      A                      A                      A
 Frequencies --   1150.9234              1192.8633              1197.2620
 Red. masses --      4.5993                 1.0864                 1.0562
 Frc consts  --      3.5895                 0.9108                 0.8920
 IR Inten    --     13.6695                 1.3139                 4.6277

                     49                     50                     51
                      A                      A                      A
 Frequencies --   1223.9208              1252.7920              1278.2723
 Red. masses --      1.1476                 1.1558                 2.6765
 Frc consts  --      1.0129                 1.0688                 2.5767
 IR Inten    --      1.3119                 7.3988                46.3172

                     52                     53                     54
                      A                      A                      A
 Frequencies --   1319.9539              1330.8553              1342.3479
 Red. masses --      1.4633                 1.7449                 2.0773
 Frc consts  --      1.5021                 1.8209                 2.2054
 IR Inten    --     16.3216                20.8651                 2.6508

                     55                     56                     57
                      A                      A                      A
 Frequencies --   1348.3103              1371.1035              1419.4033
 Red. masses --      2.0639                 1.6471                 2.6371
 Frc consts  --      2.2106                 1.8244                 3.1304
 IR Inten    --     40.8073                 0.1967                 6.6411

                     58                     59                     60
                      A                      A                      A
 Frequencies --   1443.5804              1474.9859              1481.3939
 Red. masses --      1.4810                 2.9756                 1.1334
 Frc consts  --      1.8184                 3.8142                 1.4655
 IR Inten    --      0.4416                64.1499                 5.5101

                     61                     62                     63
                      A                      A                      A
 Frequencies --   1485.3552              1492.4862              1505.6072
 Red. masses --      1.3602                 1.5188                 1.0626
 Frc consts  --      1.7681                 1.9933                 1.4192
 IR Inten    --      9.6101                14.6588                 4.9277

                     64                     65                     66
                      A                      A                      A
 Frequencies --   1533.1565              1534.8783              1598.2278
 Red. masses --      1.7467                 1.4451                 4.7296
 Frc consts  --      2.4190                 2.0058                 7.1180
 IR Inten    --     13.3585                16.6990                56.8822

                     67                     68                     69
                      A                      A                      A
 Frequencies --   1634.8541              1649.8247              3062.9096
 Red. masses --      5.3235                 5.3469                 1.0374
 Frc consts  --      8.3831                 8.5749                 5.7338
 IR Inten    --      1.5527                33.5177                16.6651

                     70                     71                     72
                      A                      A                      A
 Frequencies --   3071.3111              3087.2623              3125.1838
 Red. masses --      1.0651                 1.0641                 1.1013
 Frc consts  --      5.9195                 5.9753                 6.3375
 IR Inten    --      7.2951                27.4784                 7.7668

                     73                     74                     75
                      A                      A                      A
 Frequencies --   3129.8779              3158.8166              3159.3867
 Red. masses --      1.1011                 1.1012                 1.1007
 Frc consts  --      6.3551                 6.4738                 6.4735
 IR Inten    --      4.1710                 3.4914                 0.7273

                     76                     77                     78
                      A                      A                      A
 Frequencies --   3178.4042              3190.5414              3198.5249
 Red. masses --      1.0850                 1.0884                 1.0928
 Frc consts  --      6.4581                 6.5278                 6.5872
 IR Inten    --      2.3817                 4.9053                19.8539

                     79                     80                     81
                      A                      A                      A
 Frequencies --   3208.8136              3230.8447              3659.6861
 Red. masses --      1.0958                 1.0922                 1.0816
 Frc consts  --      6.6479                 6.7168                 8.5353
 IR Inten    --     21.8842                 4.0258                58.5870

 - Thermochemistry -
 -------------------
 Temperature   298.150 Kelvin.  Pressure   1.00000 Atm.
 Atom     1 has atomic number  6 and mass  12.00000

 Molecular mass:   251.05509 amu.
 Principal axes and moments of inertia in atomic units:
                           1         2         3
     Eigenvalues --  3279.611313914.235635407.50327
           X            0.99459   0.10365   0.00731
           Y           -0.10378   0.99439   0.02036
           Z           -0.00516  -0.02100   0.99977
 This molecule is an asymmetric top.
 Rotational symmetry number  1.
 Warning -- assumption of classical behavior for rotation
           may cause significant error
 Rotational temperatures (Kelvin)      0.02641     0.02213     0.01602
 Rotational constants (GHZ):           0.55029     0.46107     0.33375
 Zero-point vibrational energy     600068.4 (Joules/Mol)
                                  143.41980 (Kcal/Mol)
 Warning -- explicit consideration of  22 degrees of freedom as
           vibrations may cause significant error
 Vibrational temperatures:     25.33    60.48    76.39    94.17   123.65
          (Kelvin)            142.97   201.48   236.85   270.60   299.16
                              384.70   398.25   457.55   495.45   558.87
                              592.15   599.63   605.82   673.93   696.63
                              713.48   889.87   910.85   973.92   996.58
                             1012.60  1029.93  1032.50  1056.14  1079.68
                             1218.74  1279.96  1297.16  1306.09  1384.91
                             1414.41  1444.67  1460.25  1464.83  1465.73
                             1520.39  1549.35  1560.96  1605.48  1608.45
                             1655.92  1716.26  1722.59  1760.95  1802.49
                             1839.15  1899.12  1914.80  1931.34  1939.92
                             1972.71  2042.20  2076.99  2122.18  2131.40
                             2137.09  2147.35  2166.23  2205.87  2208.35
                             2299.49  2352.19  2373.73  4406.84  4418.93
                             4441.88  4496.44  4503.20  4544.83  4545.65
                             4573.01  4590.48  4601.96  4616.77  4648.46
                             5265.47

 Zero-point correction=                           0.228554 (Hartree/Particle)
 Thermal correction to Energy=                    0.244097
 Thermal correction to Enthalpy=                  0.245041
 Thermal correction to Gibbs Free Energy=         0.183627
 Sum of electronic and zero-point Energies=          -1387.458610
 Sum of electronic and thermal Energies=             -1387.443067
 Sum of electronic and thermal Enthalpies=           -1387.442122
 Sum of electronic and thermal Free Energies=        -1387.503537

                     E (Thermal)             CV                S
                      KCal/Mol        Cal/Mol-Kelvin    Cal/Mol-Kelvin
 Total                  153.173             57.663            129.257
 Electronic               0.000              0.000              0.000
 Translational            0.889              2.981             42.462
 Rotational               0.889              2.981             32.607
 Vibrational            151.396             51.702             54.188
 Vibration     1          0.593              1.986              6.887
 Vibration     2          0.595              1.980              5.161
 Vibration     3          0.596              1.976              4.699
 Vibration     4          0.597              1.971              4.286
 Vibration     5          0.601              1.959              3.750
 Vibration     6          0.604              1.950              3.467
 Vibration     7          0.615              1.913              2.803
 Vibration     8          0.623              1.886              2.496
 Vibration     9          0.633              1.856              2.247
 Vibration    10          0.641              1.829              2.062
 Vibration    11          0.672              1.733              1.613
 Vibration    12          0.678              1.716              1.553
 Vibration    13          0.704              1.639              1.320
 Vibration    14          0.723              1.587              1.192
 Vibration    15          0.757              1.495              1.006
 Vibration    16          0.776              1.445              0.921
 Vibration    17          0.780              1.434              0.903
 Vibration    18          0.784              1.424              0.888
 Vibration    19          0.826              1.320              0.742
 Vibration    20          0.840              1.285              0.699
 Vibration    21          0.851              1.259              0.668
 Vibration    22          0.978              0.993              0.419

 Optimization completed.
    -- Stationary point found.
 Normal termination of Gaussian 16 at Thu Dec 10 22:44:38 2020.

 ----------------------------------------------------------------------
 # B3LYP/6-311++G(d,p) empiricaldispersion=gd3bj scf=xqc pop=npa geom=c
 heck
 ----------------------------------------------------------------------

 --------------------------------------
 CID_79325760_JID_6329_Energie_neutraal
 --------------------------------------
 Structure from the checkpoint file:  "JID_6329.chk"
 Charge =  0 Multiplicity = 1

 SCF Done:  E(RB3LYP) =  -1387.89812153     A.U. after   16 cycles
 Normal termination of Gaussian 16 at Thu Dec 10 22:49:01 2020.

 ----------------------------------------------------------------------
 # B3LYP/6-311++G(d,p) empiricaldispersion=gd3bj scf=xqc pop=npa geom=c
 heck
 ----------------------------------------------------------------------

 ------------------------------------
 CID_79325760_JID_6329_Energie_kation
 ------------------------------------
 Structure from the checkpoint file:  "JID_6329.chk"
 Charge =  1 Multiplicity = 2

 SCF Done:  E(UB3LYP) =  -1387.62144315     A.U. after   24 cycles
 Normal termination of Gaussian 16 at Thu Dec 10 22:58:05 2020.
 Gaussian 16:  ES64L-G16RevA.03 25-Dec-2016

 ----------------------------------------------------------------------
 # B3LYP/6-311++G(d,p) empiricaldispersion=gd3bj scf=xqc pop=npa geom=c
 heck
 ----------------------------------------------------------------------

 -----------------------------------
 CID_79325760_JID_6329_Energie_anion
 -----------------------------------
 Structure from the checkpoint file:  "JID_6329.chk"
 Charge = -1 Multiplicity = 2

                         Standard orientation:
 ---------------------------------------------------------------------
 Center     Atomic      Atomic             Coordinates (Angstroms)
 Number     Number       Type             X           Y           Z
 ---------------------------------------------------------------------
      1          6           0        1.918825    1.711177    2.035740
      2          6           0        0.861914    1.807063    0.991140
      3          7           0       -0.369826    1.319417    1.065858
      4          6           0       -0.891444    1.593075   -0.165232
      5          7           0       -0.079442    2.233356   -0.997301
      6          7           0        1.033668    2.377414   -0.222860
      7         16           0       -2.524145    1.143985   -0.661508
      8          6           0       -2.830094   -0.272186    0.466898
      9          6           0       -2.352857   -1.651033   -0.028511
     10         16           0       -0.850094   -2.341016    0.760277
     11          6           0        0.549891   -1.613118   -0.065994
     12          6           0        1.787204   -1.766296    0.580334
     13          6           0        2.952937   -1.279710   -0.005897
     14          6           0        2.901749   -0.617751   -1.235529
     15          6           0        1.672484   -0.464132   -1.874899
     16          6           0        0.502361   -0.965510   -1.303987
     17          1           0        2.474812    0.774195    1.918413
     18          1           0        2.625784    2.544414    1.971330
     19          1           0        1.456431    1.713157    3.025107
     20          1           0        1.866887    2.782872   -0.623055
     21          1           0       -2.394901   -0.024510    1.436352
     22          1           0       -3.919395   -0.286082    0.572280
     23          1           0       -3.106655   -2.400363    0.236746
     24          1           0       -2.258217   -1.679580   -1.116701
     25          1           0        1.830329   -2.264942    1.544754
     26          1           0        3.903514   -1.414068    0.503851
     27          1           0        3.810123   -0.232724   -1.690085
     28          1           0        1.609982    0.058643   -2.824754
     29          1           0       -0.439488   -0.819299   -1.818801
 ---------------------------------------------------------------------

 SCF Done:  E(UB3LYP) =  -1387.88873254     A.U. after   33 cycles
 SCF Done:  E(UB3LYP) =  -1387.88873254     a.u. after    1 cycles

 The electronic state is 2-A.
 Alpha  occ. eigenvalues --  -88.76438 -88.76019 -14.29251 -14.24083 -14.20816
 Alpha  occ. eigenvalues --  -10.15363 -10.14958 -10.12365 -10.11900 -10.11660
 Alpha  occ. eigenvalues --  -10.08476 -10.08308 -10.08277 -10.08246 -10.08235
 Alpha  occ. eigenvalues --  -10.07671  -7.85067  -7.84639  -5.81465  -5.81076
 Alpha  occ. eigenvalues --   -5.81048  -5.80631  -5.80448  -5.80026  -0.98084
 Alpha  occ. eigenvalues --   -0.80384  -0.77338  -0.75804  -0.72917  -0.68974
 Alpha  occ. eigenvalues --   -0.65760  -0.64901  -0.63507  -0.59084  -0.53691
 Alpha  occ. eigenvalues --   -0.52646  -0.51481  -0.48877  -0.47968  -0.44055
 Alpha  occ. eigenvalues --   -0.42577  -0.38439  -0.37853  -0.37318  -0.36394
 Alpha  occ. eigenvalues --   -0.35973  -0.34168  -0.33243  -0.32411  -0.32017
 Alpha  occ. eigenvalues --   -0.31705  -0.30829  -0.28428  -0.28062  -0.26453
 Alpha  occ. eigenvalues --   -0.25421  -0.24873  -0.23718  -0.22696  -0.21777
 Alpha  occ. eigenvalues --   -0.19890  -0.18930  -0.18196  -0.16367  -0.13182
 Alpha  occ. eigenvalues --   -0.12179   0.04089
 Alpha virt. eigenvalues --    0.05404   0.06966   0.07326   0.07439   0.07920
 Alpha virt. eigenvalues --    0.08739   0.08915   0.09214   0.09671   0.09971
 Alpha virt. eigenvalues --    0.10367   0.11094   0.11586   0.11706   0.12115

  Beta  occ. eigenvalues --  -88.76437 -88.76016 -14.29196 -14.24079 -14.20808
  Beta  occ. eigenvalues --  -10.15363 -10.14959 -10.12348 -10.11884 -10.11654
  Beta  occ. eigenvalues --  -10.08474 -10.08303 -10.08257 -10.08240 -10.08188
  Beta  occ. eigenvalues --  -10.07651  -7.85066  -7.84637  -5.81464  -5.81074
  Beta  occ. eigenvalues --   -5.81047  -5.80626  -5.80447  -5.80023  -0.98055
  Beta  occ. eigenvalues --   -0.80344  -0.77318  -0.75776  -0.72887  -0.68946
  Beta  occ. eigenvalues --   -0.65737  -0.64867  -0.63441  -0.59055  -0.53648
  Beta  occ. eigenvalues --   -0.52567  -0.51454  -0.48845  -0.47943  -0.43989
  Beta  occ. eigenvalues --   -0.42537  -0.38406  -0.37824  -0.37287  -0.36367
  Beta  occ. eigenvalues --   -0.35938  -0.34127  -0.33221  -0.32380  -0.31980
  Beta  occ. eigenvalues --   -0.31671  -0.30778  -0.28403  -0.28034  -0.26426
  Beta  occ. eigenvalues --   -0.25397  -0.24852  -0.23697  -0.22673  -0.21751
  Beta  occ. eigenvalues --   -0.19870  -0.18922  -0.18181  -0.16350  -0.13166
  Beta  occ. eigenvalues --   -0.12160
  Beta virt. eigenvalues --    0.06074   0.07024   0.07047   0.07404   0.08260
  Beta virt. eigenvalues --    0.08546   0.08930   0.09215   0.09544   0.09865
  Beta virt. eigenvalues --    0.10221   0.10696   0.11294   0.11788   0.11971

 Mulliken charges and spin densities:
               1          2
     1  C    2.212255  -2.926920
     2  C   -1.142304   1.609493
     3  N    0.034316   0.000027
     4  C   -0.466751   0.113686
     5  N   -0.011303   0.008288
     6  N    0.132297  -0.149501
     7  S   -0.233731   0.104582
     8  C   -0.793757   0.261952
     9  C    0.609008  -0.783612
    10  S    0.275419  -0.581538
    11  C    0.238255   0.204715
    12  C   -0.529820   0.562521
    13  C    0.304962  -0.553125
    14  C    0.652509  -1.183107
    15  C   -0.204242  -0.094454
    16  C   -0.366247   0.100743
    17  H    0.198235   0.001926
    18  H   -0.665830   0.832049
    19  H   -0.005676   0.179213
    20  H   -0.269590   0.605662
    21  H    0.275545  -0.044145
    22  H   -0.227064   0.435309
    23  H   -0.044717   0.260508
    24  H    0.035163   0.171233
    25  H    0.037174   0.143017
    26  H   -0.516542   0.702118
    27  H   -0.684042   0.860673
    28  H   -0.036726   0.230849
    29  H    0.193204  -0.072162
 Sum of Mulliken charges =  -1.00000   1.00000

 Dipole moment (field-independent basis, Debye):
    X=             -6.4804    Y=             -3.6295    Z=              0.1488  Tot=              7.4290
 Quadrupole moment (field-independent basis, Debye-Ang):
   XX=           -185.7037   YY=           -160.3054   ZZ=           -140.0762
   XY=            -13.3502   XZ=              1.4006   YZ=              1.4265

 Summary of Natural Population Analysis:

                                       Natural Population
                Natural  -----------------------------------------------
    Atom  No    Charge         Core      Valence    Rydberg      Total
 -----------------------------------------------------------------------
      C    1   -0.30756      0.99962     2.30174    0.00620     3.30756
      C    2    0.20542      0.99963     1.77750    0.01745     2.79458
      N    3   -0.28104      0.99965     2.77188    0.00950     3.78104
      C    4    0.09035      0.99959     1.88671    0.02336     2.90965
      N    5   -0.17185      0.99968     2.65961    0.01257     3.67185
      N    6   -0.17454      0.99964     2.66054    0.01436     3.67454
      S    7    0.12320      4.99951     2.85917    0.01812     7.87680
      C    8   -0.26273      0.99956     2.25008    0.01309     3.26273
      C    9   -0.26319      0.99956     2.25097    0.01265     3.26319
      S   10    0.12988      4.99952     2.85264    0.01796     7.87012
      C   11   -0.08506      0.99940     2.07290    0.01276     3.08506
      C   12   -0.11401      0.99950     2.10364    0.01088     3.11401
      C   13   -0.09713      0.99956     2.08643    0.01114     3.09713
      C   14   -0.11044      0.99955     2.09892    0.01197     3.11044
      C   15   -0.08925      0.99955     2.07911    0.01059     3.08925
      C   16   -0.11978      0.99949     2.10970    0.01059     3.11978
      H   17    0.11731      0.00000     0.38095    0.00174     0.38269
      H   18    0.11309      0.00000     0.38425    0.00266     0.38691
      H   19    0.11165      0.00000     0.38734    0.00101     0.38835
      H   20    0.21166      0.00000     0.27912    0.00922     0.28834
      H   21    0.12393      0.00000     0.37420    0.00187     0.37607
      H   22    0.10722      0.00000     0.39140    0.00138     0.39278
      H   23    0.11136      0.00000     0.38717    0.00147     0.38864
      H   24    0.10800      0.00000     0.39056    0.00144     0.39200
      H   25    0.10311      0.00000     0.39582    0.00107     0.39689
      H   26    0.10444      0.00000     0.39414    0.00141     0.39556
      H   27    0.10644      0.00000     0.39142    0.00214     0.39356
      H   28    0.10400      0.00000     0.39497    0.00103     0.39600
      H   29    0.10552      0.00000     0.39265    0.00184     0.39448
 =======================================================================
   * Total *    0.00000     23.99299    41.76555    0.24147    66.00000

 Normal termination of Gaussian 16 at Thu Dec 10 23:10:45 2020.
