 Gaussian 16, Revision A.03,

 -----------------------------------------------------------
 # opt freq B3LYP/6-31G(d) empiricaldispersion=gd3bj scf=xqc
 -----------------------------------------------------------

 -------------------------------
 CID_141318271_JID_5263_neutraal
 -------------------------------
 Symbolic Z-matrix:
 Charge =  0 Multiplicity = 1

 SCF Done:  E(RB3LYP) =  -634.198746390     A.U. after   14 cycles
 SCF Done:  E(RB3LYP) =  -634.202867046     A.U. after   12 cycles
 SCF Done:  E(RB3LYP) =  -634.202907626     A.U. after   13 cycles
 SCF Done:  E(RB3LYP) =  -634.203659662     A.U. after   12 cycles
 SCF Done:  E(RB3LYP) =  -634.204107312     A.U. after   11 cycles
 SCF Done:  E(RB3LYP) =  -634.204198151     A.U. after   10 cycles
 SCF Done:  E(RB3LYP) =  -634.204227888     A.U. after   10 cycles
 SCF Done:  E(RB3LYP) =  -634.204244285     A.U. after   10 cycles
 SCF Done:  E(RB3LYP) =  -634.204256976     A.U. after    9 cycles
 SCF Done:  E(RB3LYP) =  -634.204267439     A.U. after   10 cycles
 SCF Done:  E(RB3LYP) =  -634.204271372     A.U. after    9 cycles
 SCF Done:  E(RB3LYP) =  -634.204272606     A.U. after    8 cycles
 SCF Done:  E(RB3LYP) =  -634.204272769     A.U. after    7 cycles
 Optimization completed.
    -- Stationary point found.
 Normal termination of Gaussian 16 at Thu Dec 10 15:21:07 2020.

 --------------------------------------------------------------------
 #N Geom=AllCheck Guess=TCheck SCRF=Check GenChk RB3LYP/6-31G(d) Freq
 --------------------------------------------------------------------

 Structure from the checkpoint file:  "JID_5263.chk"
 -------------------------------
 CID_141318271_JID_5263_neutraal
 -------------------------------
 Charge =  0 Multiplicity = 1

 SCF Done:  E(RB3LYP) =  -634.204272769     A.U. after    1 cycles

  Exact polarizability: 148.653  -5.107 135.506  -0.247   1.872 123.888
 Approx polarizability: 200.459 -18.023 196.639  -0.751   3.575 181.604

                      1                      2                      3
                      A                      A                      A
 Frequencies --     32.4517                52.5428                71.4321
 Red. masses --      3.4725                 4.7196                 3.3895
 Frc consts  --      0.0022                 0.0077                 0.0102
 IR Inten    --      1.9758                 0.7330                 0.3746

                      4                      5                      6
                      A                      A                      A
 Frequencies --    119.4578               147.8051               165.2218
 Red. masses --      3.4115                 3.0194                 3.4942
 Frc consts  --      0.0287                 0.0389                 0.0562
 IR Inten    --      2.0530                 1.2140                 2.9026

                      7                      8                      9
                      A                      A                      A
 Frequencies --    204.1700               235.6118               242.8610
 Red. masses --      2.7180                 2.2598                 1.5285
 Frc consts  --      0.0668                 0.0739                 0.0531
 IR Inten    --      1.6156                 3.0771                 2.1999

                     10                     11                     12
                      A                      A                      A
 Frequencies --    274.4985               291.7794               305.1445
 Red. masses --      2.6986                 2.4367                 2.3645
 Frc consts  --      0.1198                 0.1222                 0.1297
 IR Inten    --      1.0906                 0.7130                 1.4019

                     13                     14                     15
                      A                      A                      A
 Frequencies --    331.0443               342.1081               386.3762
 Red. masses --      3.2988                 2.8472                 2.8075
 Frc consts  --      0.2130                 0.1963                 0.2469
 IR Inten    --      0.9044                 4.8652                 2.3448

                     16                     17                     18
                      A                      A                      A
 Frequencies --    406.2585               458.3481               476.4756
 Red. masses --      1.9840                 2.7915                 2.4068
 Frc consts  --      0.1929                 0.3455                 0.3219
 IR Inten    --      2.4388                 3.9749                 0.2369

                     19                     20                     21
                      A                      A                      A
 Frequencies --    520.4127               524.7373               548.6805
 Red. masses --      4.1528                 1.6370                 5.3193
 Frc consts  --      0.6627                 0.2656                 0.9435
 IR Inten    --      3.8193                 7.9545                 1.4170

                     22                     23                     24
                      A                      A                      A
 Frequencies --    580.3526               634.5523               727.9610
 Red. masses --      3.2132                 2.8604                 2.5998
 Frc consts  --      0.6376                 0.6786                 0.8117
 IR Inten    --      1.8480                 6.5827                12.5621

                     25                     26                     27
                      A                      A                      A
 Frequencies --    749.6799               797.4960               811.2916
 Red. masses --      1.8843                 2.2333                 2.4121
 Frc consts  --      0.6239                 0.8369                 0.9354
 IR Inten    --     41.0009                 5.9443                 8.6021

                     28                     29                     30
                      A                      A                      A
 Frequencies --    848.9735               864.0756               870.1625
 Red. masses --      2.4682                 2.4299                 2.4776
 Frc consts  --      1.0482                 1.0689                 1.1053
 IR Inten    --      0.4498                18.5980                 3.3047

                     31                     32                     33
                      A                      A                      A
 Frequencies --    890.0608               920.7596               933.2041
 Red. masses --      2.9192                 1.4830                 2.2638
 Frc consts  --      1.3625                 0.7408                 1.1616
 IR Inten    --      1.5594                 1.8503                 1.4237

                     34                     35                     36
                      A                      A                      A
 Frequencies --    969.0771               979.1208               996.2569
 Red. masses --      2.1587                 2.0586                 2.6234
 Frc consts  --      1.1944                 1.1627                 1.5341
 IR Inten    --      6.5298                 4.7643                 1.0146

                     37                     38                     39
                      A                      A                      A
 Frequencies --   1013.3748              1033.3180              1049.3964
 Red. masses --      1.8587                 2.2048                 2.2734
 Frc consts  --      1.1246                 1.3871                 1.4751
 IR Inten    --     12.8888                 4.0589                17.2472

                     40                     41                     42
                      A                      A                      A
 Frequencies --   1062.5103              1079.9363              1089.5969
 Red. masses --      2.0664                 2.6548                 2.1845
 Frc consts  --      1.3745                 1.8242                 1.5281
 IR Inten    --     10.1317                 2.3470                 6.8870

                     43                     44                     45
                      A                      A                      A
 Frequencies --   1111.4578              1119.1768              1140.2569
 Red. masses --      1.9451                 1.8770                 1.6653
 Frc consts  --      1.4157                 1.3852                 1.2757
 IR Inten    --      5.6994                11.5977                18.5966

                     46                     47                     48
                      A                      A                      A
 Frequencies --   1156.5719              1174.3669              1200.8714
 Red. masses --      3.0187                 1.5359                 1.4577
 Frc consts  --      2.3791                 1.2480                 1.2386
 IR Inten    --     34.1855                 9.1186                 1.9915

                     49                     50                     51
                      A                      A                      A
 Frequencies --   1208.3462              1217.4579              1219.0191
 Red. masses --      1.9158                 1.5100                 1.2875
 Frc consts  --      1.6481                 1.3186                 1.1273
 IR Inten    --      9.5930                 7.0896                 3.0528

                     52                     53                     54
                      A                      A                      A
 Frequencies --   1239.8856              1272.5182              1284.7257
 Red. masses --      1.3087                 1.6528                 1.2599
 Frc consts  --      1.1853                 1.5769                 1.2252
 IR Inten    --      3.0137                19.2271                 2.8348

                     55                     56                     57
                      A                      A                      A
 Frequencies --   1301.5635              1311.0018              1328.2866
 Red. masses --      1.3308                 1.3495                 1.2502
 Frc consts  --      1.3283                 1.3666                 1.2996
 IR Inten    --      0.1975                 5.0945                 1.6795

                     58                     59                     60
                      A                      A                      A
 Frequencies --   1332.1824              1342.9018              1347.7990
 Red. masses --      1.2600                 1.3442                 1.2517
 Frc consts  --      1.3175                 1.4283                 1.3397
 IR Inten    --      2.3081                34.5444                 2.4941

                     61                     62                     63
                      A                      A                      A
 Frequencies --   1358.1550              1372.4995              1378.9925
 Red. masses --      1.3314                 1.3476                 1.5165
 Frc consts  --      1.4470                 1.4957                 1.6991
 IR Inten    --      0.8462                 4.3353                 0.5913

                     64                     65                     66
                      A                      A                      A
 Frequencies --   1388.3888              1401.8922              1405.6865
 Red. masses --      1.3079                 1.3513                 1.3856
 Frc consts  --      1.4855                 1.5647                 1.6132
 IR Inten    --     14.0106                 6.3849                11.6802

                     67                     68                     69
                      A                      A                      A
 Frequencies --   1421.0152              1446.8249              1455.8661
 Red. masses --      1.3354                 1.3637                 1.3783
 Frc consts  --      1.5888                 1.6819                 1.7212
 IR Inten    --     12.3657                14.5274                 5.0782

                     70                     71                     72
                      A                      A                      A
 Frequencies --   1493.9202              1499.1547              1507.3836
 Red. masses --      1.1923                 1.1004                 1.1337
 Frc consts  --      1.5678                 1.4571                 1.5177
 IR Inten    --      1.0249                 5.5597                 1.8722

                     73                     74                     75
                      A                      A                      A
 Frequencies --   1514.6877              1523.6543              1527.4787
 Red. masses --      1.0695                 1.2155                 1.0860
 Frc consts  --      1.4457                 1.6626                 1.4929
 IR Inten    --      7.0681                 3.9930                 0.5285

                     76                     77                     78
                      A                      A                      A
 Frequencies --   1530.0267              1531.3091              1536.6111
 Red. masses --      1.0810                 1.0860                 1.0692
 Frc consts  --      1.4909                 1.5004                 1.4875
 IR Inten    --     10.3475                 1.0346                 8.1617

                     79                     80                     81
                      A                      A                      A
 Frequencies --   1545.6084              1550.1232              2357.9022
 Red. masses --      1.0905                 1.0850                12.6371
 Frc consts  --      1.5349                 1.5361                41.3951
 IR Inten    --      3.8328                12.6223                27.1865

                     82                     83                     84
                      A                      A                      A
 Frequencies --   2914.7466              2923.3112              2941.0031
 Red. masses --      1.0738                 1.0736                 1.0635
 Frc consts  --      5.3751                 5.4058                 5.4200
 IR Inten    --     16.5287                95.6983                87.1976

                     85                     86                     87
                      A                      A                      A
 Frequencies --   2951.9384              2970.2821              3040.6021
 Red. masses --      1.0739                 1.0824                 1.0816
 Frc consts  --      5.5134                 5.6262                 5.8916
 IR Inten    --     77.5626               119.4464                17.1829

                     88                     89                     90
                      A                      A                      A
 Frequencies --   3049.7330              3058.9645              3068.1090
 Red. masses --      1.0676                 1.0660                 1.0725
 Frc consts  --      5.8503                 5.8771                 5.9481
 IR Inten    --      8.6916                28.5832                37.4951

                     91                     92                     93
                      A                      A                      A
 Frequencies --   3069.4075              3080.1710              3085.0556
 Red. masses --      1.0840                 1.0871                 1.0855
 Frc consts  --      6.0168                 6.0768                 6.0870
 IR Inten    --     33.9262                56.8288                60.0204

                     94                     95                     96
                      A                      A                      A
 Frequencies --   3086.3940              3090.2347              3094.8710
 Red. masses --      1.0778                 1.0651                 1.0996
 Frc consts  --      6.0490                 5.9928                 6.2057
 IR Inten    --      7.5101                28.2853                29.7003

                     97                     98                     99
                      A                      A                      A
 Frequencies --   3103.7611              3106.1151              3134.1495
 Red. masses --      1.0994                 1.0842                 1.1051
 Frc consts  --      6.2400                 6.1628                 6.3956
 IR Inten    --     36.5798                 5.2782                35.8073

                    100                    101                    102
                      A                      A                      A
 Frequencies --   3153.7349              3177.8369              3514.2796
 Red. masses --      1.0965                 1.0929                 1.0750
 Frc consts  --      6.4258                 6.5029                 7.8221
 IR Inten    --     22.5798                 2.6486                 0.1327

 - Thermochemistry -
 -------------------
 Temperature   298.150 Kelvin.  Pressure   1.00000 Atm.
 Atom     1 has atomic number  6 and mass  12.00000

 Molecular mass:   207.17355 amu.
 Principal axes and moments of inertia in atomic units:
                           1         2         3
     Eigenvalues --  2151.691183963.410124419.65950
           X            0.99898   0.04334   0.01279
           Y           -0.04294   0.99863  -0.02983
           Z           -0.01407   0.02925   0.99947
 This molecule is an asymmetric top.
 Rotational symmetry number  1.
 Warning -- assumption of classical behavior for rotation
           may cause significant error
 Rotational temperatures (Kelvin)      0.04025     0.02185     0.01960
 Rotational constants (GHZ):           0.83875     0.45535     0.40834
 Zero-point vibrational energy     859569.8 (Joules/Mol)
                                  205.44211 (Kcal/Mol)
 Warning -- explicit consideration of  22 degrees of freedom as
           vibrations may cause significant error
 Vibrational temperatures:     46.69    75.60   102.77   171.87   212.66
          (Kelvin)            237.72   293.76   338.99   349.42   394.94
                              419.81   439.03   476.30   492.22   555.91
                              584.52   659.46   685.54   748.76   754.98
                              789.43   835.00   912.98  1047.37  1078.62
                             1147.42  1167.27  1221.48  1243.21  1251.97
                             1280.60  1324.77  1342.67  1394.29  1408.74
                             1433.39  1458.02  1486.71  1509.85  1528.72
                             1553.79  1567.69  1599.14  1610.25  1640.58
                             1664.05  1689.65  1727.79  1738.54  1751.65
                             1753.90  1783.92  1830.87  1848.43  1872.66
                             1886.24  1911.11  1916.71  1932.14  1939.18
                             1954.08  1974.72  1984.06  1997.58  2017.01
                             2022.47  2044.52  2081.66  2094.67  2149.42
                             2156.95  2168.79  2179.30  2192.20  2197.70
                             2201.37  2203.21  2210.84  2223.79  2230.28
                             3392.50  4193.67  4205.99  4231.45  4247.18
                             4273.57  4374.75  4387.89  4401.17  4414.32
                             4416.19  4431.68  4438.71  4440.63  4446.16
                             4452.83  4465.62  4469.01  4509.34  4537.52
                             4572.20  5056.26

 Zero-point correction=                           0.327393 (Hartree/Particle)
 Thermal correction to Energy=                    0.341708
 Thermal correction to Enthalpy=                  0.342653
 Thermal correction to Gibbs Free Energy=         0.286169
 Sum of electronic and zero-point Energies=           -633.876880
 Sum of electronic and thermal Energies=              -633.862564
 Sum of electronic and thermal Enthalpies=            -633.861620
 Sum of electronic and thermal Free Energies=         -633.918104

                     E (Thermal)             CV                S
                      KCal/Mol        Cal/Mol-Kelvin    Cal/Mol-Kelvin
 Total                  214.425             56.550            118.880
 Electronic               0.000              0.000              0.000
 Translational            0.889              2.981             41.889
 Rotational               0.889              2.981             32.000
 Vibrational            212.648             50.588             44.991
 Vibration     1          0.594              1.983              5.674
 Vibration     2          0.596              1.977              4.719
 Vibration     3          0.598              1.968              4.113
 Vibration     4          0.609              1.933              3.109
 Vibration     5          0.617              1.905              2.700
 Vibration     6          0.624              1.885              2.489
 Vibration     7          0.640              1.834              2.095
 Vibration     8          0.655              1.786              1.836
 Vibration     9          0.659              1.775              1.782
 Vibration    10          0.677              1.720              1.568
 Vibration    11          0.687              1.689              1.464
 Vibration    12          0.696              1.664              1.389
 Vibration    13          0.713              1.613              1.255
 Vibration    14          0.721              1.591              1.202
 Vibration    15          0.755              1.499              1.014
 Vibration    16          0.771              1.457              0.940
 Vibration    17          0.816              1.342              0.771
 Vibration    18          0.833              1.302              0.720
 Vibration    19          0.875              1.205              0.609
 Vibration    20          0.880              1.195              0.599
 Vibration    21          0.904              1.143              0.547
 Vibration    22          0.937              1.074              0.485

 Optimization completed.
    -- Stationary point found.
 Normal termination of Gaussian 16 at Thu Dec 10 15:35:35 2020.

 ----------------------------------------------------------------------
 # B3LYP/6-311++G(d,p) empiricaldispersion=gd3bj scf=xqc pop=npa geom=c
 heck
 ----------------------------------------------------------------------

 ---------------------------------------
 CID_141318271_JID_5263_Energie_neutraal
 ---------------------------------------
 Structure from the checkpoint file:  "JID_5263.chk"
 Charge =  0 Multiplicity = 1

 SCF Done:  E(RB3LYP) =  -634.378875748     A.U. after   15 cycles
 Normal termination of Gaussian 16 at Thu Dec 10 15:44:53 2020.

 ----------------------------------------------------------------------
 # B3LYP/6-311++G(d,p) empiricaldispersion=gd3bj scf=xqc pop=npa geom=c
 heck
 ----------------------------------------------------------------------

 -------------------------------------
 CID_141318271_JID_5263_Energie_kation
 -------------------------------------
 Structure from the checkpoint file:  "JID_5263.chk"
 Charge =  1 Multiplicity = 2

 SCF Done:  E(UB3LYP) =  -634.093564178     A.U. after   21 cycles
 Normal termination of Gaussian 16 at Thu Dec 10 15:59:12 2020.
 Gaussian 16:  ES64L-G16RevA.03 25-Dec-2016

 ----------------------------------------------------------------------
 # B3LYP/6-311++G(d,p) empiricaldispersion=gd3bj scf=xqc pop=npa geom=c
 heck
 ----------------------------------------------------------------------

 ------------------------------------
 CID_141318271_JID_5263_Energie_anion
 ------------------------------------
 Structure from the checkpoint file:  "JID_5263.chk"
 Charge = -1 Multiplicity = 2

                         Standard orientation:
 ---------------------------------------------------------------------
 Center     Atomic      Atomic             Coordinates (Angstroms)
 Number     Number       Type             X           Y           Z
 ---------------------------------------------------------------------
      1          6           0       -0.629831    2.201136   -1.470414
      2          7           0       -0.788011    0.897488   -0.833452
      3          6           0       -1.816302    0.129438   -1.538136
      4          6           0       -1.868381   -1.365880   -1.203975
      5          6           0       -2.642720   -1.719841    0.063123
      6          7           0       -2.028710   -1.157117    1.260985
      7          6           0       -2.065517    0.303755    1.305044
      8          6           0       -0.872296    1.020154    0.644930
      9          6           0        0.465510    0.671381    1.349934
     10          6           0        1.623830    1.654412    1.053298
     11          6           0        2.412341    1.078950   -0.148244
     12          6           0        1.930357   -0.400253   -0.293128
     13          6           0        1.090367   -0.687289    0.977381
     14          6           0        3.023388   -1.351841   -0.481169
     15          7           0        3.894899   -2.107392   -0.620674
     16          1           0       -0.376896    2.069984   -2.528113
     17          1           0       -1.544214    2.823371   -1.413395
     18          1           0        0.182039    2.759109   -1.000809
     19          1           0       -2.827682    0.567957   -1.424215
     20          1           0       -1.572001    0.222685   -2.602366
     21          1           0       -0.847360   -1.758264   -1.143803
     22          1           0       -2.359820   -1.875133   -2.042715
     23          1           0       -2.670078   -2.809486    0.178277
     24          1           0       -3.689769   -1.378072   -0.064912
     25          1           0       -2.504203   -1.526189    2.079777
     26          1           0       -2.050732    0.604416    2.358108
     27          1           0       -3.003986    0.705564    0.880450
     28          1           0       -1.065311    2.081375    0.876394
     29          1           0        0.247125    0.690696    2.425194
     30          1           0        2.280771    1.689567    1.929680
     31          1           0        1.278863    2.679721    0.882544
     32          1           0        3.490595    1.129228    0.024687
     33          1           0        2.208827    1.621982   -1.074323
     34          1           0        1.266254   -0.460420   -1.158532
     35          1           0        0.347239   -1.469506    0.831340
     36          1           0        1.758618   -1.004174    1.786857
 ---------------------------------------------------------------------

 SCF Done:  E(UB3LYP) =  -634.370337561     A.U. after   31 cycles

 The electronic state is 2-A.
 Alpha  occ. eigenvalues --  -14.21520 -14.20924 -14.19632 -10.11486 -10.11361
 Alpha  occ. eigenvalues --  -10.10264 -10.09781 -10.09408 -10.09254 -10.09243
 Alpha  occ. eigenvalues --  -10.08763 -10.07811 -10.07710 -10.07444 -10.07102
 Alpha  occ. eigenvalues --   -0.83522  -0.81364  -0.80138  -0.75518  -0.69086
 Alpha  occ. eigenvalues --   -0.65843  -0.63724  -0.61448  -0.58581  -0.56038
 Alpha  occ. eigenvalues --   -0.51442  -0.49294  -0.48123  -0.44282  -0.43060
 Alpha  occ. eigenvalues --   -0.41580  -0.40619  -0.38530  -0.36181  -0.35943
 Alpha  occ. eigenvalues --   -0.35085  -0.33879  -0.32561  -0.32155  -0.31735
 Alpha  occ. eigenvalues --   -0.30641  -0.29455  -0.28929  -0.27921  -0.27208
 Alpha  occ. eigenvalues --   -0.26872  -0.25864  -0.25272  -0.24873  -0.23872
 Alpha  occ. eigenvalues --   -0.23693  -0.22728  -0.22558  -0.22129  -0.21876
 Alpha  occ. eigenvalues --   -0.13583  -0.11558   0.03965
 Alpha virt. eigenvalues --    0.06282   0.06354   0.07303   0.08354   0.08517
 Alpha virt. eigenvalues --    0.08991   0.09553   0.09769   0.10985   0.11128
 Alpha virt. eigenvalues --    0.11266   0.11857   0.12024   0.12306   0.12443

  Beta  occ. eigenvalues --  -14.21518 -14.20915 -14.19602 -10.11485 -10.11359
  Beta  occ. eigenvalues --  -10.10255 -10.09763 -10.09382 -10.09231 -10.09211
  Beta  occ. eigenvalues --  -10.08756 -10.07801 -10.07694 -10.07439 -10.07092
  Beta  occ. eigenvalues --   -0.83495  -0.81360  -0.80095  -0.75504  -0.69053
  Beta  occ. eigenvalues --   -0.65814  -0.63695  -0.61410  -0.58537  -0.55970
  Beta  occ. eigenvalues --   -0.51420  -0.49238  -0.48067  -0.44237  -0.43040
  Beta  occ. eigenvalues --   -0.41484  -0.40599  -0.38501  -0.36145  -0.35887
  Beta  occ. eigenvalues --   -0.35039  -0.33857  -0.32525  -0.32124  -0.31699
  Beta  occ. eigenvalues --   -0.30604  -0.29439  -0.28913  -0.27887  -0.27179
  Beta  occ. eigenvalues --   -0.26852  -0.25838  -0.25255  -0.24847  -0.23834
  Beta  occ. eigenvalues --   -0.23653  -0.22698  -0.22543  -0.22110  -0.21853
  Beta  occ. eigenvalues --   -0.13516  -0.11508
  Beta virt. eigenvalues --    0.06187   0.06994   0.07202   0.07818   0.08958
  Beta virt. eigenvalues --    0.09080   0.09337   0.09886   0.10046   0.11367
  Beta virt. eigenvalues --    0.11478   0.11625   0.11992   0.12132   0.12510

 Mulliken charges and spin densities:
               1          2
     1  C    0.468562  -0.704712
     2  N    0.057533   0.142957
     3  C    0.803007  -1.151560
     4  C   -1.533065   1.285660
     5  C    1.320549  -1.732834
     6  N   -0.634595   0.451365
     7  C    2.085016  -2.854078
     8  C   -1.326492   1.076228
     9  C    0.605574   0.178104
    10  C   -0.563825  -0.033962
    11  C   -0.081226  -0.427284
    12  C    0.596358   0.578165
    13  C   -0.136420  -0.672937
    14  C   -0.803275  -0.326142
    15  N   -0.274638   0.010281
    16  H   -0.152754   0.291639
    17  H   -0.229007   0.357768
    18  H    0.216771  -0.090516
    19  H    0.060048   0.069321
    20  H   -0.095737   0.249923
    21  H    0.157631  -0.028527
    22  H   -0.345395   0.525708
    23  H   -0.295670   0.448815
    24  H   -0.248913   0.380195
    25  H   -0.066215   0.355842
    26  H   -0.847332   1.034756
    27  H   -0.029770   0.162615
    28  H   -0.011983   0.204307
    29  H   -0.148447   0.394285
    30  H    0.004422   0.151278
    31  H   -0.296936   0.432566
    32  H    0.098366   0.107984
    33  H    0.089696   0.051436
    34  H    0.119995   0.106264
    35  H    0.366880  -0.144776
    36  H    0.071289   0.119867
 Sum of Mulliken charges =  -1.00000   1.00000

 Dipole moment (field-independent basis, Debye):
    X=              2.6815    Y=              1.7823    Z=             -2.3154  Tot=              3.9659
 Quadrupole moment (field-independent basis, Debye-Ang):
   XX=           -167.4344   YY=           -143.3128   ZZ=           -141.7956
   XY=              7.8051   XZ=              9.3249   YZ=             -2.6441

 Summary of Natural Population Analysis:

                                       Natural Population
                Natural  -----------------------------------------------
    Atom  No    Charge         Core      Valence    Rydberg      Total
 -----------------------------------------------------------------------
      C    1   -0.17128      0.99963     2.16357    0.00808     3.17128
      N    2   -0.30250      0.99971     2.78856    0.01424     3.80250
      C    3   -0.08238      0.99960     2.07189    0.01090     3.08238
      C    4   -0.19917      0.99961     2.19135    0.00821     3.19917
      C    5   -0.08216      0.99961     2.07108    0.01147     3.08216
      N    6   -0.34591      0.99973     2.83237    0.01381     3.84591
      C    7   -0.09333      0.99959     2.08070    0.01305     3.09333
      C    8    0.00053      0.99954     1.98386    0.01607     2.99947
      C    9   -0.11137      0.99956     2.09834    0.01347     3.11137
      C   10   -0.19087      0.99962     2.18301    0.00824     3.19087
      C   11   -0.18164      0.99962     2.17363    0.00838     3.18164
      C   12   -0.17459      0.99950     2.16717    0.00792     3.17459
      C   13   -0.18287      0.99959     2.17377    0.00951     3.18287
      C   14    0.17070      0.99965     1.81079    0.01886     2.82930
      N   15   -0.19858      0.99979     2.68810    0.01070     3.69858
      H   16    0.09371      0.00000     0.40527    0.00102     0.40629
      H   17    0.08346      0.00000     0.41534    0.00121     0.41654
      H   18    0.09498      0.00000     0.40392    0.00110     0.40502
      H   19    0.08223      0.00000     0.41614    0.00163     0.41777
      H   20    0.09692      0.00000     0.40184    0.00125     0.40308
      H   21    0.09831      0.00000     0.39990    0.00178     0.40169
      H   22    0.10105      0.00000     0.39796    0.00098     0.39895
      H   23    0.09590      0.00000     0.40294    0.00116     0.40410
      H   24    0.07737      0.00000     0.42080    0.00183     0.42263
      H   25    0.18143      0.00000     0.31407    0.00450     0.31857
      H   26    0.10390      0.00000     0.39332    0.00278     0.39610
      H   27    0.08486      0.00000     0.41305    0.00209     0.41514
      H   28    0.09366      0.00000     0.40397    0.00237     0.40634
      H   29    0.10531      0.00000     0.39343    0.00126     0.39469
      H   30    0.09967      0.00000     0.39934    0.00100     0.40033
      H   31    0.10176      0.00000     0.39725    0.00099     0.39824
      H   32    0.10058      0.00000     0.39832    0.00110     0.39942
      H   33    0.10187      0.00000     0.39717    0.00096     0.39813
      H   34    0.12958      0.00000     0.36747    0.00295     0.37042
      H   35    0.12008      0.00000     0.37805    0.00187     0.37992
      H   36    0.09880      0.00000     0.39993    0.00127     0.40120
 =======================================================================
   * Total *   -0.00000     14.99435    41.79767    0.20798    57.00000

 Normal termination of Gaussian 16 at Thu Dec 10 16:21:19 2020.
