 Gaussian 16, Revision A.03,

 -----------------------------------------------------------
 # opt freq B3LYP/6-31G(d) empiricaldispersion=gd3bj scf=xqc
 -----------------------------------------------------------

 ------------------------------
 CID_62213524_JID_9085_neutraal
 ------------------------------
 Symbolic Z-matrix:
 Charge =  0 Multiplicity = 1

 SCF Done:  E(RB3LYP) =  -865.891811670     A.U. after   14 cycles
 SCF Done:  E(RB3LYP) =  -865.897403823     A.U. after   12 cycles
 SCF Done:  E(RB3LYP) =  -865.898115820     A.U. after   11 cycles
 SCF Done:  E(RB3LYP) =  -865.898436395     A.U. after   11 cycles
 SCF Done:  E(RB3LYP) =  -865.898686262     A.U. after   11 cycles
 SCF Done:  E(RB3LYP) =  -865.898889423     A.U. after   11 cycles
 SCF Done:  E(RB3LYP) =  -865.898967067     A.U. after   10 cycles
 SCF Done:  E(RB3LYP) =  -865.898993053     A.U. after   10 cycles
 SCF Done:  E(RB3LYP) =  -865.898987964     A.U. after    9 cycles
 SCF Done:  E(RB3LYP) =  -865.899046856     A.U. after   11 cycles
 SCF Done:  E(RB3LYP) =  -865.905767522     A.U. after    9 cycles
 SCF Done:  E(RB3LYP) =  -865.905768249     A.U. after    8 cycles
 SCF Done:  E(RB3LYP) =  -865.905768430     A.U. after    7 cycles
 SCF Done:  E(RB3LYP) =  -865.905768601     A.U. after    7 cycles
 SCF Done:  E(RB3LYP) =  -865.905768974     A.U. after    8 cycles
 Optimization completed.
    -- Stationary point found.
 Normal termination of Gaussian 16 at Sun Dec 13 16:49:18 2020.

 --------------------------------------------------------------------
 #N Geom=AllCheck Guess=TCheck SCRF=Check GenChk RB3LYP/6-31G(d) Freq
 --------------------------------------------------------------------

 Structure from the checkpoint file:  "JID_9085.chk"
 ------------------------------
 CID_62213524_JID_9085_neutraal
 ------------------------------
 Charge =  0 Multiplicity = 1

 SCF Done:  E(RB3LYP) =  -865.905768974     A.U. after    1 cycles

  Exact polarizability: 197.687   6.699 184.654  12.782  -2.045 133.443
 Approx polarizability: 273.227   8.487 280.030  31.879   1.295 193.349

                      1                      2                      3
                      A                      A                      A
 Frequencies --     23.7804                41.7682                54.1216
 Red. masses --      3.9801                 3.4982                 2.9629
 Frc consts  --      0.0013                 0.0036                 0.0051
 IR Inten    --      0.1757                 0.0680                 4.9949

                      4                      5                      6
                      A                      A                      A
 Frequencies --     68.0166                86.3768                95.7556
 Red. masses --      3.9387                 2.8564                 3.4242
 Frc consts  --      0.0107                 0.0126                 0.0185
 IR Inten    --      0.3412                 0.2046                 0.6863

                      7                      8                      9
                      A                      A                      A
 Frequencies --    120.0897               130.5324               157.7754
 Red. masses --      2.8880                 3.6031                 4.1255
 Frc consts  --      0.0245                 0.0362                 0.0605
 IR Inten    --      1.8389                 0.5786                 5.6089

                     10                     11                     12
                      A                      A                      A
 Frequencies --    169.9264               181.7316               228.5086
 Red. masses --      2.3619                 3.0580                 1.4023
 Frc consts  --      0.0402                 0.0595                 0.0431
 IR Inten    --      1.7235                 4.0534                 1.2249

                     13                     14                     15
                      A                      A                      A
 Frequencies --    232.6046               252.5507               270.3635
 Red. masses --      1.7194                 2.4214                 1.2105
 Frc consts  --      0.0548                 0.0910                 0.0521
 IR Inten    --      0.6069                 1.9001                 0.4850

                     16                     17                     18
                      A                      A                      A
 Frequencies --    286.1389               293.2459               303.9209
 Red. masses --      2.0670                 2.5340                 2.2273
 Frc consts  --      0.0997                 0.1284                 0.1212
 IR Inten    --      0.4947                 1.0227                 3.1066

                     19                     20                     21
                      A                      A                      A
 Frequencies --    352.2480               386.7358               396.7424
 Red. masses --      2.3936                 3.1855                 4.7570
 Frc consts  --      0.1750                 0.2807                 0.4412
 IR Inten    --      1.4596                 6.4813                 2.8825

                     22                     23                     24
                      A                      A                      A
 Frequencies --    408.6701               441.6428               460.7811
 Red. masses --      3.4806                 4.6561                 3.1969
 Frc consts  --      0.3425                 0.5351                 0.3999
 IR Inten    --      2.5743                 1.3492                 6.4715

                     25                     26                     27
                      A                      A                      A
 Frequencies --    464.8180               493.2465               509.6186
 Red. masses --      4.0823                 4.2645                 2.8662
 Frc consts  --      0.5197                 0.6113                 0.4386
 IR Inten    --      3.4936                 2.8355                 0.2319

                     28                     29                     30
                      A                      A                      A
 Frequencies --    531.1813               596.2178               615.9940
 Red. masses --      2.6800                 3.0303                 3.5664
 Frc consts  --      0.4455                 0.6347                 0.7973
 IR Inten    --     12.0901                12.2323                 3.7060

                     31                     32                     33
                      A                      A                      A
 Frequencies --    625.3402               655.6185               715.7063
 Red. masses --      4.0914                 2.7238                 4.6966
 Frc consts  --      0.9427                 0.6898                 1.4174
 IR Inten    --      1.1477                 8.1115                31.4377

                     34                     35                     36
                      A                      A                      A
 Frequencies --    736.7042               777.1877               817.8205
 Red. masses --      4.4497                 2.4278                 1.5267
 Frc consts  --      1.4229                 0.8640                 0.6016
 IR Inten    --      5.3582                41.0317                27.1808

                     37                     38                     39
                      A                      A                      A
 Frequencies --    833.4899               837.1662               846.2256
 Red. masses --      3.0134                 1.5607                 2.2594
 Frc consts  --      1.2334                 0.6445                 0.9533
 IR Inten    --      5.1134                 5.9942                17.6634

                     40                     41                     42
                      A                      A                      A
 Frequencies --    883.2804               892.4429               902.2565
 Red. masses --      1.7160                 2.4475                 1.9927
 Frc consts  --      0.7888                 1.1485                 0.9558
 IR Inten    --     11.1177                16.6192                 6.8586

                     43                     44                     45
                      A                      A                      A
 Frequencies --    922.9136               925.5058               974.3914
 Red. masses --      1.2893                 1.6847                 3.5427
 Frc consts  --      0.6471                 0.8502                 1.9817
 IR Inten    --      0.2511                 2.7014                 6.3735

                     46                     47                     48
                      A                      A                      A
 Frequencies --    998.8743              1009.6217              1038.3177
 Red. masses --      2.5045                 2.0914                 1.9246
 Frc consts  --      1.4723                 1.2560                 1.2225
 IR Inten    --      3.7087                 9.3101                21.1133

                     49                     50                     51
                      A                      A                      A
 Frequencies --   1067.7482              1074.1018              1076.0783
 Red. masses --      2.5259                 2.6374                 2.0343
 Frc consts  --      1.6967                 1.7928                 1.3879
 IR Inten    --      1.7290                 4.7666                24.7653

                     52                     53                     54
                      A                      A                      A
 Frequencies --   1096.6170              1124.1000              1133.0590
 Red. masses --      5.1334                 3.4821                 2.7499
 Frc consts  --      3.6372                 2.5924                 2.0800
 IR Inten    --    135.3820                13.7566                36.6601

                     55                     56                     57
                      A                      A                      A
 Frequencies --   1147.2732              1152.7930              1173.1009
 Red. masses --      1.8693                 1.8771                 2.0437
 Frc consts  --      1.4496                 1.4697                 1.6570
 IR Inten    --     12.6926                11.6096                42.5973

                     58                     59                     60
                      A                      A                      A
 Frequencies --   1187.2323              1187.7884              1191.2889
 Red. masses --      1.2713                 1.2720                 1.5035
 Frc consts  --      1.0558                 1.0574                 1.2571
 IR Inten    --      0.9708                 0.5991                 7.2579

                     61                     62                     63
                      A                      A                      A
 Frequencies --   1212.4124              1219.7222              1226.0699
 Red. masses --      1.6235                 1.4002                 1.4027
 Frc consts  --      1.4061                 1.2273                 1.2423
 IR Inten    --      6.2953                 8.7367                 1.0966

                     64                     65                     66
                      A                      A                      A
 Frequencies --   1232.4029              1239.7018              1264.4780
 Red. masses --      1.5226                 1.7092                 2.5678
 Frc consts  --      1.3625                 1.5477                 2.4190
 IR Inten    --      2.0961                29.2677               336.9097

                     67                     68                     69
                      A                      A                      A
 Frequencies --   1299.2551              1305.7582              1316.7686
 Red. masses --      1.4922                 1.4210                 1.6980
 Frc consts  --      1.4841                 1.4274                 1.7346
 IR Inten    --     15.0599                43.6508                 7.1622

                     70                     71                     72
                      A                      A                      A
 Frequencies --   1328.3403              1334.4672              1356.4259
 Red. masses --      1.3413                 2.2315                 2.5986
 Frc consts  --      1.3944                 2.3413                 2.8170
 IR Inten    --      9.2458                31.8347                22.9777

                     73                     74                     75
                      A                      A                      A
 Frequencies --   1372.6741              1382.8926              1399.6002
 Red. masses --      1.3118                 1.4525                 1.7172
 Frc consts  --      1.4563                 1.6366                 1.9818
 IR Inten    --      3.3081                 8.4730                29.0311

                     76                     77                     78
                      A                      A                      A
 Frequencies --   1401.2669              1409.9765              1413.8285
 Red. masses --      1.3966                 1.5208                 1.3321
 Frc consts  --      1.6158                 1.7814                 1.5688
 IR Inten    --      2.4256                29.8922                12.0259

                     79                     80                     81
                      A                      A                      A
 Frequencies --   1439.9046              1469.6817              1481.1219
 Red. masses --      1.3079                 2.1869                 1.2734
 Frc consts  --      1.5977                 2.7831                 1.6459
 IR Inten    --      2.7468                32.5870                11.1342

                     82                     83                     84
                      A                      A                      A
 Frequencies --   1493.1002              1501.9918              1505.3393
 Red. masses --      1.1881                 1.2314                 1.2807
 Frc consts  --      1.5606                 1.6367                 1.7098
 IR Inten    --     24.4831                11.2191                 7.8080

                     85                     86                     87
                      A                      A                      A
 Frequencies --   1509.4098              1517.7608              1519.7804
 Red. masses --      1.1364                 1.0727                 1.0481
 Frc consts  --      1.5255                 1.4559                 1.4264
 IR Inten    --      8.0392                 9.7583                 4.9490

                     88                     89                     90
                      A                      A                      A
 Frequencies --   1519.9817              1523.9309              1529.7549
 Red. masses --      1.0484                 1.0910                 1.1031
 Frc consts  --      1.4271                 1.4928                 1.5209
 IR Inten    --      5.4949                 2.1568                 5.6724

                     91                     92                     93
                      A                      A                      A
 Frequencies --   1535.6157              1538.4692              1548.6095
 Red. masses --      1.1252                 1.0502                 1.0693
 Frc consts  --      1.5634                 1.4645                 1.5108
 IR Inten    --    122.9130                 0.5329                13.5174

                     94                     95                     96
                      A                      A                      A
 Frequencies --   1550.5912              1560.5152              1651.0289
 Red. masses --      1.0827                 2.2076                 7.6096
 Frc consts  --      1.5337                 3.1674                12.2214
 IR Inten    --      6.5973               139.2460                 1.1299

                     97                     98                     99
                      A                      A                      A
 Frequencies --   1675.6606              2962.9040              3017.1880
 Red. masses --      5.9912                 1.0602                 1.0797
 Frc consts  --      9.9114                 5.4838                 5.7908
 IR Inten    --     18.5951                80.7710                25.1075

                    100                    101                    102
                      A                      A                      A
 Frequencies --   3021.1473              3021.9468              3038.7519
 Red. masses --      1.0350                 1.0351                 1.0626
 Frc consts  --      5.5660                 5.5693                 5.7812
 IR Inten    --    110.8339                 2.1842                19.5835

                    103                    104                    105
                      A                      A                      A
 Frequencies --   3039.2628              3043.8526              3053.1904
 Red. masses --      1.0620                 1.0635                 1.0646
 Frc consts  --      5.7800                 5.8057                 5.8472
 IR Inten    --     35.3386                26.8357                13.8001

                    106                    107                    108
                      A                      A                      A
 Frequencies --   3075.8012              3076.8438              3078.1323
 Red. masses --      1.0966                 1.0908                 1.1063
 Frc consts  --      6.1122                 6.0842                 6.1758
 IR Inten    --     41.8565                71.8263                35.0471

                    109                    110                    111
                      A                      A                      A
 Frequencies --   3078.7156              3081.1522              3088.7493
 Red. masses --      1.1062                 1.0965                 1.0931
 Frc consts  --      6.1775                 6.1333                 6.1442
 IR Inten    --     52.2222                16.7825                70.1919

                    112                    113                    114
                      A                      A                      A
 Frequencies --   3089.2126              3108.8088              3132.9523
 Red. masses --      1.0820                 1.1058                 1.1032
 Frc consts  --      6.0835                 6.2968                 6.3798
 IR Inten    --     41.7361                42.7940                27.6992

                    115                    116                    117
                      A                      A                      A
 Frequencies --   3151.7961              3153.1689              3210.7187
 Red. masses --      1.0996                 1.0996                 1.0883
 Frc consts  --      6.4356                 6.4414                 6.6099
 IR Inten    --     27.9866                32.7736                 8.4007

                    118                    119                    120
                      A                      A                      A
 Frequencies --   3230.4440              3238.0903              3511.2837
 Red. masses --      1.0926                 1.0888                 1.0731
 Frc consts  --      6.7179                 6.7261                 7.7955
 IR Inten    --     13.3301                 3.1042                 2.6724

 - Thermochemistry -
 -------------------
 Temperature   298.150 Kelvin.  Pressure   1.00000 Atm.
 Atom     1 has atomic number  6 and mass  12.00000

 Molecular mass:   265.16779 amu.
 Principal axes and moments of inertia in atomic units:
                           1         2         3
     Eigenvalues --  3617.987246557.585297605.67548
           X            0.99994   0.01080  -0.00177
           Y           -0.01082   0.99988  -0.01127
           Z            0.00165   0.01129   0.99993
 This molecule is an asymmetric top.
 Rotational symmetry number  1.
 Warning -- assumption of classical behavior for rotation
           may cause significant error
 Rotational temperatures (Kelvin)      0.02394     0.01321     0.01139
 Rotational constants (GHZ):           0.49882     0.27521     0.23729
 Zero-point vibrational energy     968685.4 (Joules/Mol)
                                  231.52137 (Kcal/Mol)
 Warning -- explicit consideration of  30 degrees of freedom as
           vibrations may cause significant error
 Vibrational temperatures:     34.21    60.10    77.87    97.86   124.28
          (Kelvin)            137.77   172.78   187.81   227.00   244.49
                              261.47   328.77   334.67   363.36   388.99
                              411.69   421.92   437.27   506.81   556.43
                              570.82   587.99   635.43   662.96   668.77
                              709.67   733.23   764.25   857.82   886.28
                              899.73   943.29  1029.74  1059.95  1118.20
                             1176.66  1199.21  1204.50  1217.53  1270.84
                             1284.03  1298.15  1327.87  1331.60  1401.93
                             1437.16  1452.62  1493.91  1536.25  1545.39
                             1548.24  1577.79  1617.33  1630.22  1650.67
                             1658.61  1687.83  1708.16  1708.96  1714.00
                             1744.39  1754.91  1764.04  1773.15  1783.65
                             1819.30  1869.34  1878.69  1894.54  1911.19
                             1920.00  1951.59  1974.97  1989.67  2013.71
                             2016.11  2028.64  2034.18  2071.70  2114.54
                             2131.00  2148.24  2161.03  2165.85  2171.70
                             2183.72  2186.62  2186.91  2192.60  2200.98
                             2209.41  2213.51  2228.10  2230.95  2245.23
                             2375.46  2410.90  4262.96  4341.06  4346.76
                             4347.91  4372.09  4372.82  4379.42  4392.86
                             4425.39  4426.89  4428.75  4429.59  4433.09
                             4444.02  4444.69  4472.88  4507.62  4534.73
                             4536.71  4619.51  4647.89  4658.89  5051.95

 Zero-point correction=                           0.368953 (Hartree/Particle)
 Thermal correction to Energy=                    0.387947
 Thermal correction to Enthalpy=                  0.388891
 Thermal correction to Gibbs Free Energy=         0.321225
 Sum of electronic and zero-point Energies=           -865.536816
 Sum of electronic and thermal Energies=              -865.517822
 Sum of electronic and thermal Enthalpies=            -865.516878
 Sum of electronic and thermal Free Energies=         -865.584544

                     E (Thermal)             CV                S
                      KCal/Mol        Cal/Mol-Kelvin    Cal/Mol-Kelvin
 Total                  243.440             72.573            142.414
 Electronic               0.000              0.000              0.000
 Translational            0.889              2.981             42.625
 Rotational               0.889              2.981             33.556
 Vibrational            241.663             66.611             66.233
 Vibration     1          0.593              1.985              6.290
 Vibration     2          0.594              1.980              5.173
 Vibration     3          0.596              1.976              4.661
 Vibration     4          0.598              1.969              4.210
 Vibration     5          0.601              1.959              3.740
 Vibration     6          0.603              1.952              3.539
 Vibration     7          0.609              1.933              3.099
 Vibration     8          0.612              1.923              2.938
 Vibration     9          0.621              1.894              2.576
 Vibration    10          0.625              1.879              2.436
 Vibration    11          0.630              1.865              2.311
 Vibration    12          0.651              1.798              1.891
 Vibration    13          0.653              1.791              1.859
 Vibration    14          0.664              1.758              1.713
 Vibration    15          0.674              1.728              1.594
 Vibration    16          0.684              1.699              1.497
 Vibration    17          0.688              1.686              1.455
 Vibration    18          0.695              1.666              1.395
 Vibration    19          0.729              1.571              1.156
 Vibration    20          0.755              1.499              1.013
 Vibration    21          0.763              1.477              0.975
 Vibration    22          0.773              1.451              0.931
 Vibration    23          0.801              1.379              0.821
 Vibration    24          0.819              1.337              0.764
 Vibration    25          0.822              1.328              0.752
 Vibration    26          0.849              1.265              0.675
 Vibration    27          0.865              1.229              0.635
 Vibration    28          0.886              1.181              0.585
 Vibration    29          0.954              1.040              0.456
 Vibration    30          0.976              0.998              0.423

                           ! Non-Optimized Parameters !
 Normal termination of Gaussian 16 at Sun Dec 13 17:14:21 2020.

 ----------------------------------------------------------------------
 # B3LYP/6-311++G(d,p) empiricaldispersion=gd3bj scf=xqc pop=npa geom=c
 heck
 ----------------------------------------------------------------------

 --------------------------------------
 CID_62213524_JID_9085_Energie_neutraal
 --------------------------------------
 Structure from the checkpoint file:  "JID_9085.chk"
 Charge =  0 Multiplicity = 1

 SCF Done:  E(RB3LYP) =  -866.147660406     A.U. after   15 cycles
 Normal termination of Gaussian 16 at Sun Dec 13 17:25:49 2020.

 ----------------------------------------------------------------------
 # B3LYP/6-311++G(d,p) empiricaldispersion=gd3bj scf=xqc pop=npa geom=c
 heck
 ----------------------------------------------------------------------

 ------------------------------------
 CID_62213524_JID_9085_Energie_kation
 ------------------------------------
 Structure from the checkpoint file:  "JID_9085.chk"
 Charge =  1 Multiplicity = 2

 SCF Done:  E(UB3LYP) =  -865.882130377     A.U. after   26 cycles
 Normal termination of Gaussian 16 at Sun Dec 13 17:53:52 2020.
 Gaussian 16:  ES64L-G16RevA.03 25-Dec-2016

 ----------------------------------------------------------------------
 # B3LYP/6-311++G(d,p) empiricaldispersion=gd3bj scf=xqc pop=npa geom=c
 heck
 ----------------------------------------------------------------------

 -----------------------------------
 CID_62213524_JID_9085_Energie_anion
 -----------------------------------
 Structure from the checkpoint file:  "JID_9085.chk"
 Charge = -1 Multiplicity = 2

                         Standard orientation:
 ---------------------------------------------------------------------
 Center     Atomic      Atomic             Coordinates (Angstroms)
 Number     Number       Type             X           Y           Z
 ---------------------------------------------------------------------
      1          6           0       -0.136943   -1.131595    3.005183
      2          7           0        0.354313   -1.661344    1.736064
      3          6           0        0.690657   -0.607508    0.765452
      4          6           0        1.397925   -1.279788   -0.447383
      5          6           0        2.810588   -1.807251   -0.133787
      6          6           0        3.836018   -0.670878   -0.026657
      7          6           0        3.773007    0.195459   -1.289819
      8          6           0        2.336573    0.657229   -1.526507
      9          8           0        1.431030   -0.444603   -1.600361
     10          6           0       -0.580539    0.092840    0.320845
     11          6           0       -0.685030    1.490585    0.298078
     12          6           0       -1.870172    2.095286   -0.137726
     13          6           0       -2.949073    1.315907   -0.542198
     14          6           0       -2.860046   -0.077887   -0.509992
     15          6           0       -1.677255   -0.677651   -0.073982
     16          8           0       -3.974966   -0.762919   -0.914664
     17          6           0       -3.907889   -2.177216   -0.912464
     18          8           0        0.414477    2.201090    0.728259
     19          6           0        0.333156    3.613157    0.730162
     20          1           0       -1.099201   -0.637379    2.842463
     21          1           0        0.541145   -0.397096    3.476951
     22          1           0       -0.293741   -1.959166    3.704618
     23          1           0        1.188386   -2.213506    1.918793
     24          1           0        1.356328    0.145829    1.210378
     25          1           0        0.759141   -2.119664   -0.740294
     26          1           0        3.102492   -2.473715   -0.955249
     27          1           0        2.812305   -2.419983    0.776165
     28          1           0        3.621546   -0.050204    0.853980
     29          1           0        4.842272   -1.082302    0.116277
     30          1           0        4.434375    1.067255   -1.206067
     31          1           0        4.109262   -0.391962   -2.154406
     32          1           0        2.026628    1.355031   -0.738058
     33          1           0        2.237459    1.170083   -2.488176
     34          1           0       -1.964911    3.174199   -0.163962
     35          1           0       -3.871683    1.775639   -0.881059
     36          1           0       -1.579828   -1.753718   -0.004608
     37          1           0       -3.113723   -2.544712   -1.576232
     38          1           0       -3.737507   -2.572983    0.097954
     39          1           0       -4.875662   -2.525571   -1.278257
     40          1           0        1.293242    3.969174    1.108792
     41          1           0        0.172189    4.010769   -0.280911
     42          1           0       -0.470891    3.970720    1.387364
 ---------------------------------------------------------------------

 SCF Done:  E(UB3LYP) =  -866.135165965     A.U. after   33 cycles
 SCF Done:  E(UB3LYP) =  -866.135165965     a.u. after    1 cycles

 The electronic state is 2-A.
 Alpha  occ. eigenvalues --  -19.06414 -19.05809 -19.02224 -14.20680 -10.13913
 Alpha  occ. eigenvalues --  -10.13685 -10.13555 -10.12673 -10.12565 -10.11117
 Alpha  occ. eigenvalues --  -10.10545 -10.09067 -10.08496 -10.08315 -10.08061
 Alpha  occ. eigenvalues --  -10.07671 -10.07539 -10.07351 -10.07111  -0.97969
 Alpha  occ. eigenvalues --   -0.97284  -0.93688  -0.81822  -0.76103  -0.70548
 Alpha  occ. eigenvalues --   -0.68922  -0.67136  -0.65889  -0.62960  -0.60997
 Alpha  occ. eigenvalues --   -0.58266  -0.55512  -0.54324  -0.53740  -0.50383
 Alpha  occ. eigenvalues --   -0.49157  -0.45730  -0.44096  -0.42899  -0.41908
 Alpha  occ. eigenvalues --   -0.40275  -0.39602  -0.38455  -0.38024  -0.37273
 Alpha  occ. eigenvalues --   -0.36023  -0.35809  -0.35093  -0.34649  -0.33755
 Alpha  occ. eigenvalues --   -0.32981  -0.32170  -0.31719  -0.31392  -0.30293
 Alpha  occ. eigenvalues --   -0.29270  -0.28788  -0.28297  -0.27891  -0.27031
 Alpha  occ. eigenvalues --   -0.26053  -0.25729  -0.25042  -0.24321  -0.23055
 Alpha  occ. eigenvalues --   -0.22986  -0.20348  -0.19689  -0.16117  -0.15837
 Alpha  occ. eigenvalues --   -0.13769  -0.11452   0.03980
 Alpha virt. eigenvalues --    0.05616   0.05875   0.06808   0.07236   0.07584
 Alpha virt. eigenvalues --    0.08089   0.08373   0.08912   0.09413   0.09563
 Alpha virt. eigenvalues --    0.09946   0.10361   0.10624   0.10791   0.11144

  Beta  occ. eigenvalues --  -19.06412 -19.05803 -19.02222 -14.20665 -10.13896
  Beta  occ. eigenvalues --  -10.13685 -10.13555 -10.12627 -10.12562 -10.11111
  Beta  occ. eigenvalues --  -10.10542 -10.09048 -10.08495 -10.08304 -10.08057
  Beta  occ. eigenvalues --  -10.07663 -10.07522 -10.07332 -10.07097  -0.97963
  Beta  occ. eigenvalues --   -0.97270  -0.93680  -0.81801  -0.76093  -0.70518
  Beta  occ. eigenvalues --   -0.68907  -0.67117  -0.65870  -0.62922  -0.60968
  Beta  occ. eigenvalues --   -0.58223  -0.55473  -0.54285  -0.53713  -0.50350
  Beta  occ. eigenvalues --   -0.49135  -0.45701  -0.44073  -0.42868  -0.41894
  Beta  occ. eigenvalues --   -0.40240  -0.39570  -0.38442  -0.38001  -0.37243
  Beta  occ. eigenvalues --   -0.35999  -0.35784  -0.35066  -0.34629  -0.33729
  Beta  occ. eigenvalues --   -0.32962  -0.32152  -0.31693  -0.31366  -0.30270
  Beta  occ. eigenvalues --   -0.29248  -0.28768  -0.28269  -0.27870  -0.27008
  Beta  occ. eigenvalues --   -0.26037  -0.25710  -0.25017  -0.24295  -0.23034
  Beta  occ. eigenvalues --   -0.22959  -0.20333  -0.19674  -0.16099  -0.15821
  Beta  occ. eigenvalues --   -0.13744  -0.11440
  Beta virt. eigenvalues --    0.05770   0.06374   0.06693   0.07197   0.07415
  Beta virt. eigenvalues --    0.08025   0.08328   0.08636   0.09305   0.09658
  Beta virt. eigenvalues --    0.09825   0.10339   0.10456   0.10777   0.11107

 Mulliken charges and spin densities:
               1          2
     1  C    0.156556  -0.531348
     2  N   -0.055529   0.080269
     3  C   -0.981209   0.206752
     4  C   -0.769699   0.434862
     5  C    0.426968  -0.731589
     6  C   -0.153941  -0.086973
     7  C    0.748340  -1.177604
     8  C   -0.852531   0.605590
     9  O   -0.028408   0.010768
    10  C    1.567252  -0.700280
    11  C   -0.522505  -0.015001
    12  C   -0.039212   0.281356
    13  C    0.110615  -0.340028
    14  C   -1.285100   0.303083
    15  C    0.509224  -0.221271
    16  O   -0.174946   0.014521
    17  C    0.043649  -0.420755
    18  O   -0.108873   0.031579
    19  C    0.781435  -1.073398
    20  H    0.086036   0.048795
    21  H   -0.195191   0.324801
    22  H   -0.138914   0.286234
    23  H    0.170647   0.048117
    24  H    0.944849  -0.627636
    25  H    0.115972   0.098228
    26  H   -0.011850   0.177001
    27  H   -0.288334   0.401840
    28  H   -0.336845   0.478215
    29  H   -0.306619   0.490818
    30  H   -0.194497   0.345763
    31  H    0.083344   0.057669
    32  H    0.570902  -0.408571
    33  H   -0.037055   0.200334
    34  H   -0.193655   0.383281
    35  H    0.061772   0.118954
    36  H    0.398487  -0.144891
    37  H    0.039465   0.110980
    38  H   -0.004705   0.157456
    39  H   -0.108098   0.280475
    40  H   -0.673338   0.852346
    41  H   -0.155459   0.311398
    42  H   -0.198998   0.337858
 Sum of Mulliken charges =  -1.00000   1.00000

 Dipole moment (field-independent basis, Debye):
    X=             -3.5962    Y=             -2.7757    Z=             -2.0439  Tot=              4.9815
 Quadrupole moment (field-independent basis, Debye-Ang):
   XX=           -189.1833   YY=           -176.6646   ZZ=           -157.9826
   XY=             -2.4722   XZ=             -5.3250   YZ=             -0.7728

 Summary of Natural Population Analysis:

                                       Natural Population
                Natural  -----------------------------------------------
    Atom  No    Charge         Core      Valence    Rydberg      Total
 -----------------------------------------------------------------------
      C    1   -0.17984      0.99966     2.17194    0.00824     3.17984
      N    2   -0.34023      0.99974     2.82885    0.01164     3.84023
      C    3   -0.03195      0.99952     2.01852    0.01390     3.03195
      C    4    0.07274      0.99952     1.91256    0.01518     2.92726
      C    5   -0.20129      0.99961     2.19233    0.00935     3.20129
      C    6   -0.19268      0.99963     2.18449    0.00856     3.19268
      C    7   -0.20265      0.99963     2.19494    0.00808     3.20265
      C    8   -0.01656      0.99956     2.00426    0.01274     3.01656
      O    9   -0.30224      0.99989     3.29370    0.00866     4.30224
      C   10   -0.02232      0.99947     2.01003    0.01282     3.02232
      C   11    0.15064      0.99930     1.83671    0.01334     2.84936
      C   12   -0.13150      0.99952     2.12326    0.00871     3.13150
      C   13   -0.11349      0.99953     2.10461    0.00934     3.11349
      C   14    0.14844      0.99937     1.84020    0.01199     2.85156
      C   15   -0.13279      0.99947     2.12429    0.00903     3.13279
      O   16   -0.27606      0.99986     3.26723    0.00897     4.27606
      C   17   -0.09960      0.99961     2.09200    0.00800     3.09960
      O   18   -0.27815      0.99986     3.26886    0.00943     4.27815
      C   19   -0.09965      0.99960     2.09064    0.00942     3.09965
      H   20    0.09555      0.00000     0.40330    0.00115     0.40445
      H   21    0.08165      0.00000     0.41696    0.00140     0.41835
      H   22    0.09334      0.00000     0.40588    0.00078     0.40666
      H   23    0.17452      0.00000     0.32214    0.00335     0.32548
      H   24    0.09723      0.00000     0.39909    0.00368     0.40277
      H   25    0.09369      0.00000     0.40397    0.00234     0.40631
      H   26    0.09948      0.00000     0.39937    0.00116     0.40052
      H   27    0.09838      0.00000     0.40027    0.00135     0.40162
      H   28    0.09656      0.00000     0.40169    0.00176     0.40344
      H   29    0.10020      0.00000     0.39845    0.00136     0.39980
      H   30    0.10135      0.00000     0.39763    0.00102     0.39865
      H   31    0.09295      0.00000     0.40583    0.00121     0.40705
      H   32    0.08884      0.00000     0.40905    0.00212     0.41116
      H   33    0.08869      0.00000     0.41017    0.00114     0.41131
      H   34    0.10642      0.00000     0.39240    0.00118     0.39358
      H   35    0.10393      0.00000     0.39486    0.00121     0.39607
      H   36    0.11202      0.00000     0.38600    0.00199     0.38798
      H   37    0.08440      0.00000     0.41405    0.00155     0.41560
      H   38    0.08427      0.00000     0.41415    0.00158     0.41573
      H   39    0.09079      0.00000     0.40818    0.00103     0.40921
      H   40    0.09696      0.00000     0.40144    0.00159     0.40304
      H   41    0.08398      0.00000     0.41423    0.00179     0.41602
      H   42    0.08400      0.00000     0.41431    0.00170     0.41600
 =======================================================================
   * Total *   -0.00000     18.99233    52.77283    0.23484    72.00000

 Normal termination of Gaussian 16 at Sun Dec 13 18:29:50 2020.
