 Gaussian 16, Revision A.03,

 -----------------------------------------------------------
 # opt freq B3LYP/6-31G(d) empiricaldispersion=gd3bj scf=xqc
 -----------------------------------------------------------

 ------------------------------
 CID_12650971_JID_1558_neutraal
 ------------------------------
 Symbolic Z-matrix:
 Charge =  0 Multiplicity = 1

 SCF Done:  E(RB3LYP) =  -467.086885636     A.U. after   14 cycles
 SCF Done:  E(RB3LYP) =  -467.105395405     A.U. after   12 cycles
 SCF Done:  E(RB3LYP) =  -467.106794810     A.U. after   14 cycles
 SCF Done:  E(RB3LYP) =  -467.100654776     A.U. after   14 cycles
 SCF Done:  E(RB3LYP) =  -467.107261337     A.U. after   12 cycles
 SCF Done:  E(RB3LYP) =  -467.107273304     A.U. after   14 cycles
 SCF Done:  E(RB3LYP) =  -467.107320652     A.U. after   12 cycles
 SCF Done:  E(RB3LYP) =  -467.108151891     A.U. after   12 cycles
 SCF Done:  E(RB3LYP) =  -467.108671152     A.U. after   11 cycles
 SCF Done:  E(RB3LYP) =  -467.108769490     A.U. after   11 cycles
 SCF Done:  E(RB3LYP) =  -467.108975357     A.U. after   10 cycles
 SCF Done:  E(RB3LYP) =  -467.108975911     A.U. after    9 cycles
 SCF Done:  E(RB3LYP) =  -467.108976387     A.U. after    8 cycles
 SCF Done:  E(RB3LYP) =  -467.108976497     A.U. after    7 cycles
 SCF Done:  E(RB3LYP) =  -467.108976650     A.U. after    8 cycles
 Optimization completed.
    -- Stationary point found.
 Normal termination of Gaussian 16 at Tue Dec  8 20:39:55 2020.

 --------------------------------------------------------------------
 #N Geom=AllCheck Guess=TCheck SCRF=Check GenChk RB3LYP/6-31G(d) Freq
 --------------------------------------------------------------------

 Structure from the checkpoint file:  "JID_1558.chk"
 ------------------------------
 CID_12650971_JID_1558_neutraal
 ------------------------------
 Charge =  0 Multiplicity = 1

 SCF Done:  E(RB3LYP) =  -467.108976650     A.U. after    1 cycles

  Exact polarizability: 135.002   4.402  98.982  -2.936   0.336  86.772
 Approx polarizability: 182.534  10.963 131.046 -10.534  -3.751 130.032

                      1                      2                      3
                      A                      A                      A
 Frequencies --     30.4176                53.8340                69.7167
 Red. masses --      3.4662                 3.5590                 3.7695
 Frc consts  --      0.0019                 0.0061                 0.0108
 IR Inten    --      0.2358                 0.1401                 0.6838

                      4                      5                      6
                      A                      A                      A
 Frequencies --     77.2635                96.2987               121.3217
 Red. masses --      2.9497                 3.2387                 2.5683
 Frc consts  --      0.0104                 0.0177                 0.0223
 IR Inten    --      0.8228                 0.5019                 1.5641

                      7                      8                      9
                      A                      A                      A
 Frequencies --    176.1440               191.6436               237.0018
 Red. masses --      2.5174                 1.5250                 2.7065
 Frc consts  --      0.0460                 0.0330                 0.0896
 IR Inten    --      3.3272                 0.3083                 3.7124

                     10                     11                     12
                      A                      A                      A
 Frequencies --    256.3820               280.3093               309.4378
 Red. masses --      1.7888                 1.9840                 2.3739
 Frc consts  --      0.0693                 0.0918                 0.1339
 IR Inten    --      1.8418                 1.7389                 7.2552

                     13                     14                     15
                      A                      A                      A
 Frequencies --    339.2141               385.3524               427.3094
 Red. masses --      2.6799                 2.1020                 1.1292
 Frc consts  --      0.1817                 0.1839                 0.1215
 IR Inten    --      2.3043                 0.2076               105.1872

                     16                     17                     18
                      A                      A                      A
 Frequencies --    458.5400               459.5112               546.4446
 Red. masses --      2.7365                 3.0460                 3.1967
 Frc consts  --      0.3390                 0.3789                 0.5624
 IR Inten    --      4.9932                15.1135                 1.1002

                     19                     20                     21
                      A                      A                      A
 Frequencies --    593.4806               703.8712               749.2904
 Red. masses --      2.9129                 1.8231                 1.4209
 Frc consts  --      0.6045                 0.5322                 0.4700
 IR Inten    --      1.2186                 2.1639                 6.3784

                     22                     23                     24
                      A                      A                      A
 Frequencies --    777.1074               789.6795               847.4473
 Red. masses --      1.7568                 1.6846                 2.0810
 Frc consts  --      0.6251                 0.6190                 0.8806
 IR Inten    --      1.9334                 1.3303                 1.6150

                     25                     26                     27
                      A                      A                      A
 Frequencies --    866.2375               893.5274               950.3052
 Red. masses --      1.9853                 2.0989                 1.5280
 Frc consts  --      0.8777                 0.9873                 0.8130
 IR Inten    --      1.2587                 1.5189                 0.9573

                     28                     29                     30
                      A                      A                      A
 Frequencies --    966.2954              1002.6723              1012.1779
 Red. masses --      1.9376                 1.8066                 1.6548
 Frc consts  --      1.0659                 1.0701                 0.9989
 IR Inten    --      8.0928                 0.1940                12.3820

                     31                     32                     33
                      A                      A                      A
 Frequencies --   1026.9748              1083.2171              1091.0569
 Red. masses --      1.8435                 2.3230                 1.9863
 Frc consts  --      1.1455                 1.6060                 1.3932
 IR Inten    --     10.4812                37.9575                 1.5050

                     34                     35                     36
                      A                      A                      A
 Frequencies --   1104.2374              1129.2743              1137.6243
 Red. masses --      2.4416                 1.6300                 2.1195
 Frc consts  --      1.7541                 1.2247                 1.6162
 IR Inten    --     30.8788                 0.2485                 0.5799

                     37                     38                     39
                      A                      A                      A
 Frequencies --   1170.5691              1206.9495              1226.3536
 Red. masses --      2.6200                 1.2026                 1.2370
 Frc consts  --      2.1152                 1.0322                 1.0961
 IR Inten    --      1.2297                 7.2524                 0.1808

                     40                     41                     42
                      A                      A                      A
 Frequencies --   1234.2970              1248.7665              1300.3830
 Red. masses --      1.2299                 1.3483                 1.2139
 Frc consts  --      1.1039                 1.2388                 1.2095
 IR Inten    --      1.9570                 0.4366                 1.2891

                     43                     44                     45
                      A                      A                      A
 Frequencies --   1305.0985              1338.2374              1364.1773
 Red. masses --      1.1861                 1.1441                 1.3178
 Frc consts  --      1.1903                 1.2072                 1.4449
 IR Inten    --      2.6802                 0.5850                 1.9069

                     46                     47                     48
                      A                      A                      A
 Frequencies --   1371.3841              1384.4478              1394.5840
 Red. masses --      1.4349                 1.3769                 1.4298
 Frc consts  --      1.5899                 1.5549                 1.6384
 IR Inten    --     13.8741                 9.2530                 4.4827

                     49                     50                     51
                      A                      A                      A
 Frequencies --   1412.5613              1412.7587              1423.4491
 Red. masses --      1.3338                 1.4469                 1.2220
 Frc consts  --      1.5680                 1.7015                 1.4588
 IR Inten    --      6.9018                 6.4905                10.6751

                     52                     53                     54
                      A                      A                      A
 Frequencies --   1438.8695              1444.2255              1501.3508
 Red. masses --      1.2814                 1.2739                 1.0791
 Frc consts  --      1.5630                 1.5655                 1.4331
 IR Inten    --     31.3536                 4.0760                 3.4319

                     55                     56                     57
                      A                      A                      A
 Frequencies --   1504.3374              1512.8908              1515.8149
 Red. masses --      1.0785                 1.0806                 1.0970
 Frc consts  --      1.4380                 1.4572                 1.4851
 IR Inten    --      2.8959                 2.4704                 3.1327

                     58                     59                     60
                      A                      A                      A
 Frequencies --   1522.7435              1524.3833              1531.8710
 Red. masses --      1.0907                 1.0608                 1.0866
 Frc consts  --      1.4901                 1.4524                 1.5024
 IR Inten    --      6.0294                 4.4845                 1.1060

                     61                     62                     63
                      A                      A                      A
 Frequencies --   1533.6647              1539.8752              2360.6187
 Red. masses --      1.0524                 1.0709                11.8102
 Frc consts  --      1.4585                 1.4962                38.7758
 IR Inten    --      6.5357                 3.1318                 0.0835

                     64                     65                     66
                      A                      A                      A
 Frequencies --   3028.4722              3034.0607              3035.5076
 Red. masses --      1.0676                 1.0612                 1.0598
 Frc consts  --      5.7692                 5.7558                 5.7534
 IR Inten    --     33.0927                50.4838                 3.2930

                     67                     68                     69
                      A                      A                      A
 Frequencies --   3042.6772              3044.3330              3047.1238
 Red. masses --      1.0440                 1.0590                 1.0600
 Frc consts  --      5.6943                 5.7829                 5.7989
 IR Inten    --     10.3986                16.8594                27.1965

                     70                     71                     72
                      A                      A                      A
 Frequencies --   3050.4871              3052.9997              3064.4814
 Red. masses --      1.0634                 1.0647                 1.0985
 Frc consts  --      5.8300                 5.8468                 6.0778
 IR Inten    --     33.0661                 4.2123                15.7054

                     73                     74                     75
                      A                      A                      A
 Frequencies --   3070.0103              3076.3925              3079.6159
 Red. masses --      1.0940                 1.1001                 1.1008
 Frc consts  --      6.0749                 6.1341                 6.1512
 IR Inten    --     71.1554                20.7761                25.0846

                     76                     77                     78
                      A                      A                      A
 Frequencies --   3092.9420              3095.0837              3106.3923
 Red. masses --      1.1044                 1.1002                 1.1021
 Frc consts  --      6.2245                 6.2094                 6.2659
 IR Inten    --     62.1862                39.4982                59.9613

                     79                     80                     81
                      A                      A                      A
 Frequencies --   3109.4748              3114.7205              3734.6535
 Red. masses --      1.1024                 1.1014                 1.0657
 Frc consts  --      6.2802                 6.2956                 8.7574
 IR Inten    --     68.2468                38.0649                44.1367

 - Thermochemistry -
 -------------------
 Temperature   298.150 Kelvin.  Pressure   1.00000 Atm.
 Atom     1 has atomic number  6 and mass  12.00000

 Molecular mass:   154.13577 amu.
 Principal axes and moments of inertia in atomic units:
                           1         2         3
     Eigenvalues --  1216.319892855.150993587.82167
           X            0.99997  -0.00819  -0.00003
           Y            0.00819   0.99967   0.02426
           Z           -0.00017  -0.02426   0.99971
 This molecule is an asymmetric top.
 Rotational symmetry number  1.
 Warning -- assumption of classical behavior for rotation
           may cause significant error
 Rotational temperatures (Kelvin)      0.07121     0.03034     0.02414
 Rotational constants (GHZ):           1.48377     0.63210     0.50302
 Zero-point vibrational energy     692905.2 (Joules/Mol)
                                  165.60833 (Kcal/Mol)
 Warning -- explicit consideration of  19 degrees of freedom as
           vibrations may cause significant error
 Vibrational temperatures:     43.76    77.46   100.31   111.16   138.55
          (Kelvin)            174.55   253.43   275.73   340.99   368.88
                              403.30   445.21   488.05   554.44   614.80
                              659.74   661.13   786.21   853.89  1012.71
                             1078.06  1118.08  1136.17  1219.29  1246.32
                             1285.59  1367.28  1390.28  1442.62  1456.30
                             1477.59  1558.51  1569.79  1588.75  1624.77
                             1636.79  1684.19  1736.53  1764.45  1775.88
                             1796.70  1870.96  1877.75  1925.43  1962.75
                             1973.12  1991.91  2006.50  2032.36  2032.64
                             2048.03  2070.21  2077.92  2160.11  2164.41
                             2176.71  2180.92  2190.89  2193.25  2204.02
                             2206.60  2215.54  3396.40  4357.30  4365.34
                             4367.42  4377.73  4380.12  4384.13  4388.97
                             4392.59  4409.11  4417.06  4426.24  4430.88
                             4450.05  4453.14  4469.41  4473.84  4481.39
                             5373.33

 Zero-point correction=                           0.263914 (Hartree/Particle)
 Thermal correction to Energy=                    0.277401
 Thermal correction to Enthalpy=                  0.278346
 Thermal correction to Gibbs Free Energy=         0.222975
 Sum of electronic and zero-point Energies=           -466.845063
 Sum of electronic and thermal Energies=              -466.831575
 Sum of electronic and thermal Enthalpies=            -466.830631
 Sum of electronic and thermal Free Energies=         -466.886002

                     E (Thermal)             CV                S
                      KCal/Mol        Cal/Mol-Kelvin    Cal/Mol-Kelvin
 Total                  174.072             48.566            116.538
 Electronic               0.000              0.000              0.000
 Translational            0.889              2.981             41.008
 Rotational               0.889              2.981             30.900
 Vibrational            172.295             42.604             44.630
 Vibration     1          0.594              1.984              5.802
 Vibration     2          0.596              1.976              4.671
 Vibration     3          0.598              1.969              4.161
 Vibration     4          0.599              1.964              3.959
 Vibration     5          0.603              1.952              3.528
 Vibration     6          0.609              1.931              3.079
 Vibration     7          0.628              1.872              2.369
 Vibration     8          0.634              1.851              2.212
 Vibration     9          0.656              1.784              1.825
 Vibration    10          0.666              1.752              1.686
 Vibration    11          0.680              1.710              1.532
 Vibration    12          0.699              1.656              1.365
 Vibration    13          0.719              1.597              1.216
 Vibration    14          0.754              1.501              1.018
 Vibration    15          0.789              1.411              0.867
 Vibration    16          0.817              1.342              0.770
 Vibration    17          0.817              1.340              0.768
 Vibration    18          0.902              1.147              0.552
 Vibration    19          0.951              1.046              0.461

 Optimization completed.
    -- Stationary point found.
 Normal termination of Gaussian 16 at Tue Dec  8 20:48:01 2020.

 ----------------------------------------------------------------------
 # B3LYP/6-311++G(d,p) empiricaldispersion=gd3bj scf=xqc pop=npa geom=c
 heck
 ----------------------------------------------------------------------

 --------------------------------------
 CID_12650971_JID_1558_Energie_neutraal
 --------------------------------------
 Structure from the checkpoint file:  "JID_1558.chk"
 Charge =  0 Multiplicity = 1

 SCF Done:  E(RB3LYP) =  -467.251735384     A.U. after   13 cycles
 Normal termination of Gaussian 16 at Tue Dec  8 20:52:34 2020.

 ----------------------------------------------------------------------
 # B3LYP/6-311++G(d,p) empiricaldispersion=gd3bj scf=xqc pop=npa geom=c
 heck
 ----------------------------------------------------------------------

 ------------------------------------
 CID_12650971_JID_1558_Energie_kation
 ------------------------------------
 Structure from the checkpoint file:  "JID_1558.chk"
 Charge =  1 Multiplicity = 2

 SCF Done:  E(UB3LYP) =  -466.917098799     A.U. after   33 cycles
 SCF Done:  E(UB3LYP) =  -466.917609630     a.u. after    5 cycles
 Normal termination of Gaussian 16 at Tue Dec  8 21:27:21 2020.
 Gaussian 16:  ES64L-G16RevA.03 25-Dec-2016

 ----------------------------------------------------------------------
 # B3LYP/6-311++G(d,p) empiricaldispersion=gd3bj scf=xqc pop=npa geom=c
 heck
 ----------------------------------------------------------------------

 -----------------------------------
 CID_12650971_JID_1558_Energie_anion
 -----------------------------------
 Structure from the checkpoint file:  "JID_1558.chk"
 Charge = -1 Multiplicity = 2

                         Standard orientation:
 ---------------------------------------------------------------------
 Center     Atomic      Atomic             Coordinates (Angstroms)
 Number     Number       Type             X           Y           Z
 ---------------------------------------------------------------------
      1          6           0        3.169067   -1.437709   -0.725886
      2          6           0        1.853832   -1.211048    0.024251
      3          6           0        1.918019   -0.073727    1.054107
      4          6           0        2.212227    1.319441    0.479042
      5          6           0        1.266513    1.748991   -0.666659
      6          6           0       -0.149076    1.574346   -0.340198
      7          6           0       -1.305825    1.375026   -0.043158
      8          6           0       -2.675416    1.006373    0.322533
      9          6           0       -3.182764   -0.249981   -0.425002
     10          6           0       -2.142935   -1.376027   -0.477585
     11          8           0       -1.548888   -1.646501    0.787230
     12          1           0        3.452760   -0.563571   -1.323705
     13          1           0        3.093278   -2.291467   -1.408149
     14          1           0        3.990862   -1.639485   -0.027712
     15          1           0        1.049972   -1.010765   -0.695452
     16          1           0        1.561529   -2.133302    0.540860
     17          1           0        0.966078   -0.027892    1.598805
     18          1           0        2.684356   -0.309722    1.804863
     19          1           0        2.144167    2.055267    1.289157
     20          1           0        3.239968    1.366532    0.098939
     21          1           0        1.468090    2.796547   -0.925716
     22          1           0        1.496400    1.165696   -1.568399
     23          1           0       -2.707739    0.806281    1.400982
     24          1           0       -3.362051    1.843229    0.144708
     25          1           0       -4.089658   -0.598820    0.082422
     26          1           0       -3.461448    0.013810   -1.453179
     27          1           0       -2.620184   -2.307480   -0.798536
     28          1           0       -1.371876   -1.125552   -1.219575
     29          1           0       -0.925243   -0.921400    0.953175
 ---------------------------------------------------------------------

 SCF Done:  E(UB3LYP) =  -467.235610825     A.U. after   30 cycles

 The electronic state is 2-A.
 Alpha  occ. eigenvalues --  -19.01943 -10.11366 -10.09301 -10.08668 -10.07407
 Alpha  occ. eigenvalues --  -10.06778 -10.06301 -10.06240 -10.06034 -10.05962
 Alpha  occ. eigenvalues --  -10.05313  -0.92121  -0.71752  -0.70299  -0.66696
 Alpha  occ. eigenvalues --   -0.63062  -0.59950  -0.57391  -0.52610  -0.50036
 Alpha  occ. eigenvalues --   -0.45948  -0.41768  -0.38550  -0.37493  -0.37173
 Alpha  occ. eigenvalues --   -0.35910  -0.34996  -0.33685  -0.31835  -0.31652
 Alpha  occ. eigenvalues --   -0.29030  -0.28120  -0.27804  -0.27211  -0.26792
 Alpha  occ. eigenvalues --   -0.25946  -0.23071  -0.22498  -0.22162  -0.22118
 Alpha  occ. eigenvalues --   -0.17772  -0.15660  -0.15529   0.04648
 Alpha virt. eigenvalues --    0.06445   0.07471   0.07915   0.08624   0.09000
 Alpha virt. eigenvalues --    0.09349   0.10462   0.10718   0.11205   0.11866
 Alpha virt. eigenvalues --    0.12048   0.12401   0.13152   0.13722   0.14818

  Beta  occ. eigenvalues --  -19.01933 -10.11352 -10.09279 -10.08639 -10.07383
  Beta  occ. eigenvalues --  -10.06752 -10.06288 -10.06233 -10.06023 -10.05954
  Beta  occ. eigenvalues --  -10.05270  -0.92101  -0.71712  -0.70258  -0.66654
  Beta  occ. eigenvalues --   -0.63018  -0.59896  -0.57338  -0.52534  -0.49974
  Beta  occ. eigenvalues --   -0.45880  -0.41738  -0.38502  -0.37449  -0.37128
  Beta  occ. eigenvalues --   -0.35871  -0.34962  -0.33645  -0.31803  -0.31603
  Beta  occ. eigenvalues --   -0.28993  -0.28071  -0.27755  -0.27169  -0.26752
  Beta  occ. eigenvalues --   -0.25905  -0.23044  -0.22468  -0.22127  -0.22079
  Beta  occ. eigenvalues --   -0.17736  -0.15635  -0.15482
  Beta virt. eigenvalues --    0.06776   0.07391   0.08048   0.08521   0.09149
  Beta virt. eigenvalues --    0.09463   0.09854   0.10930   0.11070   0.11673
  Beta virt. eigenvalues --    0.12225   0.12399   0.12683   0.13471   0.13913

 Mulliken charges and spin densities:
               1          2
     1  C    1.159578  -1.850543
     2  C   -1.054014   0.800630
     3  C    0.252809  -0.190130
     4  C    0.246116  -0.695963
     5  C   -1.391957   1.090130
     6  C    1.465024  -1.406366
     7  C    1.131323  -0.985833
     8  C   -1.167710   0.515135
     9  C    0.214536  -0.386194
    10  C    0.212070  -0.559841
    11  O   -0.231011   0.031962
    12  H   -0.179568   0.326984
    13  H   -0.271780   0.403503
    14  H   -0.295364   0.432197
    15  H    0.535022  -0.442210
    16  H    0.005327   0.179021
    17  H    0.009359   0.055967
    18  H   -0.128755   0.293467
    19  H   -0.182158   0.349732
    20  H   -0.313785   0.470014
    21  H   -0.276032   0.459076
    22  H   -0.265766   0.447486
    23  H    0.018353   0.198452
    24  H   -0.265787   0.427440
    25  H   -0.170513   0.324660
    26  H   -0.181519   0.329053
    27  H   -0.149713   0.305399
    28  H   -0.018984   0.119411
    29  H    0.294900  -0.042639
 Sum of Mulliken charges =  -1.00000   1.00000

 Dipole moment (field-independent basis, Debye):
    X=             -2.0988    Y=             -0.7054    Z=              1.2395  Tot=              2.5375
 Quadrupole moment (field-independent basis, Debye-Ang):
   XX=           -142.5079   YY=           -116.5836   ZZ=           -101.1856
   XY=              1.8401   XZ=              2.2993   YZ=              2.0267

 Summary of Natural Population Analysis:

                                       Natural Population
                Natural  -----------------------------------------------
    Atom  No    Charge         Core      Valence    Rydberg      Total
 -----------------------------------------------------------------------
      C    1   -0.28652      0.99967     2.28182    0.00503     3.28652
      C    2   -0.19778      0.99964     2.18822    0.00993     3.19778
      C    3   -0.18989      0.99962     2.18169    0.00858     3.18989
      C    4   -0.18187      0.99963     2.17368    0.00856     3.18187
      C    5   -0.22739      0.99957     2.21809    0.00973     3.22739
      C    6   -0.00468      0.99925     1.99691    0.00853     3.00468
      C    7   -0.02360      0.99925     2.01585    0.00850     3.02360
      C    8   -0.22802      0.99957     2.21830    0.01015     3.22802
      C    9   -0.19337      0.99963     2.18510    0.00864     3.19337
      C   10   -0.01150      0.99960     2.00042    0.01148     3.01150
      O   11   -0.37236      0.99990     3.36602    0.00644     4.37236
      H   12    0.09701      0.00000     0.40158    0.00141     0.40299
      H   13    0.09883      0.00000     0.40018    0.00099     0.40117
      H   14    0.09559      0.00000     0.40313    0.00128     0.40441
      H   15    0.09494      0.00000     0.40308    0.00198     0.40506
      H   16    0.09846      0.00000     0.40049    0.00105     0.40154
      H   17    0.09356      0.00000     0.40495    0.00149     0.40644
      H   18    0.09743      0.00000     0.40150    0.00106     0.40257
      H   19    0.09797      0.00000     0.40075    0.00128     0.40203
      H   20    0.09956      0.00000     0.39873    0.00171     0.40044
      H   21    0.11341      0.00000     0.38501    0.00158     0.38659
      H   22    0.11101      0.00000     0.38726    0.00172     0.38899
      H   23    0.11091      0.00000     0.38762    0.00146     0.38909
      H   24    0.11297      0.00000     0.38542    0.00161     0.38703
      H   25    0.09717      0.00000     0.40148    0.00135     0.40283
      H   26    0.09941      0.00000     0.39912    0.00146     0.40059
      H   27    0.08529      0.00000     0.41347    0.00124     0.41471
      H   28    0.08071      0.00000     0.41753    0.00176     0.41929
      H   29    0.23276      0.00000     0.26324    0.00399     0.26724
 =======================================================================
   * Total *    0.00000     10.99532    31.88068    0.12400    43.00000

 Normal termination of Gaussian 16 at Tue Dec  8 21:37:47 2020.
