 Gaussian 16, Revision A.03,

 -----------------------------------------------------------
 # opt freq B3LYP/6-31G(d) empiricaldispersion=gd3bj scf=xqc
 -----------------------------------------------------------

 -------------------------------
 CID_132390525_JID_8659_neutraal
 -------------------------------
 Symbolic Z-matrix:
 Charge =  0 Multiplicity = 1

 SCF Done:  E(RB3LYP) =  -1268.16013934     A.U. after   15 cycles
 SCF Done:  E(RB3LYP) =  -1268.17136979     A.U. after   13 cycles
 SCF Done:  E(RB3LYP) =  -1268.17276577     A.U. after   11 cycles
 SCF Done:  E(RB3LYP) =  -1268.17307139     A.U. after   11 cycles
 SCF Done:  E(RB3LYP) =  -1268.17319738     A.U. after   12 cycles
 SCF Done:  E(RB3LYP) =  -1268.17325514     A.U. after   11 cycles
 SCF Done:  E(RB3LYP) =  -1268.17330568     A.U. after   11 cycles
 SCF Done:  E(RB3LYP) =  -1268.17339539     A.U. after   11 cycles
 SCF Done:  E(RB3LYP) =  -1268.17339897     A.U. after   11 cycles
 SCF Done:  E(RB3LYP) =  -1268.17343731     A.U. after   10 cycles
 SCF Done:  E(RB3LYP) =  -1268.17452675     A.U. after   10 cycles
 SCF Done:  E(RB3LYP) =  -1268.17452734     A.U. after    8 cycles
 SCF Done:  E(RB3LYP) =  -1268.17452742     A.U. after    8 cycles
 SCF Done:  E(RB3LYP) =  -1268.17452742     A.U. after    7 cycles
 SCF Done:  E(RB3LYP) =  -1268.17452740     A.U. after    6 cycles
 Optimization completed.
    -- Stationary point found.
 Normal termination of Gaussian 16 at Fri Dec 11 22:05:36 2020.

 --------------------------------------------------------------------
 #N Geom=AllCheck Guess=TCheck SCRF=Check GenChk RB3LYP/6-31G(d) Freq
 --------------------------------------------------------------------

 Structure from the checkpoint file:  "JID_8659.chk"
 -------------------------------
 CID_132390525_JID_8659_neutraal
 -------------------------------
 Charge =  0 Multiplicity = 1

 SCF Done:  E(RB3LYP) =  -1268.17452740     A.U. after    1 cycles

  Exact polarizability: 158.801 -19.340 141.521   1.310  11.675 121.811
 Approx polarizability: 222.802 -34.026 238.220   4.311  18.909 197.202

                      1                      2                      3
                      A                      A                      A
 Frequencies --     18.1874                21.0760                28.5920
 Red. masses --      4.1597                 5.6953                 4.8122
 Frc consts  --      0.0008                 0.0015                 0.0023
 IR Inten    --      0.4517                 1.1000                 0.5977

                      4                      5                      6
                      A                      A                      A
 Frequencies --     61.2904                67.2694                87.8756
 Red. masses --      4.3650                 1.0880                 3.2270
 Frc consts  --      0.0097                 0.0029                 0.0147
 IR Inten    --      1.4921                 0.2084                 3.0360

                      7                      8                      9
                      A                      A                      A
 Frequencies --    106.3451               135.9985               162.2065
 Red. masses --      1.2450                 4.9498                 4.7164
 Frc consts  --      0.0083                 0.0539                 0.0731
 IR Inten    --      1.5837                 6.2427                 0.6617

                     10                     11                     12
                      A                      A                      A
 Frequencies --    181.2868               194.5102               227.3716
 Red. masses --      5.5240                 5.3567                 3.7575
 Frc consts  --      0.1070                 0.1194                 0.1145
 IR Inten    --      4.5330                 3.9055                 3.3795

                     13                     14                     15
                      A                      A                      A
 Frequencies --    251.1641               269.6480               287.5507
 Red. masses --      2.8343                 3.7352                 5.7882
 Frc consts  --      0.1053                 0.1600                 0.2820
 IR Inten    --      0.6125                 9.8642                 0.3640

                     16                     17                     18
                      A                      A                      A
 Frequencies --    324.7865               344.5707               369.8154
 Red. masses --      4.7382                 5.0961                 5.0457
 Frc consts  --      0.2945                 0.3565                 0.4066
 IR Inten    --      0.0868                 3.5476                 2.7945

                     19                     20                     21
                      A                      A                      A
 Frequencies --    372.8969               397.2644               451.2649
 Red. masses --      3.7003                 3.7109                 3.2431
 Frc consts  --      0.3032                 0.3451                 0.3891
 IR Inten    --     11.1033                 0.6234                 7.8115

                     22                     23                     24
                      A                      A                      A
 Frequencies --    456.3046               521.1029               536.1385
 Red. masses --      1.6947                 4.7043                 4.8470
 Frc consts  --      0.2079                 0.7526                 0.8209
 IR Inten    --     24.7661                38.3883                 5.9720

                     25                     26                     27
                      A                      A                      A
 Frequencies --    570.0285               610.0066               627.0416
 Red. masses --      4.5883                 4.3971                 2.4280
 Frc consts  --      0.8784                 0.9640                 0.5625
 IR Inten    --    158.3495                29.5734                76.6097

                     28                     29                     30
                      A                      A                      A
 Frequencies --    635.5719               637.6677               660.2145
 Red. masses --      6.8668                 5.2804                 1.6820
 Frc consts  --      1.6343                 1.2651                 0.4320
 IR Inten    --      2.3814                26.4995               134.4664

                     31                     32                     33
                      A                      A                      A
 Frequencies --    664.5266               688.2612               728.9986
 Red. masses --      3.4741                 3.4008                 5.5798
 Frc consts  --      0.9039                 0.9492                 1.7471
 IR Inten    --     16.3644                14.8020                71.0029

                     34                     35                     36
                      A                      A                      A
 Frequencies --    765.2015               790.8147               877.5591
 Red. masses --      4.4105                 5.7804                 2.6328
 Frc consts  --      1.5216                 2.1299                 1.1946
 IR Inten    --     33.6538                23.7864               172.0274

                     37                     38                     39
                      A                      A                      A
 Frequencies --    897.5385               902.0044               906.0216
 Red. masses --      4.7867                 1.3772                 5.5639
 Frc consts  --      2.2719                 0.6602                 2.6910
 IR Inten    --     12.5196                 9.6445                 4.6935

                     40                     41                     42
                      A                      A                      A
 Frequencies --    962.9723               998.0743              1015.1838
 Red. masses --      5.9710                 1.8610                 2.0451
 Frc consts  --      3.2623                 1.0923                 1.2418
 IR Inten    --     26.8424                31.4250                 6.2034

                     43                     44                     45
                      A                      A                      A
 Frequencies --   1024.3755              1063.8857              1079.5287
 Red. masses --      2.1676                 4.1015                 1.5653
 Frc consts  --      1.3401                 2.7352                 1.0748
 IR Inten    --      6.9522                68.5549                 6.9200

                     46                     47                     48
                      A                      A                      A
 Frequencies --   1079.7531              1092.1264              1095.4271
 Red. masses --      1.5608                 4.0069                11.9702
 Frc consts  --      1.0721                 2.8158                 8.4629
 IR Inten    --      9.9725                 6.1832               128.3107

                     49                     50                     51
                      A                      A                      A
 Frequencies --   1166.5591              1176.1035              1201.7727
 Red. masses --      1.5982                 2.1417                 8.9348
 Frc consts  --      1.2815                 1.7454                 7.6029
 IR Inten    --      2.6178                29.2251                19.5048

                     52                     53                     54
                      A                      A                      A
 Frequencies --   1216.8549              1267.9306              1286.3151
 Red. masses --      1.6933                 1.8075                 3.1461
 Frc consts  --      1.4773                 1.7120                 3.0670
 IR Inten    --      0.5995                22.8341                37.2435

                     55                     56                     57
                      A                      A                      A
 Frequencies --   1311.3406              1338.5556              1381.9800
 Red. masses --      4.2870                 5.0730                 1.2965
 Frc consts  --      4.3434                 5.3554                 1.4589
 IR Inten    --    118.9116                66.1543                15.3926

                     58                     59                     60
                      A                      A                      A
 Frequencies --   1419.7611              1438.0826              1446.5639
 Red. masses --      2.5804                 1.2657                 1.3615
 Frc consts  --      3.0646                 1.5422                 1.6786
 IR Inten    --     12.1658                 1.7122                 4.2475

                     61                     62                     63
                      A                      A                      A
 Frequencies --   1456.2986              1497.4393              1502.9444
 Red. masses --      1.6582                 1.4489                 1.0451
 Frc consts  --      2.0720                 1.9142                 1.3909
 IR Inten    --     36.0964                32.8989                 5.5096

                     64                     65                     66
                      A                      A                      A
 Frequencies --   1508.2663              1513.3143              1514.0958
 Red. masses --      1.4941                 1.1234                 1.4094
 Frc consts  --      2.0025                 1.5158                 1.9036
 IR Inten    --     37.1861                 4.4493                41.6570

                     67                     68                     69
                      A                      A                      A
 Frequencies --   1534.7294              1540.9751              1570.3499
 Red. masses --      1.8022                 1.8531                 4.1863
 Frc consts  --      2.5010                 2.5926                 6.0823
 IR Inten    --     23.2455                21.7882                 4.8242

                     70                     71                     72
                      A                      A                      A
 Frequencies --   1653.2048              1676.4298              1691.3766
 Red. masses --      2.6264                 1.9014                 7.1787
 Frc consts  --      4.2292                 3.1484                12.0997
 IR Inten    --    105.4214               271.5226                33.5699

                     73                     74                     75
                      A                      A                      A
 Frequencies --   3055.4753              3061.4979              3065.0819
 Red. masses --      1.0601                 1.0374                 1.0402
 Frc consts  --      5.8312                 5.7291                 5.7576
 IR Inten    --     13.9228                16.2418                 6.6064

                     76                     77                     78
                      A                      A                      A
 Frequencies --   3099.7043              3119.3806              3128.0864
 Red. masses --      1.1036                 1.1015                 1.0981
 Frc consts  --      6.2473                 6.3149                 6.3304
 IR Inten    --      9.0313                 6.2279                 4.6968

                     79                     80                     81
                      A                      A                      A
 Frequencies --   3151.1501              3180.4149              3260.7262
 Red. masses --      1.1013                 1.1016                 1.0962
 Frc consts  --      6.4433                 6.5652                 6.8670
 IR Inten    --      9.6878                 0.1303                 1.5944

                     82                     83                     84
                      A                      A                      A
 Frequencies --   3507.6629              3538.9482              3652.8831
 Red. masses --      1.0751                 1.0480                 1.0993
 Frc consts  --      7.7933                 7.7335                 8.6426
 IR Inten    --     25.8749                42.3113                61.3934

 - Thermochemistry -
 -------------------
 Temperature   298.150 Kelvin.  Pressure   1.00000 Atm.
 Atom     1 has atomic number  6 and mass  12.00000

 Molecular mass:   272.05793 amu.
 Principal axes and moments of inertia in atomic units:
                           1         2         3
     Eigenvalues --  2860.287368376.260388743.10865
           X            0.99974  -0.02040  -0.01021
           Y            0.02205   0.97894   0.20297
           Z            0.00586  -0.20314   0.97913
 This molecule is an asymmetric top.
 Rotational symmetry number  1.
 Warning -- assumption of classical behavior for rotation
           may cause significant error
 Rotational temperatures (Kelvin)      0.03028     0.01034     0.00991
 Rotational constants (GHZ):           0.63096     0.21546     0.20642
 Zero-point vibrational energy     594421.8 (Joules/Mol)
                                  142.07021 (Kcal/Mol)
 Warning -- explicit consideration of  26 degrees of freedom as
           vibrations may cause significant error
 Vibrational temperatures:     26.17    30.32    41.14    88.18    96.79
          (Kelvin)            126.43   153.01   195.67   233.38   260.83
                              279.86   327.14   361.37   387.96   413.72
                              467.30   495.76   532.08   536.52   571.57
                              649.27   656.52   749.75   771.38   820.14
                              877.66   902.17   914.45   917.46   949.90
                              956.11   990.25  1048.87  1100.95  1137.81
                             1262.61  1291.36  1297.78  1303.56  1385.50
                             1436.01  1460.62  1473.85  1530.69  1553.20
                             1553.52  1571.33  1576.08  1678.42  1692.15
                             1729.08  1750.78  1824.27  1850.72  1886.73
                             1925.88  1988.36  2042.72  2069.08  2081.28
                             2095.29  2154.48  2162.40  2170.06  2177.32
                             2178.45  2208.13  2217.12  2259.38  2378.59
                             2412.01  2433.51  4396.15  4404.81  4409.97
                             4459.78  4488.09  4500.62  4533.80  4575.91
                             4691.46  5046.74  5091.76  5255.68

 Zero-point correction=                           0.226403 (Hartree/Particle)
 Thermal correction to Energy=                    0.244131
 Thermal correction to Enthalpy=                  0.245075
 Thermal correction to Gibbs Free Energy=         0.177638
 Sum of electronic and zero-point Energies=          -1267.948124
 Sum of electronic and thermal Energies=             -1267.930396
 Sum of electronic and thermal Enthalpies=           -1267.929452
 Sum of electronic and thermal Free Energies=        -1267.996890

                     E (Thermal)             CV                S
                      KCal/Mol        Cal/Mol-Kelvin    Cal/Mol-Kelvin
 Total                  153.194             64.507            141.934
 Electronic               0.000              0.000              0.000
 Translational            0.889              2.981             42.701
 Rotational               0.889              2.981             33.704
 Vibrational            151.417             58.545             65.529
 Vibration     1          0.593              1.986              6.823
 Vibration     2          0.593              1.985              6.530
 Vibration     3          0.593              1.984              5.925
 Vibration     4          0.597              1.973              4.415
 Vibration     5          0.598              1.970              4.232
 Vibration     6          0.601              1.958              3.707
 Vibration     7          0.605              1.944              3.335
 Vibration     8          0.614              1.917              2.859
 Vibration     9          0.622              1.889              2.524
 Vibration    10          0.630              1.865              2.315
 Vibration    11          0.635              1.848              2.184
 Vibration    12          0.651              1.799              1.900
 Vibration    13          0.663              1.761              1.722
 Vibration    14          0.674              1.729              1.598
 Vibration    15          0.685              1.697              1.488
 Vibration    16          0.709              1.626              1.286
 Vibration    17          0.723              1.586              1.191
 Vibration    18          0.742              1.534              1.081
 Vibration    19          0.744              1.528              1.068
 Vibration    20          0.764              1.476              0.973
 Vibration    21          0.810              1.358              0.792
 Vibration    22          0.815              1.347              0.777
 Vibration    23          0.876              1.203              0.607
 Vibration    24          0.891              1.170              0.574
 Vibration    25          0.926              1.096              0.504
 Vibration    26          0.969              1.011              0.433

 Optimization completed.
    -- Stationary point found.
 Normal termination of Gaussian 16 at Fri Dec 11 22:17:41 2020.

 ----------------------------------------------------------------------
 # B3LYP/6-311++G(d,p) empiricaldispersion=gd3bj scf=xqc pop=npa geom=c
 heck
 ----------------------------------------------------------------------

 ---------------------------------------
 CID_132390525_JID_8659_Energie_neutraal
 ---------------------------------------
 Structure from the checkpoint file:  "JID_8659.chk"
 Charge =  0 Multiplicity = 1

 SCF Done:  E(RB3LYP) =  -1268.44992259     A.U. after   16 cycles
 Normal termination of Gaussian 16 at Fri Dec 11 22:23:44 2020.

 ----------------------------------------------------------------------
 # B3LYP/6-311++G(d,p) empiricaldispersion=gd3bj scf=xqc pop=npa geom=c
 heck
 ----------------------------------------------------------------------

 -------------------------------------
 CID_132390525_JID_8659_Energie_kation
 -------------------------------------
 Structure from the checkpoint file:  "JID_8659.chk"
 Charge =  1 Multiplicity = 2

 SCF Done:  E(UB3LYP) =  -1268.12403447     A.U. after   30 cycles
 Normal termination of Gaussian 16 at Fri Dec 11 22:39:52 2020.
 Gaussian 16:  ES64L-G16RevA.03 25-Dec-2016

 ----------------------------------------------------------------------
 # B3LYP/6-311++G(d,p) empiricaldispersion=gd3bj scf=xqc pop=npa geom=c
 heck
 ----------------------------------------------------------------------

 ------------------------------------
 CID_132390525_JID_8659_Energie_anion
 ------------------------------------
 Structure from the checkpoint file:  "JID_8659.chk"
 Charge = -1 Multiplicity = 2

                         Standard orientation:
 ---------------------------------------------------------------------
 Center     Atomic      Atomic             Coordinates (Angstroms)
 Number     Number       Type             X           Y           Z
 ---------------------------------------------------------------------
      1          6           0        4.429151   -1.465244   -0.311945
      2          6           0        3.779675   -0.128807   -0.230767
      3          6           0        2.477783    0.290997   -0.230581
      4          6           0        2.588850    1.710366   -0.128531
      5          7           0        3.831999    2.116521   -0.076462
      6          8           0        4.598503    0.941231   -0.145082
      7          6           0        1.229820   -0.523689   -0.299650
      8          7           0        0.418577   -0.275638    0.912101
      9         16           0       -1.084231   -1.044020    0.964574
     10          8           0       -1.023033   -2.352952    0.289137
     11          8           0       -1.518102   -0.944653    2.359283
     12          6           0       -2.064293   -0.024797   -0.060652
     13          6           0       -2.730216    1.125956    0.272777
     14          8           0       -3.373297    1.579758   -0.805348
     15          7           0       -3.145964    0.719158   -1.916309
     16          6           0       -2.356890   -0.229586   -1.454144
     17          7           0       -1.844662   -1.222371   -2.250812
     18          6           0       -2.844413    1.905631    1.531662
     19          1           0        5.105208   -1.619964    0.535771
     20          1           0        3.676052   -2.257073   -0.307273
     21          1           0        5.020871   -1.557108   -1.229634
     22          1           0        1.789405    2.439367   -0.086021
     23          1           0        0.618239   -0.231069   -1.160095
     24          1           0        1.461975   -1.588554   -0.421334
     25          1           0        0.914185   -0.490793    1.777556
     26          1           0       -2.337897   -1.353391   -3.125281
     27          1           0       -1.630186   -2.077224   -1.747878
     28          1           0       -2.241856    2.819245    1.467816
     29          1           0       -3.884677    2.200198    1.699161
     30          1           0       -2.492641    1.304965    2.371477
 ---------------------------------------------------------------------

 SCF Done:  E(UB3LYP) =  -1268.44651083     A.U. after   33 cycles
 SCF Done:  E(UB3LYP) =  -1268.44651083     a.u. after    1 cycles

 The electronic state is 2-A.
 Alpha  occ. eigenvalues --  -88.95123 -19.08446 -19.06334 -19.00683 -19.00590
 Alpha  occ. eigenvalues --  -14.23919 -14.23178 -14.21984 -14.21731 -10.13002
 Alpha  occ. eigenvalues --  -10.12197 -10.11592 -10.10025 -10.09254 -10.09132
 Alpha  occ. eigenvalues --  -10.07371 -10.06675 -10.06150  -8.01226  -5.97515
 Alpha  occ. eigenvalues --   -5.97491  -5.97334  -1.02444  -1.00964  -1.00380
 Alpha  occ. eigenvalues --   -0.89982  -0.83056  -0.82032  -0.75855  -0.72202
 Alpha  occ. eigenvalues --   -0.71003  -0.68929  -0.63639  -0.61300  -0.59045
 Alpha  occ. eigenvalues --   -0.54880  -0.50167  -0.48524  -0.47648  -0.46591
 Alpha  occ. eigenvalues --   -0.43136  -0.41383  -0.39550  -0.38800  -0.38235
 Alpha  occ. eigenvalues --   -0.37302  -0.36561  -0.35782  -0.35300  -0.33938
 Alpha  occ. eigenvalues --   -0.32157  -0.31675  -0.31387  -0.30994  -0.29907
 Alpha  occ. eigenvalues --   -0.29058  -0.28860  -0.27306  -0.26284  -0.24709
 Alpha  occ. eigenvalues --   -0.23831  -0.22023  -0.21531  -0.20356  -0.19672
 Alpha  occ. eigenvalues --   -0.19151  -0.18480  -0.17389  -0.14852  -0.14361
 Alpha  occ. eigenvalues --   -0.12654   0.05346
 Alpha virt. eigenvalues --    0.06548   0.07506   0.08215   0.08522   0.09504
 Alpha virt. eigenvalues --    0.10514   0.10617   0.11195   0.12050   0.12645
 Alpha virt. eigenvalues --    0.13016   0.13563   0.13759   0.14365   0.14673

  Beta  occ. eigenvalues --  -88.95096 -19.08276 -19.06050 -19.00658 -19.00545
  Beta  occ. eigenvalues --  -14.23731 -14.23113 -14.21985 -14.21643 -10.13017
  Beta  occ. eigenvalues --  -10.11930 -10.11592 -10.09413 -10.09239 -10.09152
  Beta  occ. eigenvalues --  -10.07411 -10.06679 -10.06200  -8.01199  -5.97495
  Beta  occ. eigenvalues --   -5.97410  -5.97318  -1.02136  -1.00813  -0.99945
  Beta  occ. eigenvalues --   -0.89911  -0.83007  -0.81923  -0.75587  -0.71930
  Beta  occ. eigenvalues --   -0.70763  -0.68471  -0.63517  -0.61077  -0.58929
  Beta  occ. eigenvalues --   -0.54620  -0.50060  -0.48407  -0.47373  -0.46353
  Beta  occ. eigenvalues --   -0.42957  -0.41310  -0.39373  -0.38680  -0.37980
  Beta  occ. eigenvalues --   -0.36758  -0.36256  -0.35509  -0.34269  -0.33828
  Beta  occ. eigenvalues --   -0.32049  -0.31374  -0.31252  -0.30830  -0.29585
  Beta  occ. eigenvalues --   -0.28960  -0.28695  -0.27160  -0.26030  -0.24236
  Beta  occ. eigenvalues --   -0.23589  -0.21907  -0.21396  -0.20218  -0.19428
  Beta  occ. eigenvalues --   -0.18630  -0.18294  -0.17059  -0.13958  -0.13362
  Beta  occ. eigenvalues --   -0.11811
  Beta virt. eigenvalues --    0.06589   0.08170   0.08548   0.09082   0.09903
  Beta virt. eigenvalues --    0.10196   0.10645   0.11216   0.11503   0.12244
  Beta virt. eigenvalues --    0.12729   0.13049   0.13505   0.13804   0.14535

 Mulliken charges and spin densities:
               1          2
     1  C   -0.522432  -0.069543
     2  C    0.056659   0.206328
     3  C    0.399086   0.081521
     4  C    0.099230  -0.011307
     5  N   -0.316327   0.077968
     6  O    0.114668   0.042949
     7  C   -1.399787  -0.170458
     8  N    0.019142  -0.040198
     9  S    0.442182   0.095136
    10  O   -0.238833   0.009919
    11  O   -0.185823  -0.013016
    12  C   -0.083320   0.048850
    13  C   -0.310974   0.328387
    14  O    0.106509   0.063644
    15  N   -0.443162   0.043830
    16  C    0.146281   0.024053
    17  N   -0.318111  -0.003990
    18  C   -0.504903  -0.149717
    19  H    0.131859   0.026911
    20  H    0.137972  -0.002719
    21  H    0.064132   0.107529
    22  H    0.184147   0.030513
    23  H    0.148983   0.006224
    24  H    0.229061  -0.009459
    25  H    0.210781   0.075707
    26  H    0.274421   0.004193
    27  H    0.242158  -0.000473
    28  H   -0.018902   0.197002
    29  H    0.150604   0.000206
    30  H    0.184697   0.000010
 Sum of Mulliken charges =  -1.00000   1.00000

 Dipole moment (field-independent basis, Debye):
    X=              0.8808    Y=             -3.9134    Z=             -0.4750  Tot=              4.0394
 Quadrupole moment (field-independent basis, Debye-Ang):
   XX=           -179.0502   YY=           -138.8875   ZZ=           -131.3843
   XY=             -9.8173   XZ=             -0.2138   YZ=              8.3006

 Summary of Natural Population Analysis:

                                       Natural Population
                Natural  -----------------------------------------------
    Atom  No    Charge         Core      Valence    Rydberg      Total
 -----------------------------------------------------------------------
      C    1   -0.30946      0.99963     2.30493    0.00489     3.30946
      C    2    0.21310      0.99944     1.77261    0.01486     2.78690
      C    3   -0.10906      0.99944     2.09839    0.01123     3.10906
      C    4    0.00265      0.99961     1.98400    0.01374     2.99735
      N    5   -0.06264      0.99971     2.54983    0.01310     3.56264
      O    6   -0.16271      0.99985     3.15328    0.00959     4.16271
      C    7   -0.10566      0.99959     2.09164    0.01444     3.10566
      N    8   -0.42524      0.99976     2.91245    0.01303     3.92524
      S    9    1.12855      4.99920     1.77388    0.09838     6.87145
      O   10   -0.48178      0.99990     3.47653    0.00535     4.48178
      O   11   -0.46763      0.99990     3.46252    0.00520     4.46763
      C   12   -0.25109      0.99923     2.23960    0.01226     3.25109
      C   13    0.30805      0.99946     1.67960    0.01288     2.69195
      O   14   -0.15051      0.99985     3.14007    0.01060     4.15051
      N   15   -0.12486      0.99966     2.61177    0.01343     3.62486
      C   16    0.17419      0.99956     1.81064    0.01562     2.82581
      N   17   -0.40642      0.99970     2.89813    0.00859     3.90642
      C   18   -0.32298      0.99963     2.31542    0.00794     3.32298
      H   19    0.10836      0.00000     0.39080    0.00084     0.39164
      H   20    0.10579      0.00000     0.39341    0.00080     0.39421
      H   21    0.10885      0.00000     0.38958    0.00157     0.39115
      H   22    0.10392      0.00000     0.39392    0.00216     0.39608
      H   23    0.11074      0.00000     0.38806    0.00120     0.38926
      H   24    0.09617      0.00000     0.40258    0.00125     0.40383
      H   25    0.19131      0.00000     0.30583    0.00286     0.30869
      H   26    0.18605      0.00000     0.31235    0.00160     0.31395
      H   27    0.20305      0.00000     0.29535    0.00159     0.29695
      H   28    0.11308      0.00000     0.38469    0.00223     0.38692
      H   29    0.10756      0.00000     0.39159    0.00086     0.39244
      H   30    0.11863      0.00000     0.38029    0.00108     0.38137
 =======================================================================
   * Total *    0.00000     21.99310    48.70374    0.30316    71.00000

 Normal termination of Gaussian 16 at Fri Dec 11 22:58:03 2020.
