 Gaussian 16, Revision A.03,

 -----------------------------------------------------------
 # opt freq B3LYP/6-31G(d) empiricaldispersion=gd3bj scf=xqc
 -----------------------------------------------------------

 ------------------------------
 CID_60948559_JID_4161_neutraal
 ------------------------------
 Symbolic Z-matrix:
 Charge =  0 Multiplicity = 1

 SCF Done:  E(RB3LYP) =  -614.710612688     A.U. after   15 cycles
 SCF Done:  E(RB3LYP) =  -614.719471522     A.U. after   12 cycles
 SCF Done:  E(RB3LYP) =  -614.722397092     A.U. after   12 cycles
 SCF Done:  E(RB3LYP) =  -614.725730923     A.U. after   14 cycles
 SCF Done:  E(RB3LYP) =  -614.727266222     A.U. after   12 cycles
 SCF Done:  E(RB3LYP) =  -614.728171176     A.U. after   13 cycles
 SCF Done:  E(RB3LYP) =  -614.728396406     A.U. after   11 cycles
 SCF Done:  E(RB3LYP) =  -614.728479223     A.U. after   11 cycles
 SCF Done:  E(RB3LYP) =  -614.728521036     A.U. after   11 cycles
 SCF Done:  E(RB3LYP) =  -614.728544911     A.U. after   10 cycles
 SCF Done:  E(RB3LYP) =  -614.728584132     A.U. after   11 cycles
 SCF Done:  E(RB3LYP) =  -614.728605109     A.U. after   10 cycles
 SCF Done:  E(RB3LYP) =  -614.728611016     A.U. after   10 cycles
 SCF Done:  E(RB3LYP) =  -614.728612161     A.U. after    8 cycles
 SCF Done:  E(RB3LYP) =  -614.728612302     A.U. after    8 cycles
 Optimization completed.
    -- Stationary point found.
 Normal termination of Gaussian 16 at Thu Dec 10 09:20:53 2020.

 --------------------------------------------------------------------
 #N Geom=AllCheck Guess=TCheck SCRF=Check GenChk RB3LYP/6-31G(d) Freq
 --------------------------------------------------------------------

 Structure from the checkpoint file:  "JID_4161.chk"
 ------------------------------
 CID_60948559_JID_4161_neutraal
 ------------------------------
 Charge =  0 Multiplicity = 1

 SCF Done:  E(RB3LYP) =  -614.728612302     A.U. after    1 cycles

  Exact polarizability: 158.069   3.781 124.337   2.491   1.874  98.249
 Approx polarizability: 192.745  -0.914 203.061   1.904   4.555 149.226

                      1                      2                      3
                      A                      A                      A
 Frequencies --     33.2901                42.9698                72.6081
 Red. masses --      5.2567                 3.2329                 3.2065
 Frc consts  --      0.0034                 0.0035                 0.0100
 IR Inten    --      1.4395                 0.7808                 0.7903

                      4                      5                      6
                      A                      A                      A
 Frequencies --    100.7258               109.3062               137.9889
 Red. masses --      3.8458                 3.4099                 2.6449
 Frc consts  --      0.0230                 0.0240                 0.0297
 IR Inten    --      0.9443                 0.0458                 1.8992

                      7                      8                      9
                      A                      A                      A
 Frequencies --    163.0215               202.2606               265.9240
 Red. masses --      2.6668                 2.7709                 2.7382
 Frc consts  --      0.0418                 0.0668                 0.1141
 IR Inten    --      1.6029                 0.1524                 4.1579

                     10                     11                     12
                      A                      A                      A
 Frequencies --    286.4184               315.1979               337.7085
 Red. masses --      2.9292                 3.0965                 2.1086
 Frc consts  --      0.1416                 0.1813                 0.1417
 IR Inten    --      3.3296                 4.9210                 1.8096

                     13                     14                     15
                      A                      A                      A
 Frequencies --    363.5964               394.5777               441.2746
 Red. masses --      4.3550                 2.0948                 2.5408
 Frc consts  --      0.3392                 0.1922                 0.2915
 IR Inten    --      6.1445                 4.5298                 7.6258

                     16                     17                     18
                      A                      A                      A
 Frequencies --    454.5770               474.0900               511.5823
 Red. masses --      1.6374                 2.6210                 2.3924
 Frc consts  --      0.1994                 0.3471                 0.3689
 IR Inten    --      0.1105                 0.6608                 3.8547

                     19                     20                     21
                      A                      A                      A
 Frequencies --    563.9650               600.5292               640.4299
 Red. masses --      4.1859                 2.6133                 2.4804
 Frc consts  --      0.7844                 0.5553                 0.5994
 IR Inten    --     19.7897                 8.6355                 5.2400

                     22                     23                     24
                      A                      A                      A
 Frequencies --    716.7760               770.4643               787.6360
 Red. masses --      3.4534                 1.7186                 3.0500
 Frc consts  --      1.0454                 0.6011                 1.1148
 IR Inten    --      2.5141                 0.7450                14.6920

                     25                     26                     27
                      A                      A                      A
 Frequencies --    795.9226               815.9179               847.2582
 Red. masses --      1.6017                 1.7460                 1.5495
 Frc consts  --      0.5978                 0.6848                 0.6554
 IR Inten    --      3.4951                 6.5876                15.8433

                     28                     29                     30
                      A                      A                      A
 Frequencies --    853.6215               901.4221               920.2714
 Red. masses --      1.6117                 1.7723                 2.6120
 Frc consts  --      0.6919                 0.8485                 1.3033
 IR Inten    --      0.7596                 0.0266                 6.0247

                     31                     32                     33
                      A                      A                      A
 Frequencies --    943.5548               959.0514               963.7457
 Red. masses --      2.3400                 2.5985                 1.4370
 Frc consts  --      1.2274                 1.4082                 0.7864
 IR Inten    --      3.7029                17.7748                24.8398

                     34                     35                     36
                      A                      A                      A
 Frequencies --   1007.4879              1019.0754              1028.7698
 Red. masses --      2.0200                 2.3640                 1.3082
 Frc consts  --      1.2081                 1.4465                 0.8157
 IR Inten    --      1.8159                 5.5436                83.8565

                     37                     38                     39
                      A                      A                      A
 Frequencies --   1039.1002              1063.7431              1081.1836
 Red. masses --      1.7893                 1.3753                 2.0177
 Frc consts  --      1.1383                 0.9169                 1.3897
 IR Inten    --     58.2707                14.3255                 1.9891

                     40                     41                     42
                      A                      A                      A
 Frequencies --   1084.8071              1089.5778              1121.2451
 Red. masses --      1.4900                 1.6732                 1.8981
 Frc consts  --      1.0331                 1.1704                 1.4060
 IR Inten    --      5.0239                 4.9508                32.6891

                     43                     44                     45
                      A                      A                      A
 Frequencies --   1134.7458              1150.8374              1190.2632
 Red. masses --      1.5512                 1.3250                 2.0688
 Frc consts  --      1.1768                 1.0339                 1.7269
 IR Inten    --     11.4213                 6.8557                53.7556

                     46                     47                     48
                      A                      A                      A
 Frequencies --   1204.0026              1211.0233              1225.3858
 Red. masses --      2.3642                 1.4152                 1.9239
 Frc consts  --      2.0192                 1.2228                 1.7020
 IR Inten    --      6.6927                 0.1471                 3.9999

                     49                     50                     51
                      A                      A                      A
 Frequencies --   1244.9412              1257.9471              1282.0372
 Red. masses --      1.5986                 1.4854                 1.5129
 Frc consts  --      1.4598                 1.3849                 1.4651
 IR Inten    --      8.8410                 6.9995               101.7033

                     52                     53                     54
                      A                      A                      A
 Frequencies --   1307.1971              1323.0241              1368.5433
 Red. masses --      1.7864                 1.3175                 1.2789
 Frc consts  --      1.7985                 1.3587                 1.4112
 IR Inten    --     58.8060                 1.0143                 1.3790

                     55                     56                     57
                      A                      A                      A
 Frequencies --   1370.3188              1393.3602              1401.1571
 Red. masses --      1.4295                 1.3561                 1.5362
 Frc consts  --      1.5815                 1.5512                 1.7769
 IR Inten    --      5.7851                 8.7953                31.2231

                     58                     59                     60
                      A                      A                      A
 Frequencies --   1403.5808              1420.9998              1425.6261
 Red. masses --      1.2487                 1.4229                 1.3682
 Frc consts  --      1.4494                 1.6928                 1.6383
 IR Inten    --     10.2691                13.6187                22.9551

                     61                     62                     63
                      A                      A                      A
 Frequencies --   1440.2670              1453.2098              1486.1102
 Red. masses --      1.4056                 1.4980                 2.0112
 Frc consts  --      1.7179                 1.8638                 2.6170
 IR Inten    --     18.2193                39.3508               164.6996

                     64                     65                     66
                      A                      A                      A
 Frequencies --   1491.7761              1496.7286              1498.1643
 Red. masses --      1.0903                 1.0915                 1.0970
 Frc consts  --      1.4296                 1.4406                 1.4507
 IR Inten    --     10.0863                 4.6128                12.0949

                     67                     68                     69
                      A                      A                      A
 Frequencies --   1508.7149              1520.1208              1530.4720
 Red. masses --      1.1289                 1.0837                 1.1205
 Frc consts  --      1.5139                 1.4755                 1.5463
 IR Inten    --      8.6448                 5.5609                 6.1548

                     70                     71                     72
                      A                      A                      A
 Frequencies --   1536.3303              1702.4349              1740.9650
 Red. masses --      1.3387                 4.8397                 8.8841
 Frc consts  --      1.8617                 8.2644                15.8652
 IR Inten    --      2.1296                78.7189               271.6065

                     73                     74                     75
                      A                      A                      A
 Frequencies --   3002.4456              3015.2023              3019.8011
 Red. masses --      1.0692                 1.0629                 1.0684
 Frc consts  --      5.6787                 5.6932                 5.7403
 IR Inten    --     39.9846                46.5204                50.0468

                     76                     77                     78
                      A                      A                      A
 Frequencies --   3028.2819              3059.0497              3061.7771
 Red. masses --      1.0717                 1.1024                 1.0683
 Frc consts  --      5.7906                 6.0778                 5.9005
 IR Inten    --     71.6828                23.0754                38.5958

                     79                     80                     81
                      A                      A                      A
 Frequencies --   3093.8290              3102.2359              3140.4291
 Red. masses --      1.0951                 1.0957                 1.0512
 Frc consts  --      6.1758                 6.2130                 6.1081
 IR Inten    --     43.9607                46.3847                22.1545

                     82                     83                     84
                      A                      A                      A
 Frequencies --   3144.1930              3156.9707              3162.0780
 Red. masses --      1.0585                 1.0890                 1.0944
 Frc consts  --      6.1651                 6.3950                 6.4474
 IR Inten    --     18.6020                18.2348                 4.2670

                     85                     86                     87
                      A                      A                      A
 Frequencies --   3163.2516              3168.4511              3194.2031
 Red. masses --      1.0608                 1.0885                 1.0924
 Frc consts  --      6.2537                 6.4385                 6.5669
 IR Inten    --      4.8972                11.4919                 3.9080

                     88                     89                     90
                      A                      A                      A
 Frequencies --   3214.5559              3228.8874              3244.6093
 Red. masses --      1.1187                 1.1154                 1.1161
 Frc consts  --      6.8106                 6.8516                 6.9230
 IR Inten    --      0.4769                23.5504                17.9794

 - Thermochemistry -
 -------------------
 Temperature   298.150 Kelvin.  Pressure   1.00000 Atm.
 Atom     1 has atomic number  6 and mass  12.00000

 Molecular mass:   194.14191 amu.
 Principal axes and moments of inertia in atomic units:
                           1         2         3
     Eigenvalues --  1267.459494752.184835190.46352
           X            0.99981   0.01925   0.00075
           Y           -0.01926   0.99974   0.01210
           Z           -0.00052  -0.01211   0.99993
 This molecule is an asymmetric top.
 Rotational symmetry number  1.
 Warning -- assumption of classical behavior for rotation
           may cause significant error
 Rotational temperatures (Kelvin)      0.06834     0.01823     0.01669
 Rotational constants (GHZ):           1.42390     0.37977     0.34770
 Zero-point vibrational energy     743139.4 (Joules/Mol)
                                  177.61459 (Kcal/Mol)
 Warning -- explicit consideration of  20 degrees of freedom as
           vibrations may cause significant error
 Vibrational temperatures:     47.90    61.82   104.47   144.92   157.27
          (Kelvin)            198.54   234.55   291.01   382.61   412.09
                              453.50   485.89   523.13   567.71   634.90
                              654.03   682.11   736.05   811.42   864.03
                              921.44  1031.28  1108.53  1133.23  1145.16
                             1173.92  1219.02  1228.17  1296.95  1324.07
                             1357.56  1379.86  1386.62  1449.55  1466.22
                             1480.17  1495.03  1530.49  1555.58  1560.80
                             1567.66  1613.22  1632.65  1655.80  1712.52
                             1732.29  1742.39  1763.06  1791.19  1809.91
                             1844.57  1880.77  1903.54  1969.03  1971.58
                             2004.73  2015.95  2019.44  2044.50  2051.16
                             2072.22  2090.84  2138.18  2146.33  2153.46
                             2155.52  2170.70  2187.11  2202.01  2210.44
                             2449.42  2504.86  4319.85  4338.20  4344.82
                             4357.02  4401.29  4405.21  4451.33  4463.43
                             4518.38  4523.79  4542.18  4549.53  4551.21
                             4558.69  4595.75  4625.03  4645.65  4668.27

 Zero-point correction=                           0.283047 (Hartree/Particle)
 Thermal correction to Energy=                    0.296825
 Thermal correction to Enthalpy=                  0.297769
 Thermal correction to Gibbs Free Energy=         0.241698
 Sum of electronic and zero-point Energies=           -614.445565
 Sum of electronic and thermal Energies=              -614.431787
 Sum of electronic and thermal Enthalpies=            -614.430843
 Sum of electronic and thermal Free Energies=         -614.486914

                     E (Thermal)             CV                S
                      KCal/Mol        Cal/Mol-Kelvin    Cal/Mol-Kelvin
 Total                  186.261             52.852            118.011
 Electronic               0.000              0.000              0.000
 Translational            0.889              2.981             41.696
 Rotational               0.889              2.981             31.814
 Vibrational            184.483             46.891             44.502
 Vibration     1          0.594              1.983              5.623
 Vibration     2          0.595              1.980              5.117
 Vibration     3          0.599              1.967              4.081
 Vibration     4          0.604              1.949              3.440
 Vibration     5          0.606              1.942              3.281
 Vibration     6          0.614              1.915              2.832
 Vibration     7          0.623              1.888              2.514
 Vibration     8          0.639              1.837              2.112
 Vibration     9          0.672              1.736              1.623
 Vibration    10          0.684              1.699              1.495
 Vibration    11          0.703              1.645              1.335
 Vibration    12          0.718              1.600              1.223
 Vibration    13          0.737              1.547              1.107
 Vibration    14          0.762              1.482              0.983
 Vibration    15          0.801              1.380              0.823
 Vibration    16          0.813              1.351              0.782
 Vibration    17          0.831              1.308              0.726
 Vibration    18          0.867              1.224              0.630
 Vibration    19          0.920              1.109              0.516
 Vibration    20          0.959              1.031              0.449

                           ! Non-Optimized Parameters !
 Normal termination of Gaussian 16 at Thu Dec 10 09:30:16 2020.

 ----------------------------------------------------------------------
 # B3LYP/6-311++G(d,p) empiricaldispersion=gd3bj scf=xqc pop=npa geom=c
 heck
 ----------------------------------------------------------------------

 --------------------------------------
 CID_60948559_JID_4161_Energie_neutraal
 --------------------------------------
 Structure from the checkpoint file:  "JID_4161.chk"
 Charge =  0 Multiplicity = 1

 SCF Done:  E(RB3LYP) =  -614.899849133     A.U. after   14 cycles
 Normal termination of Gaussian 16 at Thu Dec 10 09:33:49 2020.

 ----------------------------------------------------------------------
 # B3LYP/6-311++G(d,p) empiricaldispersion=gd3bj scf=xqc pop=npa geom=c
 heck
 ----------------------------------------------------------------------

 ------------------------------------
 CID_60948559_JID_4161_Energie_kation
 ------------------------------------
 Structure from the checkpoint file:  "JID_4161.chk"
 Charge =  1 Multiplicity = 2

 SCF Done:  E(UB3LYP) =  -614.623395999     A.U. after   21 cycles
 Normal termination of Gaussian 16 at Thu Dec 10 09:41:04 2020.
 Gaussian 16:  ES64L-G16RevA.03 25-Dec-2016

 ----------------------------------------------------------------------
 # B3LYP/6-311++G(d,p) empiricaldispersion=gd3bj scf=xqc pop=npa geom=c
 heck
 ----------------------------------------------------------------------

 -----------------------------------
 CID_60948559_JID_4161_Energie_anion
 -----------------------------------
 Structure from the checkpoint file:  "JID_4161.chk"
 Charge = -1 Multiplicity = 2

                         Standard orientation:
 ---------------------------------------------------------------------
 Center     Atomic      Atomic             Coordinates (Angstroms)
 Number     Number       Type             X           Y           Z
 ---------------------------------------------------------------------
      1          6           0       -3.873697   -1.246528   -0.344129
      2          6           0       -3.597291    0.003522   -0.721671
      3          6           0       -2.502580    0.854162   -0.153342
      4          8           0       -2.796097    1.970986    0.270756
      5          7           0       -1.231281    0.345360   -0.072481
      6          6           0       -0.202381    1.107845    0.634190
      7          6           0        0.532785    0.166700    1.602188
      8          7           0        1.052223   -1.047307    0.982490
      9          6           0        0.047171   -1.726857    0.178565
     10          6           0       -0.703220   -0.805609   -0.798937
     11          6           0        2.414554   -1.010817    0.469092
     12          6           0        2.747411   -0.093653   -0.701290
     13          6           0        3.153310    1.340063   -0.461878
     14          6           0        4.182171    0.328809   -0.902058
     15          1           0       -3.237042   -1.791148    0.348530
     16          1           0       -4.765507   -1.760352   -0.692181
     17          1           0       -4.281289    0.551179   -1.365256
     18          1           0        0.498285    1.538440   -0.091892
     19          1           0       -0.697429    1.921268    1.165136
     20          1           0       -0.180851   -0.127252    2.386144
     21          1           0        1.358217    0.697303    2.087911
     22          1           0       -0.698539   -2.169579    0.857205
     23          1           0        0.523415   -2.546759   -0.370232
     24          1           0       -1.516550   -1.337360   -1.290412
     25          1           0       -0.015923   -0.444252   -1.577409
     26          1           0        3.071707   -0.738951    1.307808
     27          1           0        2.678594   -2.040909    0.194227
     28          1           0        2.182578   -0.285748   -1.611319
     29          1           0        2.835069    2.097840   -1.172389
     30          1           0        3.196110    1.689758    0.566898
     31          1           0        4.912974   -0.003506   -0.168183
     32          1           0        4.568956    0.389945   -1.915078
 ---------------------------------------------------------------------

 SCF Done:  E(UB3LYP) =  -614.888408389     A.U. after   33 cycles
 SCF Done:  E(UB3LYP) =  -614.888408389     a.u. after    1 cycles

 The electronic state is 2-A.
 Alpha  occ. eigenvalues --  -18.96161 -14.22579 -14.20183 -10.14580 -10.09731
 Alpha  occ. eigenvalues --  -10.09687 -10.09675 -10.09459 -10.08873 -10.07457
 Alpha  occ. eigenvalues --  -10.07162 -10.07009 -10.05887 -10.05329  -0.91609
 Alpha  occ. eigenvalues --   -0.84482  -0.80451  -0.75743  -0.67357  -0.66081
 Alpha  occ. eigenvalues --   -0.63201  -0.57661  -0.55105  -0.50966  -0.50298
 Alpha  occ. eigenvalues --   -0.48315  -0.47234  -0.43637  -0.39748  -0.38704
 Alpha  occ. eigenvalues --   -0.37565  -0.36824  -0.36254  -0.35706  -0.35074
 Alpha  occ. eigenvalues --   -0.33468  -0.32202  -0.29977  -0.29792  -0.28232
 Alpha  occ. eigenvalues --   -0.27682  -0.26749  -0.26290  -0.26024  -0.25329
 Alpha  occ. eigenvalues --   -0.24699  -0.24080  -0.19863  -0.18798  -0.16976
 Alpha  occ. eigenvalues --   -0.14321  -0.13477  -0.10128   0.04723
 Alpha virt. eigenvalues --    0.06396   0.07316   0.07675   0.08243   0.08825
 Alpha virt. eigenvalues --    0.09443   0.10178   0.10640   0.10903   0.11257
 Alpha virt. eigenvalues --    0.11967   0.12828   0.13272   0.13824   0.14397

  Beta  occ. eigenvalues --  -18.96033 -14.22577 -14.20183 -10.14482 -10.09721
  Beta  occ. eigenvalues --  -10.09676 -10.09656 -10.09446 -10.08872 -10.07443
  Beta  occ. eigenvalues --  -10.07143 -10.06979 -10.05787 -10.05135  -0.91394
  Beta  occ. eigenvalues --   -0.84439  -0.80404  -0.75716  -0.67196  -0.65872
  Beta  occ. eigenvalues --   -0.63130  -0.57566  -0.55064  -0.50731  -0.50189
  Beta  occ. eigenvalues --   -0.48089  -0.47151  -0.43574  -0.39694  -0.38577
  Beta  occ. eigenvalues --   -0.37522  -0.36790  -0.36190  -0.35607  -0.34949
  Beta  occ. eigenvalues --   -0.33362  -0.32140  -0.29948  -0.29626  -0.28186
  Beta  occ. eigenvalues --   -0.27420  -0.26708  -0.26242  -0.25873  -0.25246
  Beta  occ. eigenvalues --   -0.24627  -0.23914  -0.19824  -0.18766  -0.16095
  Beta  occ. eigenvalues --   -0.14131  -0.13082  -0.10062
  Beta virt. eigenvalues --    0.07047   0.07857   0.08086   0.08385   0.08546
  Beta virt. eigenvalues --    0.09153   0.09809   0.10339   0.10840   0.11267
  Beta virt. eigenvalues --    0.11408   0.12127   0.12934   0.13463   0.14082

 Mulliken charges and spin densities:
               1          2
     1  C   -0.377975   0.100628
     2  C   -0.108679   0.286877
     3  C    0.043852  -0.153620
     4  O   -0.363374   0.044110
     5  N    0.028012   0.024407
     6  C   -0.432172   0.241399
     7  C    0.145034  -0.553448
     8  N    0.051865   0.148117
     9  C   -0.617313   0.151897
    10  C    0.312951  -0.526226
    11  C    1.573922  -2.321249
    12  C   -2.273199   2.654575
    13  C    0.293733  -0.728785
    14  C    1.404688  -1.936719
    15  H    0.052147   0.031367
    16  H    0.122163  -0.015536
    17  H    0.156998   0.016848
    18  H    0.086348   0.158264
    19  H    0.192272   0.004350
    20  H    0.035874   0.132763
    21  H   -0.000566   0.137382
    22  H    0.108256   0.078593
    23  H   -0.040971   0.174155
    24  H    0.124363   0.053709
    25  H   -0.179094   0.348236
    26  H   -0.096561   0.282787
    27  H   -0.164307   0.312657
    28  H   -0.310000   0.512928
    29  H    0.066331   0.080222
    30  H   -0.082114   0.222906
    31  H   -0.185991   0.308998
    32  H   -0.566492   0.727408
 Sum of Mulliken charges =  -1.00000   1.00000

 Dipole moment (field-independent basis, Debye):
    X=             -2.3922    Y=             -1.8854    Z=              1.9489  Tot=              3.6160
 Quadrupole moment (field-independent basis, Debye-Ang):
   XX=           -168.5388   YY=           -118.1590   ZZ=           -118.6501
   XY=              8.7864   XZ=             13.0480   YZ=              0.9476

 Summary of Natural Population Analysis:

                                       Natural Population
                Natural  -----------------------------------------------
    Atom  No    Charge         Core      Valence    Rydberg      Total
 -----------------------------------------------------------------------
      C    1   -0.15375      0.99958     2.14664    0.00753     3.15375
      C    2   -0.11541      0.99954     2.10538    0.01050     3.11541
      C    3    0.34162      0.99961     1.63635    0.02242     2.65838
      O    4   -0.31834      0.99988     3.31304    0.00542     4.31834
      N    5   -0.25843      0.99964     2.74842    0.01037     3.75843
      C    6   -0.09848      0.99961     2.08984    0.00904     3.09848
      C    7   -0.08654      0.99961     2.07610    0.01083     3.08654
      N    8   -0.28139      0.99973     2.76774    0.01392     3.78139
      C    9   -0.08617      0.99961     2.07560    0.01096     3.08617
      C   10   -0.09538      0.99961     2.08591    0.00986     3.09538
      C   11   -0.07870      0.99958     2.06550    0.01363     3.07870
      C   12   -0.13160      0.99958     2.12028    0.01174     3.13160
      C   13   -0.20188      0.99962     2.19224    0.01002     3.20188
      C   14   -0.19620      0.99962     2.18700    0.00958     3.19620
      H   15    0.08675      0.00000     0.41174    0.00151     0.41325
      H   16    0.08712      0.00000     0.41182    0.00106     0.41288
      H   17    0.09792      0.00000     0.40102    0.00105     0.40208
      H   18    0.09415      0.00000     0.40424    0.00161     0.40585
      H   19    0.11482      0.00000     0.38394    0.00123     0.38518
      H   20    0.09207      0.00000     0.40672    0.00121     0.40793
      H   21    0.09728      0.00000     0.40173    0.00099     0.40272
      H   22    0.09037      0.00000     0.40827    0.00136     0.40963
      H   23    0.09776      0.00000     0.40134    0.00090     0.40224
      H   24    0.11070      0.00000     0.38797    0.00133     0.38930
      H   25    0.08993      0.00000     0.40823    0.00184     0.41007
      H   26    0.09247      0.00000     0.40605    0.00147     0.40753
      H   27    0.09659      0.00000     0.40208    0.00133     0.40341
      H   28    0.10375      0.00000     0.39403    0.00222     0.39625
      H   29    0.10424      0.00000     0.39479    0.00097     0.39576
      H   30    0.09960      0.00000     0.39933    0.00106     0.40040
      H   31    0.09968      0.00000     0.39910    0.00123     0.40032
      H   32    0.10544      0.00000     0.39265    0.00191     0.39456
 =======================================================================
   * Total *   -0.00000     13.99481    38.82509    0.18011    53.00000

 Normal termination of Gaussian 16 at Thu Dec 10 09:52:42 2020.
