 Gaussian 16, Revision A.03,

 -----------------------------------------------------------
 # opt freq B3LYP/6-31G(d) empiricaldispersion=gd3bj scf=xqc
 -----------------------------------------------------------

 ------------------------------
 CID_131631955_JID_217_neutraal
 ------------------------------
 Symbolic Z-matrix:
 Charge =  0 Multiplicity = 1

 SCF Done:  E(RB3LYP) =  -441.382622091     A.U. after   14 cycles
 SCF Done:  E(RB3LYP) =  -441.390384213     A.U. after   13 cycles
 SCF Done:  E(RB3LYP) =  -441.390891398     A.U. after   12 cycles
 SCF Done:  E(RB3LYP) =  -441.391181529     A.U. after   11 cycles
 SCF Done:  E(RB3LYP) =  -441.391417999     A.U. after   12 cycles
 SCF Done:  E(RB3LYP) =  -441.391626159     A.U. after   11 cycles
 SCF Done:  E(RB3LYP) =  -441.391724691     A.U. after   11 cycles
 SCF Done:  E(RB3LYP) =  -441.391733692     A.U. after   10 cycles
 SCF Done:  E(RB3LYP) =  -441.391735458     A.U. after    8 cycles
 SCF Done:  E(RB3LYP) =  -441.391735753     A.U. after    8 cycles
 Optimization completed.
    -- Stationary point found.
 Normal termination of Gaussian 16 at Tue Dec  8 10:20:24 2020.

 --------------------------------------------------------------------
 #N Geom=AllCheck Guess=TCheck SCRF=Check GenChk RB3LYP/6-31G(d) Freq
 --------------------------------------------------------------------

 Structure from the checkpoint file:  "JID_217.chk"
 ------------------------------
 CID_131631955_JID_217_neutraal
 ------------------------------
 Charge =  0 Multiplicity = 1

 SCF Done:  E(RB3LYP) =  -441.391735753     A.U. after    1 cycles

  Exact polarizability:  86.298  -1.399  85.603  -2.780   2.974  75.430
 Approx polarizability: 107.438  -7.133 141.084  -2.857   5.803 111.451

                      1                      2                      3
                      A                      A                      A
 Frequencies --     59.9589                89.7206               113.6103
 Red. masses --      4.1784                 2.8584                 3.7234
 Frc consts  --      0.0089                 0.0136                 0.0283
 IR Inten    --      2.6391                 2.8365                 0.3440

                      4                      5                      6
                      A                      A                      A
 Frequencies --    141.7845               185.7994               201.8126
 Red. masses --      3.4449                 4.5273                 3.3633
 Frc consts  --      0.0408                 0.0921                 0.0807
 IR Inten    --      1.9061                 3.3737                 5.5964

                      7                      8                      9
                      A                      A                      A
 Frequencies --    299.3110               330.6376               386.0621
 Red. masses --      3.2920                 3.1676                 1.9079
 Frc consts  --      0.1738                 0.2040                 0.1675
 IR Inten    --      0.3758                 2.6949                 4.7550

                     10                     11                     12
                      A                      A                      A
 Frequencies --    500.3980               524.8537               577.0282
 Red. masses --      3.3610                 5.5441                 5.3756
 Frc consts  --      0.4959                 0.8998                 1.0546
 IR Inten    --      2.0665                 0.5985                 0.6011

                     13                     14                     15
                      A                      A                      A
 Frequencies --    685.0812               701.1157               793.8568
 Red. masses --      2.0918                 2.3750                 3.0618
 Frc consts  --      0.5784                 0.6879                 1.1369
 IR Inten    --      1.3677                 0.2300                 5.9190

                     16                     17                     18
                      A                      A                      A
 Frequencies --    807.9154               853.0620               874.5551
 Red. masses --      1.3106                 2.5325                 2.2514
 Frc consts  --      0.5040                 1.0858                 1.0146
 IR Inten    --      1.5522                19.3163                 5.4204

                     19                     20                     21
                      A                      A                      A
 Frequencies --    904.3480               946.9461               959.7030
 Red. masses --      2.3170                 2.5350                 2.6123
 Frc consts  --      1.1165                 1.3393                 1.4176
 IR Inten    --      6.8108                 2.4132                 3.0905

                     22                     23                     24
                      A                      A                      A
 Frequencies --    972.0391               979.1369              1029.0306
 Red. masses --      2.3980                 2.1601                 1.7119
 Frc consts  --      1.3349                 1.2202                 1.0680
 IR Inten    --      2.7157                 1.0604                12.3538

                     25                     26                     27
                      A                      A                      A
 Frequencies --   1073.1019              1087.3435              1101.1326
 Red. masses --      2.7616                 1.1114                 1.3687
 Frc consts  --      1.8737                 0.7742                 0.9777
 IR Inten    --      2.3895                 0.1359                 1.7654

                     28                     29                     30
                      A                      A                      A
 Frequencies --   1145.1288              1167.0637              1187.6269
 Red. masses --      2.0765                 1.4144                 1.4927
 Frc consts  --      1.6043                 1.1350                 1.2405
 IR Inten    --      1.8581                 0.3681                 1.2540

                     31                     32                     33
                      A                      A                      A
 Frequencies --   1218.3311              1225.6710              1262.6727
 Red. masses --      1.9708                 1.3550                 1.3487
 Frc consts  --      1.7235                 1.1994                 1.2669
 IR Inten    --      3.4071                 1.0446                 2.9662

                     34                     35                     36
                      A                      A                      A
 Frequencies --   1273.5107              1300.3209              1308.3510
 Red. masses --      1.2779                 1.3504                 1.5400
 Frc consts  --      1.2211                 1.3452                 1.5531
 IR Inten    --      0.0252                 1.0964                 3.3696

                     37                     38                     39
                      A                      A                      A
 Frequencies --   1318.1343              1345.6280              1394.3050
 Red. masses --      1.5531                 1.6497                 1.7564
 Frc consts  --      1.5899                 1.7600                 2.0118
 IR Inten    --      2.2892                 1.3541                 0.5335

                     40                     41                     42
                      A                      A                      A
 Frequencies --   1457.9367              1499.4035              1506.0382
 Red. masses --      1.6129                 1.0817                 1.0857
 Frc consts  --      2.0200                 1.4328                 1.4509
 IR Inten    --     16.9297                 3.2896                 0.5382

                     43                     44                     45
                      A                      A                      A
 Frequencies --   1514.4968              1536.3783              1560.8040
 Red. masses --      1.0821                 1.1238                 1.3349
 Frc consts  --      1.4623                 1.5630                 1.9159
 IR Inten    --      3.8364                 0.6621                 6.2693

                     46                     47                     48
                      A                      A                      A
 Frequencies --   2357.4424              3041.7125              3079.4773
 Red. masses --     12.6771                 1.0600                 1.0934
 Frc consts  --     41.5099                 5.7780                 6.1090
 IR Inten    --     11.3996                14.1933                10.0046

                     49                     50                     51
                      A                      A                      A
 Frequencies --   3080.0872              3084.9360              3090.5864
 Red. masses --      1.0613                 1.0687                 1.0607
 Frc consts  --      5.9323                 5.9924                 5.9694
 IR Inten    --     36.6792                15.4494                31.3068

                     52                     53                     54
                      A                      A                      A
 Frequencies --   3102.8725              3117.8889              3132.8747
 Red. masses --      1.0844                 1.0568                 1.1075
 Frc consts  --      6.1514                 6.0527                 6.4047
 IR Inten    --     43.9924                29.1971                 5.4429

                     55                     56                     57
                      A                      A                      A
 Frequencies --   3144.3164              3152.3261              3206.2285
 Red. masses --      1.1071                 1.1080                 1.1176
 Frc consts  --      6.4490                 6.4872                 6.7691
 IR Inten    --     13.8000                37.7917                30.5503

 - Thermochemistry -
 -------------------
 Temperature   298.150 Kelvin.  Pressure   1.00000 Atm.
 Atom     1 has atomic number  6 and mass  12.00000

 Molecular mass:   137.08406 amu.
 Principal axes and moments of inertia in atomic units:
                           1         2         3
     Eigenvalues --   811.756271741.935312018.41276
           X            0.99997   0.00302  -0.00663
           Y           -0.00290   0.99982   0.01888
           Z            0.00669  -0.01886   0.99980
 This molecule is an asymmetric top.
 Rotational symmetry number  1.
 Warning -- assumption of classical behavior for rotation
           may cause significant error
 Rotational temperatures (Kelvin)      0.10670     0.04972     0.04291
 Rotational constants (GHZ):           2.22326     1.03606     0.89414
 Zero-point vibrational energy     466495.1 (Joules/Mol)
                                  111.49501 (Kcal/Mol)
 Warning -- explicit consideration of  12 degrees of freedom as
           vibrations may cause significant error
 Vibrational temperatures:     86.27   129.09   163.46   204.00   267.32
          (Kelvin)            290.36   430.64   475.71   555.46   719.96
                              755.15   830.21   985.68  1008.75  1142.18
                             1162.41  1227.37  1258.29  1301.15  1362.44
                             1380.80  1398.55  1408.76  1480.55  1543.95
                             1564.44  1584.28  1647.58  1679.14  1708.73
                             1752.91  1763.47  1816.70  1832.30  1870.87
                             1882.43  1896.50  1936.06  2006.09  2097.65
                             2157.31  2166.85  2179.02  2210.51  2245.65
                             3391.83  4376.35  4430.68  4431.56  4438.53
                             4446.66  4464.34  4485.95  4507.51  4523.97
                             4535.49  4613.05

 Zero-point correction=                           0.177679 (Hartree/Particle)
 Thermal correction to Energy=                    0.187355
 Thermal correction to Enthalpy=                  0.188299
 Thermal correction to Gibbs Free Energy=         0.142347
 Sum of electronic and zero-point Energies=           -441.214057
 Sum of electronic and thermal Energies=              -441.204381
 Sum of electronic and thermal Enthalpies=            -441.203437
 Sum of electronic and thermal Free Energies=         -441.249388

                     E (Thermal)             CV                S
                      KCal/Mol        Cal/Mol-Kelvin    Cal/Mol-Kelvin
 Total                  117.567             35.723             96.714
 Electronic               0.000              0.000              0.000
 Translational            0.889              2.981             40.658
 Rotational               0.889              2.981             29.436
 Vibrational            115.789             29.762             26.620
 Vibration     1          0.597              1.973              4.459
 Vibration     2          0.602              1.956              3.666
 Vibration     3          0.607              1.938              3.206
 Vibration     4          0.615              1.911              2.780
 Vibration     5          0.632              1.859              2.269
 Vibration     6          0.639              1.837              2.117
 Vibration     7          0.692              1.675              1.421
 Vibration     8          0.713              1.614              1.257
 Vibration     9          0.755              1.500              1.015
 Vibration    10          0.856              1.249              0.657
 Vibration    11          0.880              1.195              0.599
 Vibration    12          0.933              1.081              0.491

                           ! Non-Optimized Parameters !
 Normal termination of Gaussian 16 at Tue Dec  8 10:24:21 2020.

 ----------------------------------------------------------------------
 # B3LYP/6-311++G(d,p) empiricaldispersion=gd3bj scf=xqc pop=npa geom=c
 heck
 ----------------------------------------------------------------------

 --------------------------------------
 CID_131631955_JID_217_Energie_neutraal
 --------------------------------------
 Structure from the checkpoint file:  "JID_217.chk"
 Charge =  0 Multiplicity = 1

 SCF Done:  E(RB3LYP) =  -441.514231933     A.U. after   13 cycles
 Normal termination of Gaussian 16 at Tue Dec  8 10:25:34 2020.

 ----------------------------------------------------------------------
 # B3LYP/6-311++G(d,p) empiricaldispersion=gd3bj scf=xqc pop=npa geom=c
 heck
 ----------------------------------------------------------------------

 ------------------------------------
 CID_131631955_JID_217_Energie_kation
 ------------------------------------
 Structure from the checkpoint file:  "JID_217.chk"
 Charge =  1 Multiplicity = 2

 SCF Done:  E(UB3LYP) =  -441.155999779     A.U. after   23 cycles
 Normal termination of Gaussian 16 at Tue Dec  8 10:29:10 2020.
 Gaussian 16:  ES64L-G16RevA.03 25-Dec-2016

 ----------------------------------------------------------------------
 # B3LYP/6-311++G(d,p) empiricaldispersion=gd3bj scf=xqc pop=npa geom=c
 heck
 ----------------------------------------------------------------------

 -----------------------------------
 CID_131631955_JID_217_Energie_anion
 -----------------------------------
 Structure from the checkpoint file:  "JID_217.chk"
 Charge = -1 Multiplicity = 2

                         Standard orientation:
 ---------------------------------------------------------------------
 Center     Atomic      Atomic             Coordinates (Angstroms)
 Number     Number       Type             X           Y           Z
 ---------------------------------------------------------------------
      1          6           0        2.625726   -0.427576    0.572324
      2          6           0        2.067148   -0.288656   -0.864526
      3          6           0        0.627850   -0.080911   -0.267016
      4          6           0        1.183677   -0.656043    1.085712
      5          6           0       -0.490364   -0.864199   -0.966640
      6          6           0       -1.863626   -0.861148   -0.325812
      7          6           0       -2.183903   -0.296792    0.995332
      8          8           0       -2.537040    0.393844   -0.208223
      9          6           0        0.342445    1.350575   -0.147711
     10          7           0        0.194115    2.496198   -0.029319
     11          1           0        3.041302    0.515008    0.938796
     12          1           0        3.350873   -1.225636    0.749901
     13          1           0        2.456665    0.515558   -1.492439
     14          1           0        2.107144   -1.230007   -1.421409
     15          1           0        0.929156   -1.717009    1.171725
     16          1           0        0.885864   -0.143297    2.002878
     17          1           0       -0.593562   -0.498607   -1.996960
     18          1           0       -0.153522   -1.906312   -1.037191
     19          1           0       -2.508343   -1.665498   -0.689166
     20          1           0       -3.019548   -0.705656    1.564001
     21          1           0       -1.412239    0.185819    1.590904
 ---------------------------------------------------------------------

 SCF Done:  E(UB3LYP) =  -441.502999217     A.U. after   31 cycles

 The electronic state is 2-A.
 Alpha  occ. eigenvalues --  -19.03467 -14.20843 -10.13018 -10.12612 -10.12251
 Alpha  occ. eigenvalues --  -10.10725 -10.08542 -10.08394 -10.08170 -10.07475
 Alpha  occ. eigenvalues --   -0.97864  -0.81063  -0.76871  -0.67033  -0.58853
 Alpha  occ. eigenvalues --   -0.57830  -0.56286  -0.49938  -0.48895  -0.41793
 Alpha  occ. eigenvalues --   -0.40860  -0.38831  -0.36527  -0.34567  -0.32443
 Alpha  occ. eigenvalues --   -0.31082  -0.29943  -0.28154  -0.27303  -0.26852
 Alpha  occ. eigenvalues --   -0.24620  -0.24003  -0.23825  -0.21666  -0.20993
 Alpha  occ. eigenvalues --   -0.20412  -0.17253   0.04564
 Alpha virt. eigenvalues --    0.07121   0.07779   0.08517   0.09459   0.09725
 Alpha virt. eigenvalues --    0.10937   0.11413   0.12060   0.12418   0.12555
 Alpha virt. eigenvalues --    0.13172   0.13973   0.15210   0.15247   0.16221

  Beta  occ. eigenvalues --  -19.03460 -14.20841 -10.13001 -10.12614 -10.12230
  Beta  occ. eigenvalues --  -10.10722 -10.08509 -10.08369 -10.08136 -10.07450
  Beta  occ. eigenvalues --   -0.97848  -0.81057  -0.76847  -0.66980  -0.58810
  Beta  occ. eigenvalues --   -0.57763  -0.56235  -0.49888  -0.48822  -0.41735
  Beta  occ. eigenvalues --   -0.40811  -0.38769  -0.36479  -0.34539  -0.32394
  Beta  occ. eigenvalues --   -0.31038  -0.29904  -0.28114  -0.27273  -0.26827
  Beta  occ. eigenvalues --   -0.24590  -0.23960  -0.23794  -0.21642  -0.20966
  Beta  occ. eigenvalues --   -0.20382  -0.17221
  Beta virt. eigenvalues --    0.07379   0.08106   0.08574   0.09328   0.10002
  Beta virt. eigenvalues --    0.10319   0.11450   0.11794   0.12499   0.12624
  Beta virt. eigenvalues --    0.13027   0.13412   0.14383   0.15447   0.15726

 Mulliken charges and spin densities:
               1          2
     1  C    0.302759  -0.864489
     2  C    0.878198  -1.104813
     3  C   -1.755880   3.215562
     4  C    0.294900  -0.493413
     5  C    2.058452  -2.540539
     6  C   -0.355626   0.154543
     7  C    0.884309  -1.126929
     8  O   -0.151347   0.017359
     9  C    0.307475  -1.381527
    10  N   -0.330742   0.071859
    11  H    0.150968  -0.008909
    12  H   -0.584182   0.757405
    13  H    0.013650   0.162832
    14  H   -0.515515   0.689029
    15  H   -0.622151   0.824237
    16  H   -0.130410   0.282573
    17  H    0.127376   0.061056
    18  H   -0.556452   0.724506
    19  H   -0.645490   0.868031
    20  H   -0.504925   0.660247
    21  H    0.134636   0.031379
 Sum of Mulliken charges =  -1.00000   1.00000

 Dipole moment (field-independent basis, Debye):
    X=              0.2359    Y=              5.1136    Z=             -0.1233  Tot=              5.1205
 Quadrupole moment (field-independent basis, Debye-Ang):
   XX=           -110.1001   YY=           -119.7499   ZZ=            -87.7506
   XY=              6.0323   XZ=              0.6258   YZ=              0.1898

 Summary of Natural Population Analysis:

                                       Natural Population
                Natural  -----------------------------------------------
    Atom  No    Charge         Core      Valence    Rydberg      Total
 -----------------------------------------------------------------------
      C    1   -0.19129      0.99964     2.18231    0.00933     3.19129
      C    2   -0.16958      0.99962     2.16065    0.00932     3.16958
      C    3   -0.09598      0.99948     2.08075    0.01574     3.09598
      C    4   -0.17398      0.99961     2.16419    0.01018     3.17398
      C    5   -0.19492      0.99958     2.18366    0.01168     3.19492
      C    6    0.04548      0.99959     1.93742    0.01751     2.95452
      C    7   -0.03077      0.99957     2.02004    0.01116     3.03077
      O    8   -0.27979      0.99992     3.27239    0.00748     4.27979
      C    9    0.16758      0.99961     1.81157    0.02124     2.83242
      N   10   -0.18580      0.99979     2.67547    0.01054     3.68580
      H   11    0.09651      0.00000     0.40226    0.00122     0.40349
      H   12    0.10399      0.00000     0.39389    0.00212     0.39601
      H   13    0.09994      0.00000     0.39885    0.00121     0.40006
      H   14    0.10703      0.00000     0.39048    0.00249     0.39297
      H   15    0.11007      0.00000     0.38534    0.00459     0.38993
      H   16    0.10014      0.00000     0.39828    0.00158     0.39986
      H   17    0.10610      0.00000     0.39236    0.00155     0.39390
      H   18    0.11462      0.00000     0.38070    0.00467     0.38538
      H   19    0.09351      0.00000     0.40397    0.00252     0.40649
      H   20    0.08872      0.00000     0.40987    0.00142     0.41128
      H   21    0.08840      0.00000     0.40997    0.00164     0.41160
 =======================================================================
   * Total *    0.00000      9.99641    26.85442    0.14917    37.00000

 Normal termination of Gaussian 16 at Tue Dec  8 10:35:29 2020.
