 Gaussian 16, Revision A.03,

 -----------------------------------------------------------
 # opt freq B3LYP/6-31G(d) empiricaldispersion=gd3bj scf=xqc
 -----------------------------------------------------------

 --------------------------------
 CID_117100071_JID_10734_neutraal
 --------------------------------
 Symbolic Z-matrix:
 Charge =  0 Multiplicity = 1

 SCF Done:  E(RB3LYP) =  -934.930957475     A.U. after   15 cycles
 SCF Done:  E(RB3LYP) =  -934.933594503     A.U. after   14 cycles
 SCF Done:  E(RB3LYP) =  -934.941785287     A.U. after   14 cycles
 SCF Done:  E(RB3LYP) =  -934.943654188     A.U. after   13 cycles
 SCF Done:  E(RB3LYP) =  -934.947582650     A.U. after   13 cycles
 SCF Done:  E(RB3LYP) =  -934.948974802     A.U. after   13 cycles
 SCF Done:  E(RB3LYP) =  -934.949108201     A.U. after   13 cycles
 SCF Done:  E(RB3LYP) =  -934.949429882     A.U. after   13 cycles
 SCF Done:  E(RB3LYP) =  -934.950067667     A.U. after   12 cycles
 SCF Done:  E(RB3LYP) =  -934.950363722     A.U. after   12 cycles
 SCF Done:  E(RB3LYP) =  -934.950636718     A.U. after   10 cycles
 SCF Done:  E(RB3LYP) =  -934.950641170     A.U. after   10 cycles
 SCF Done:  E(RB3LYP) =  -934.950643838     A.U. after    9 cycles
 SCF Done:  E(RB3LYP) =  -934.950645142     A.U. after    9 cycles
 SCF Done:  E(RB3LYP) =  -934.950645324     A.U. after    8 cycles
 Optimization completed.
    -- Stationary point found.
 Normal termination of Gaussian 16 at Sun Dec 13 20:56:51 2020.

 --------------------------------------------------------------------
 #N Geom=AllCheck Guess=TCheck SCRF=Check GenChk RB3LYP/6-31G(d) Freq
 --------------------------------------------------------------------

 Structure from the checkpoint file:  "JID_10734.chk"
 --------------------------------
 CID_117100071_JID_10734_neutraal
 --------------------------------
 Charge =  0 Multiplicity = 1

 SCF Done:  E(RB3LYP) =  -934.950645324     A.U. after    1 cycles

  Exact polarizability: 214.593  -2.350 184.105   8.587   4.982 116.005
 Approx polarizability: 323.659  -1.727 276.382  21.818  16.941 174.930

                      1                      2                      3
                      A                      A                      A
 Frequencies --     30.7934                43.1217                50.0661
 Red. masses --      3.1011                 5.9137                 4.0631
 Frc consts  --      0.0017                 0.0065                 0.0060
 IR Inten    --      0.2748                 0.6895                 0.7204

                      4                      5                      6
                      A                      A                      A
 Frequencies --     79.0484                86.7989                94.6424
 Red. masses --      4.6680                 4.9519                 4.5949
 Frc consts  --      0.0172                 0.0220                 0.0242
 IR Inten    --      3.6028                 3.9266                 0.1721

                      7                      8                      9
                      A                      A                      A
 Frequencies --    111.1005               150.3130               188.2343
 Red. masses --      3.3399                 4.1771                 3.2266
 Frc consts  --      0.0243                 0.0556                 0.0674
 IR Inten    --      2.3392                 1.9005                 0.6222

                     10                     11                     12
                      A                      A                      A
 Frequencies --    196.2383               213.7033               246.5188
 Red. masses --      2.4077                 2.1798                 1.4973
 Frc consts  --      0.0546                 0.0587                 0.0536
 IR Inten    --      2.0339                 2.0286                 3.4523

                     13                     14                     15
                      A                      A                      A
 Frequencies --    256.8506               269.9989               279.7998
 Red. masses --      1.5907                 2.5055                 3.1759
 Frc consts  --      0.0618                 0.1076                 0.1465
 IR Inten    --      1.5273                 1.5815                11.4888

                     16                     17                     18
                      A                      A                      A
 Frequencies --    296.4148               309.8626               318.2043
 Red. masses --      3.2597                 1.8600                 2.0976
 Frc consts  --      0.1687                 0.1052                 0.1251
 IR Inten    --      1.6966                 6.8278                31.8678

                     19                     20                     21
                      A                      A                      A
 Frequencies --    343.7328               357.7907               369.8948
 Red. masses --      3.0090                 7.1815                 3.7099
 Frc consts  --      0.2095                 0.5417                 0.2991
 IR Inten    --      6.1465                 1.7978                 6.7425

                     22                     23                     24
                      A                      A                      A
 Frequencies --    410.1444               448.3904               473.0645
 Red. masses --      5.3535                 3.6237                 3.1118
 Frc consts  --      0.5306                 0.4293                 0.4103
 IR Inten    --      0.5906                 2.8857                24.4218

                     25                     26                     27
                      A                      A                      A
 Frequencies --    494.6715               504.7391               522.7931
 Red. masses --      1.8612                 2.4448                 3.1730
 Frc consts  --      0.2683                 0.3670                 0.5110
 IR Inten    --    105.6983                40.9386                40.4137

                     28                     29                     30
                      A                      A                      A
 Frequencies --    541.2140               557.5274               570.5477
 Red. masses --      3.7643                 3.0229                 3.3421
 Frc consts  --      0.6496                 0.5536                 0.6410
 IR Inten    --      3.7960                73.2747                14.2202

                     31                     32                     33
                      A                      A                      A
 Frequencies --    590.8408               631.3287               655.8742
 Red. masses --      3.0653                 4.3908                 3.3739
 Frc consts  --      0.6305                 1.0311                 0.8551
 IR Inten    --      7.9042                 8.4463                10.9588

                     34                     35                     36
                      A                      A                      A
 Frequencies --    685.8751               692.6241               726.9467
 Red. masses --      5.1136                 3.1217                 1.5628
 Frc consts  --      1.4173                 0.8823                 0.4866
 IR Inten    --      0.6507                54.4793                28.0746

                     37                     38                     39
                      A                      A                      A
 Frequencies --    746.2192               764.0231               798.5166
 Red. masses --      3.7530                 3.3815                 2.8387
 Frc consts  --      1.2313                 1.1630                 1.0664
 IR Inten    --     14.4349                 3.9199                 6.1847

                     40                     41                     42
                      A                      A                      A
 Frequencies --    813.5685               849.0106               869.4065
 Red. masses --      3.2724                 1.5874                 3.3432
 Frc consts  --      1.2762                 0.6741                 1.4889
 IR Inten    --      0.1726                21.6652                13.0260

                     43                     44                     45
                      A                      A                      A
 Frequencies --    896.6515               913.7610               920.4000
 Red. masses --      2.2734                 1.8259                 2.1092
 Frc consts  --      1.0769                 0.8982                 1.0527
 IR Inten    --     21.6125               166.7607                 2.1186

                     46                     47                     48
                      A                      A                      A
 Frequencies --    934.5371               945.6403               957.5900
 Red. masses --      2.3624                 1.4491                 1.3643
 Frc consts  --      1.2156                 0.7635                 0.7371
 IR Inten    --      1.9556                50.6880                10.8763

                     49                     50                     51
                      A                      A                      A
 Frequencies --   1004.2323              1023.5892              1027.8626
 Red. masses --      2.5032                 2.1595                 1.4070
 Frc consts  --      1.4874                 1.3331                 0.8758
 IR Inten    --      5.8998                20.7366                 4.0483

                     52                     53                     54
                      A                      A                      A
 Frequencies --   1062.1296              1080.6973              1091.4011
 Red. masses --      2.0564                 2.0879                 1.9437
 Frc consts  --      1.3668                 1.4367                 1.3641
 IR Inten    --      4.7405                96.4349                30.1874

                     55                     56                     57
                      A                      A                      A
 Frequencies --   1114.3604              1119.8590              1146.6213
 Red. masses --      2.7778                 2.4870                 2.2274
 Frc consts  --      2.0324                 1.8376                 1.7254
 IR Inten    --      3.8929                 7.9491                42.1200

                     58                     59                     60
                      A                      A                      A
 Frequencies --   1148.3512              1160.3916              1171.8152
 Red. masses --      1.8824                 1.7377                 1.7478
 Frc consts  --      1.4626                 1.3785                 1.4140
 IR Inten    --      0.3951                 3.2153                 5.6907

                     61                     62                     63
                      A                      A                      A
 Frequencies --   1207.0910              1245.2302              1280.5625
 Red. masses --      2.4097                 2.0165                 2.0656
 Frc consts  --      2.0687                 1.8422                 1.9958
 IR Inten    --     19.7887                25.4814                12.2292

                     64                     65                     66
                      A                      A                      A
 Frequencies --   1282.9930              1295.1989              1318.1818
 Red. masses --      1.2546                 2.2973                 1.4827
 Frc consts  --      1.2167                 2.2706                 1.5180
 IR Inten    --      5.6217                10.5269                24.6061

                     67                     68                     69
                      A                      A                      A
 Frequencies --   1322.8336              1341.4966              1348.0102
 Red. masses --      1.8261                 2.0582                 1.8554
 Frc consts  --      1.8827                 2.1823                 1.9865
 IR Inten    --    135.9784                60.2962                23.9498

                     70                     71                     72
                      A                      A                      A
 Frequencies --   1369.0151              1378.3545              1397.9890
 Red. masses --      2.4178                 2.1229                 1.8076
 Frc consts  --      2.6698                 2.3763                 2.0814
 IR Inten    --     50.5833                84.3819                21.4493

                     73                     74                     75
                      A                      A                      A
 Frequencies --   1402.2987              1411.4628              1431.3295
 Red. masses --      1.7549                 1.3204                 1.2945
 Frc consts  --      2.0332                 1.5499                 1.5626
 IR Inten    --     39.0900                 0.4459                12.4251

                     76                     77                     78
                      A                      A                      A
 Frequencies --   1433.3537              1437.3454              1453.1997
 Red. masses --      1.2843                 1.3079                 1.5667
 Frc consts  --      1.5546                 1.5920                 1.9494
 IR Inten    --      4.3344                21.3988                60.8061

                     79                     80                     81
                      A                      A                      A
 Frequencies --   1475.2893              1486.9441              1515.3565
 Red. masses --      1.4325                 1.6702                 1.0529
 Frc consts  --      1.8370                 2.1758                 1.4245
 IR Inten    --     31.6817                57.5580                 6.3527

                     82                     83                     84
                      A                      A                      A
 Frequencies --   1519.2600              1526.4892              1532.6737
 Red. masses --      1.0479                 1.0517                 1.1293
 Frc consts  --      1.4251                 1.4439                 1.5630
 IR Inten    --      1.9778                 6.4565                 5.8512

                     85                     86                     87
                      A                      A                      A
 Frequencies --   1540.1970              1566.5143              1631.0866
 Red. masses --      1.0578                 2.5296                 1.5007
 Frc consts  --      1.4785                 3.6574                 2.3523
 IR Inten    --      8.3496                91.7777               285.0953

                     88                     89                     90
                      A                      A                      A
 Frequencies --   1636.8688              1668.0624              1705.9705
 Red. masses --      6.6917                 4.9627                 1.0925
 Frc consts  --     10.5636                 8.1357                 1.8733
 IR Inten    --      1.9763                16.0600                38.4590

                     91                     92                     93
                      A                      A                      A
 Frequencies --   1713.5351              1781.1757              3037.9131
 Red. masses --      5.7486                 8.0727                 1.0836
 Frc consts  --      9.9448                15.0897                 5.8921
 IR Inten    --    174.8620               360.1090                28.0765

                     94                     95                     96
                      A                      A                      A
 Frequencies --   3050.3797              3051.3973              3057.6442
 Red. masses --      1.0380                 1.0659                 1.0629
 Frc consts  --      5.6905                 5.8473                 5.8546
 IR Inten    --     18.7680                31.4452                13.4126

                     97                     98                     99
                      A                      A                      A
 Frequencies --   3068.9248              3108.0615              3114.3610
 Red. masses --      1.0405                 1.0954                 1.1057
 Frc consts  --      5.7736                 6.2342                 6.3185
 IR Inten    --     17.9681                26.9449                22.8940

                    100                    101                    102
                      A                      A                      A
 Frequencies --   3118.1854              3129.5608              3139.3466
 Red. masses --      1.0997                 1.1028                 1.1038
 Frc consts  --      6.2999                 6.3636                 6.4096
 IR Inten    --     33.2951                16.4625                27.7191

                    103                    104                    105
                      A                      A                      A
 Frequencies --   3153.7987              3185.3270              3199.3736
 Red. masses --      1.0862                 1.0887                 1.0969
 Frc consts  --      6.3657                 6.5083                 6.6150
 IR Inten    --      2.9739                13.3266                 5.1550

                    106                    107                    108
                      A                      A                      A
 Frequencies --   3214.5380              3228.7166              3456.4726
 Red. masses --      1.0932                 1.0904                 1.0500
 Frc consts  --      6.6557                 6.6974                 7.3910
 IR Inten    --      8.6659                17.5803                 1.2081

                    109                    110                    111
                      A                      A                      A
 Frequencies --   3487.1201              3541.2644              3668.0419
 Red. masses --      1.0540                 1.0921                 1.0977
 Frc consts  --      7.5512                 8.0691                 8.7013
 IR Inten    --    143.1311                 1.8137                86.1537

 - Thermochemistry -
 -------------------
 Temperature   298.150 Kelvin.  Pressure   1.00000 Atm.
 Atom     1 has atomic number  6 and mass  12.00000

 Molecular mass:   277.14264 amu.
 Principal axes and moments of inertia in atomic units:
                           1         2         3
     Eigenvalues --  4194.866195782.630908769.91130
           X            0.99990  -0.00997  -0.00994
           Y            0.00985   0.99989  -0.01142
           Z            0.01005   0.01132   0.99989
 This molecule is an asymmetric top.
 Rotational symmetry number  1.
 Warning -- assumption of classical behavior for rotation
           may cause significant error
 Rotational temperatures (Kelvin)      0.02065     0.01498     0.00988
 Rotational constants (GHZ):           0.43023     0.31210     0.20579
 Zero-point vibrational energy     861467.6 (Joules/Mol)
                                  205.89571 (Kcal/Mol)
 Warning -- explicit consideration of  31 degrees of freedom as
           vibrations may cause significant error
 Vibrational temperatures:     44.30    62.04    72.03   113.73   124.88
          (Kelvin)            136.17   159.85   216.27   270.83   282.34
                              307.47   354.69   369.55   388.47   402.57
                              426.47   445.82   457.83   494.55   514.78
                              532.20   590.11   645.13   680.63   711.72
                              726.21   752.18   778.69   802.16   820.89
                              850.09   908.34   943.66   986.82   996.53
                             1045.91  1073.64  1099.26  1148.89  1170.54
                             1221.54  1250.88  1290.08  1314.70  1324.25
                             1344.59  1360.57  1377.76  1444.87  1472.72
                             1478.86  1528.17  1554.88  1570.28  1603.32
                             1611.23  1649.73  1652.22  1669.54  1685.98
                             1736.73  1791.61  1842.44  1845.94  1863.50
                             1896.57  1903.26  1930.11  1939.49  1969.71
                             1983.14  2011.39  2017.60  2030.78  2059.36
                             2062.28  2068.02  2090.83  2122.61  2139.38
                             2180.26  2185.88  2196.28  2205.18  2216.00
                             2253.86  2346.77  2355.09  2399.97  2454.51
                             2465.39  2562.71  4370.88  4388.82  4390.28
                             4399.27  4415.50  4471.81  4480.87  4486.37
                             4502.74  4516.82  4537.61  4582.98  4603.18
                             4625.00  4645.40  4973.09  5017.19  5095.09
                             5277.49

 Zero-point correction=                           0.328116 (Hartree/Particle)
 Thermal correction to Energy=                    0.347081
 Thermal correction to Enthalpy=                  0.348026
 Thermal correction to Gibbs Free Energy=         0.280924
 Sum of electronic and zero-point Energies=           -934.622530
 Sum of electronic and thermal Energies=              -934.603564
 Sum of electronic and thermal Enthalpies=            -934.602620
 Sum of electronic and thermal Free Energies=         -934.669721

                     E (Thermal)             CV                S
                      KCal/Mol        Cal/Mol-Kelvin    Cal/Mol-Kelvin
 Total                  217.797             73.528            141.226
 Electronic               0.000              0.000              0.000
 Translational            0.889              2.981             42.757
 Rotational               0.889              2.981             33.719
 Vibrational            216.019             67.566             64.751
 Vibration     1          0.594              1.984              5.778
 Vibration     2          0.595              1.980              5.110
 Vibration     3          0.595              1.978              4.815
 Vibration     4          0.600              1.963              3.914
 Vibration     5          0.601              1.958              3.731
 Vibration     6          0.603              1.953              3.562
 Vibration     7          0.607              1.940              3.250
 Vibration     8          0.618              1.902              2.668
 Vibration     9          0.633              1.856              2.245
 Vibration    10          0.636              1.845              2.168
 Vibration    11          0.644              1.820              2.012
 Vibration    12          0.661              1.769              1.755
 Vibration    13          0.666              1.751              1.683
 Vibration    14          0.674              1.728              1.596
 Vibration    15          0.680              1.711              1.535
 Vibration    16          0.690              1.680              1.437
 Vibration    17          0.699              1.655              1.363
 Vibration    18          0.705              1.639              1.319
 Vibration    19          0.722              1.588              1.195
 Vibration    20          0.733              1.559              1.132
 Vibration    21          0.742              1.534              1.080
 Vibration    22          0.774              1.448              0.926
 Vibration    23          0.807              1.364              0.801
 Vibration    24          0.830              1.310              0.729
 Vibration    25          0.850              1.262              0.672
 Vibration    26          0.860              1.239              0.646
 Vibration    27          0.878              1.200              0.604
 Vibration    28          0.896              1.159              0.563
 Vibration    29          0.913              1.123              0.529
 Vibration    30          0.927              1.095              0.503
 Vibration    31          0.948              1.051              0.466

                           ! Non-Optimized Parameters !
 Normal termination of Gaussian 16 at Sun Dec 13 21:19:13 2020.

 ----------------------------------------------------------------------
 # B3LYP/6-311++G(d,p) empiricaldispersion=gd3bj scf=xqc pop=npa geom=c
 heck
 ----------------------------------------------------------------------

 ----------------------------------------
 CID_117100071_JID_10734_Energie_neutraal
 ----------------------------------------
 Structure from the checkpoint file:  "JID_10734.chk"
 Charge =  0 Multiplicity = 1

 SCF Done:  E(RB3LYP) =  -935.223074520     A.U. after   17 cycles
 Normal termination of Gaussian 16 at Sun Dec 13 21:28:43 2020.

 ----------------------------------------------------------------------
 # B3LYP/6-311++G(d,p) empiricaldispersion=gd3bj scf=xqc pop=npa geom=c
 heck
 ----------------------------------------------------------------------

 --------------------------------------
 CID_117100071_JID_10734_Energie_kation
 --------------------------------------
 Structure from the checkpoint file:  "JID_10734.chk"
 Charge =  1 Multiplicity = 2

 SCF Done:  E(UB3LYP) =  -934.930939000     A.U. after   28 cycles
 Normal termination of Gaussian 16 at Sun Dec 13 21:50:58 2020.
 Gaussian 16:  ES64L-G16RevA.03 25-Dec-2016

 ----------------------------------------------------------------------
 # B3LYP/6-311++G(d,p) empiricaldispersion=gd3bj scf=xqc pop=npa geom=c
 heck
 ----------------------------------------------------------------------

 -------------------------------------
 CID_117100071_JID_10734_Energie_anion
 -------------------------------------
 Structure from the checkpoint file:  "JID_10734.chk"
 Charge = -1 Multiplicity = 2

                         Standard orientation:
 ---------------------------------------------------------------------
 Center     Atomic      Atomic             Coordinates (Angstroms)
 Number     Number       Type             X           Y           Z
 ---------------------------------------------------------------------
      1          6           0        3.940728   -0.577323   -1.531053
      2          6           0        3.689202   -0.285531   -0.046823
      3          6           0        2.439378    0.572887    0.131271
      4          6           0        1.181061   -0.015608    0.003783
      5          6           0       -0.006620    0.706226    0.169761
      6          6           0        0.090765    2.088566    0.406863
      7          6           0        1.343244    2.689660    0.521768
      8          6           0        2.511304    1.939106    0.410534
      9          8           0       -1.019799    2.893568    0.493523
     10          6           0       -1.769801    2.882002   -0.723737
     11          6           0       -2.803316    1.772721   -0.725530
     12          6           0       -2.425001    0.326405   -0.427324
     13          8           0       -3.302302   -0.513051   -0.654611
     14          7           0       -1.243632   -0.029513    0.183574
     15          6           0       -1.162827   -1.371505    0.843990
     16          6           0       -2.329862   -1.651447    1.797123
     17          6           0       -0.876096   -2.538389   -0.132908
     18          8           0        0.212462   -3.111442   -0.115775
     19          7           0       -1.895547   -2.888174   -0.948147
     20          7           0        3.678884   -1.557555    0.686761
     21          1           0        3.107581   -1.153019   -1.952990
     22          1           0        4.857445   -1.163236   -1.646700
     23          1           0        4.030239    0.351311   -2.103746
     24          1           0        4.541017    0.292413    0.335593
     25          1           0        1.126122   -1.077675   -0.199036
     26          1           0        1.370716    3.758013    0.711173
     27          1           0        3.478724    2.422068    0.523184
     28          1           0       -1.084353    2.805065   -1.576599
     29          1           0       -2.279025    3.848652   -0.783007
     30          1           0       -3.555206    2.000711    0.041149
     31          1           0       -3.338847    1.757818   -1.680555
     32          1           0       -0.263556   -1.316802    1.453587
     33          1           0       -3.277768   -1.790443    1.281378
     34          1           0       -2.098515   -2.559567    2.363432
     35          1           0       -2.430247   -0.822712    2.505640
     36          1           0       -2.689895   -2.258124   -1.034319
     37          1           0       -1.712862   -3.592048   -1.650101
     38          1           0        3.438228   -1.386661    1.662250
     39          1           0        2.946413   -2.168299    0.322949
 ---------------------------------------------------------------------

 SCF Done:  E(UB3LYP) =  -935.215053655     A.U. after   33 cycles
 SCF Done:  E(UB3LYP) =  -935.215053654     a.u. after    1 cycles

 The electronic state is 2-A.
 Alpha  occ. eigenvalues --  -19.03962 -19.00122 -18.98320 -14.25817 -14.23466
 Alpha  occ. eigenvalues --  -14.19851 -10.18355 -10.16431 -10.12894 -10.12577
 Alpha  occ. eigenvalues --  -10.12162 -10.11011 -10.10986 -10.07475 -10.07374
 Alpha  occ. eigenvalues --  -10.07329 -10.06940 -10.06846 -10.06638 -10.06378
 Alpha  occ. eigenvalues --   -0.96168  -0.94980  -0.93757  -0.84355  -0.81313
 Alpha  occ. eigenvalues --   -0.79879  -0.74707  -0.68909  -0.67807  -0.65239
 Alpha  occ. eigenvalues --   -0.64457  -0.61777  -0.57605  -0.55649  -0.52905
 Alpha  occ. eigenvalues --   -0.51580  -0.50883  -0.48013  -0.45446  -0.44722
 Alpha  occ. eigenvalues --   -0.43057  -0.41187  -0.40222  -0.38551  -0.38252
 Alpha  occ. eigenvalues --   -0.37380  -0.36368  -0.34848  -0.34807  -0.34307
 Alpha  occ. eigenvalues --   -0.33633  -0.32863  -0.32336  -0.31629  -0.31455
 Alpha  occ. eigenvalues --   -0.30654  -0.29597  -0.28847  -0.28227  -0.28039
 Alpha  occ. eigenvalues --   -0.26990  -0.26357  -0.26162  -0.24985  -0.24420
 Alpha  occ. eigenvalues --   -0.23407  -0.20003  -0.18926  -0.18524  -0.17049
 Alpha  occ. eigenvalues --   -0.15970  -0.15433  -0.13726  -0.12171   0.04485
 Alpha virt. eigenvalues --    0.06784   0.06954   0.07165   0.07679   0.08300
 Alpha virt. eigenvalues --    0.08759   0.09114   0.09427   0.09544   0.09833
 Alpha virt. eigenvalues --    0.10027   0.10655   0.11203   0.11379   0.11882

  Beta  occ. eigenvalues --  -19.03965 -19.00121 -18.98156 -14.25873 -14.23456
  Beta  occ. eigenvalues --  -14.19850 -10.18348 -10.16194 -10.12889 -10.12584
  Beta  occ. eigenvalues --  -10.12120 -10.11007 -10.10830 -10.07470 -10.07388
  Beta  occ. eigenvalues --  -10.07313 -10.06917 -10.06837 -10.06535 -10.06338
  Beta  occ. eigenvalues --   -0.96147  -0.94948  -0.93480  -0.84261  -0.81293
  Beta  occ. eigenvalues --   -0.79869  -0.74603  -0.68815  -0.67735  -0.65171
  Beta  occ. eigenvalues --   -0.64309  -0.61705  -0.57495  -0.55537  -0.52767
  Beta  occ. eigenvalues --   -0.51471  -0.50798  -0.47976  -0.45403  -0.44628
  Beta  occ. eigenvalues --   -0.42957  -0.41117  -0.40178  -0.38466  -0.38196
  Beta  occ. eigenvalues --   -0.37313  -0.36328  -0.34780  -0.34712  -0.34016
  Beta  occ. eigenvalues --   -0.33577  -0.32781  -0.32257  -0.31546  -0.31324
  Beta  occ. eigenvalues --   -0.30564  -0.29505  -0.28802  -0.28088  -0.28004
  Beta  occ. eigenvalues --   -0.26948  -0.26285  -0.25966  -0.24892  -0.24141
  Beta  occ. eigenvalues --   -0.23291  -0.19637  -0.18821  -0.18488  -0.16908
  Beta  occ. eigenvalues --   -0.15898  -0.15344  -0.13473  -0.11842
  Beta virt. eigenvalues --    0.06552   0.07106   0.07720   0.07848   0.08326
  Beta virt. eigenvalues --    0.08422   0.08980   0.09166   0.09444   0.09702
  Beta virt. eigenvalues --    0.10202   0.10505   0.11028   0.11365   0.11661

 Mulliken charges and spin densities:
               1          2
     1  C   -0.332566  -0.316998
     2  C   -0.444845  -0.072315
     3  C    0.465954   0.407162
     4  C   -0.271802   0.023535
     5  C    0.438567  -0.541630
     6  C   -0.382803   0.123262
     7  C    0.145570  -0.071524
     8  C   -0.486548  -0.118656
     9  O   -0.113275   0.045330
    10  C    0.287158  -0.640584
    11  C    0.135854  -0.612481
    12  C    0.064539   0.156255
    13  O   -0.360477   0.071941
    14  N    0.365863   0.043245
    15  C   -0.198777   0.204175
    16  C   -0.012892  -0.648235
    17  C   -0.074803  -0.014785
    18  O   -0.305068   0.007428
    19  N   -0.380910   0.039301
    20  N   -0.217333  -0.006916
    21  H    0.002182   0.157177
    22  H    0.094889   0.034814
    23  H    0.086008   0.052071
    24  H    0.084393   0.104708
    25  H    0.230787  -0.080915
    26  H   -0.074256   0.254735
    27  H   -0.017380   0.131166
    28  H    0.049381   0.109668
    29  H   -0.768561   0.963942
    30  H   -0.227990   0.457043
    31  H   -0.060285   0.236178
    32  H    0.214698   0.014326
    33  H    0.038796   0.136645
    34  H    0.067187   0.082358
    35  H    0.033692   0.129131
    36  H    0.327882  -0.020597
    37  H    0.139794   0.140136
    38  H    0.186467   0.030828
    39  H    0.270910  -0.010923
 Sum of Mulliken charges =  -1.00000   1.00000

 Dipole moment (field-independent basis, Debye):
    X=              2.7354    Y=             -3.4450    Z=              0.4458  Tot=              4.4215
 Quadrupole moment (field-independent basis, Debye-Ang):
   XX=           -185.7664   YY=           -178.2095   ZZ=           -140.1434
   XY=             20.8356   XZ=             -0.3402   YZ=              1.3988

 Summary of Natural Population Analysis:

                                       Natural Population
                Natural  -----------------------------------------------
    Atom  No    Charge         Core      Valence    Rydberg      Total
 -----------------------------------------------------------------------
      C    1   -0.28320      0.99965     2.27879    0.00476     3.28320
      C    2   -0.01783      0.99958     2.00685    0.01140     3.01783
      C    3   -0.02666      0.99949     2.01718    0.01000     3.02666
      C    4   -0.11310      0.99947     2.10392    0.00971     3.11310
      C    5    0.08632      0.99939     1.90339    0.01090     2.91368
      C    6    0.14245      0.99933     1.84318    0.01505     2.85755
      C    7   -0.10977      0.99951     2.10103    0.00923     3.10977
      C    8   -0.08854      0.99951     2.08062    0.00841     3.08854
      O    9   -0.28927      0.99986     3.27963    0.00978     4.28927
      C   10   -0.00989      0.99956     1.99771    0.01263     3.00989
      C   11   -0.24264      0.99959     2.23305    0.01000     3.24264
      C   12    0.39326      0.99962     1.58528    0.02183     2.60674
      O   13   -0.33325      0.99987     3.32760    0.00579     4.33325
      N   14   -0.25874      0.99961     2.74694    0.01218     3.75874
      C   15   -0.03947      0.99953     2.02652    0.01341     3.03947
      C   16   -0.28977      0.99964     2.28511    0.00503     3.28977
      C   17    0.33767      0.99966     1.64002    0.02265     2.66233
      O   18   -0.33488      0.99988     3.32858    0.00642     4.33488
      N   19   -0.40229      0.99968     2.89543    0.00717     3.90229
      N   20   -0.42197      0.99978     2.91374    0.00846     3.92197
      H   21    0.09990      0.00000     0.39908    0.00102     0.40010
      H   22    0.09909      0.00000     0.39992    0.00098     0.40091
      H   23    0.10009      0.00000     0.39902    0.00090     0.39991
      H   24    0.08818      0.00000     0.40997    0.00185     0.41182
      H   25    0.11234      0.00000     0.38533    0.00233     0.38766
      H   26    0.10484      0.00000     0.39403    0.00113     0.39516
      H   27    0.09522      0.00000     0.40331    0.00148     0.40478
      H   28    0.08558      0.00000     0.41255    0.00188     0.41442
      H   29    0.09529      0.00000     0.40194    0.00277     0.40471
      H   30    0.11873      0.00000     0.37839    0.00288     0.38127
      H   31    0.11264      0.00000     0.38638    0.00097     0.38736
      H   32    0.11306      0.00000     0.38495    0.00199     0.38694
      H   33    0.11414      0.00000     0.38459    0.00127     0.38586
      H   34    0.09984      0.00000     0.39931    0.00084     0.40016
      H   35    0.10408      0.00000     0.39475    0.00117     0.39592
      H   36    0.21562      0.00000     0.28213    0.00225     0.28438
      H   37    0.19016      0.00000     0.30756    0.00228     0.30984
      H   38    0.17357      0.00000     0.32461    0.00182     0.32643
      H   39    0.17921      0.00000     0.31869    0.00210     0.32079
 =======================================================================
   * Total *   -0.00000     19.99220    53.76107    0.24673    74.00000

 Normal termination of Gaussian 16 at Sun Dec 13 22:16:17 2020.
