 Gaussian 16, Revision A.03,

 -----------------------------------------------------------
 # opt freq B3LYP/6-31G(d) empiricaldispersion=gd3bj scf=xqc
 -----------------------------------------------------------

 -------------------------------
 CID_146610792_JID_4463_neutraal
 -------------------------------
 Symbolic Z-matrix:
 Charge =  0 Multiplicity = 1

 SCF Done:  E(RB3LYP) =  -1050.41885437     A.U. after   15 cycles
 SCF Done:  E(RB3LYP) =  -1050.42687801     A.U. after   12 cycles
 SCF Done:  E(RB3LYP) =  -1050.42767771     A.U. after   11 cycles
 SCF Done:  E(RB3LYP) =  -1050.42775977     A.U. after   10 cycles
 SCF Done:  E(RB3LYP) =  -1050.42776932     A.U. after   10 cycles
 SCF Done:  E(RB3LYP) =  -1050.42777220     A.U. after    9 cycles
 SCF Done:  E(RB3LYP) =  -1050.42777402     A.U. after    9 cycles
 SCF Done:  E(RB3LYP) =  -1050.42777659     A.U. after   10 cycles
 SCF Done:  E(RB3LYP) =  -1050.42777865     A.U. after   10 cycles
 SCF Done:  E(RB3LYP) =  -1050.42778096     A.U. after   10 cycles
 SCF Done:  E(RB3LYP) =  -1050.43517471     A.U. after   10 cycles
 SCF Done:  E(RB3LYP) =  -1050.43517802     A.U. after   10 cycles
 SCF Done:  E(RB3LYP) =  -1050.43517617     A.U. after   10 cycles
 SCF Done:  E(RB3LYP) =  -1050.43517805     A.U. after   10 cycles
 SCF Done:  E(RB3LYP) =  -1050.43517806     A.U. after    6 cycles
 Optimization completed.
    -- Stationary point found.
 Normal termination of Gaussian 16 at Thu Dec 10 10:58:22 2020.

 --------------------------------------------------------------------
 #N Geom=AllCheck Guess=TCheck SCRF=Check GenChk RB3LYP/6-31G(d) Freq
 --------------------------------------------------------------------

 Structure from the checkpoint file:  "JID_4463.chk"
 -------------------------------
 CID_146610792_JID_4463_neutraal
 -------------------------------
 Charge =  0 Multiplicity = 1

 SCF Done:  E(RB3LYP) =  -1050.43517806     A.U. after    1 cycles

  Exact polarizability: 157.003   0.279 122.693  -2.175  -0.085  89.626
 Approx polarizability: 203.356  -1.484 201.496   5.942  -2.297 134.631

                      1                      2                      3
                      A                      A                      A
 Frequencies --     20.1577                35.3217                72.4642
 Red. masses --      3.4954                 4.7132                 3.8863
 Frc consts  --      0.0008                 0.0035                 0.0120
 IR Inten    --      1.7209                 3.4474                 3.3092

                      4                      5                      6
                      A                      A                      A
 Frequencies --    102.9097               111.0749               148.0614
 Red. masses --      4.5967                 1.1364                 3.4301
 Frc consts  --      0.0287                 0.0083                 0.0443
 IR Inten    --      1.2975                 1.0646                 0.3600

                      7                      8                      9
                      A                      A                      A
 Frequencies --    191.7507               208.3539               218.2227
 Red. masses --      1.9641                 1.4398                 3.0984
 Frc consts  --      0.0425                 0.0368                 0.0869
 IR Inten    --      0.2115                 0.5289                 1.0031

                     10                     11                     12
                      A                      A                      A
 Frequencies --    250.5675               261.8070               271.1854
 Red. masses --      3.4318                 1.2592                 2.9060
 Frc consts  --      0.1269                 0.0509                 0.1259
 IR Inten    --      2.3634                 0.6014                 3.0908

                     13                     14                     15
                      A                      A                      A
 Frequencies --    288.8317               299.7059               310.7881
 Red. masses --      1.6418                 1.9409                 2.8530
 Frc consts  --      0.0807                 0.1027                 0.1624
 IR Inten    --      1.1099                 1.1564                 0.6722

                     16                     17                     18
                      A                      A                      A
 Frequencies --    314.1927               355.9348               375.0649
 Red. masses --      1.0966                 3.2633                 3.4701
 Frc consts  --      0.0638                 0.2436                 0.2876
 IR Inten    --     92.4828                 5.5156                 4.0857

                     19                     20                     21
                      A                      A                      A
 Frequencies --    400.3180               427.2096               461.9070
 Red. masses --      4.4504                 4.0539                 4.9933
 Frc consts  --      0.4202                 0.4359                 0.6277
 IR Inten    --     10.8490                 5.8181                35.4966

                     22                     23                     24
                      A                      A                      A
 Frequencies --    493.6888               523.6368               548.9623
 Red. masses --      5.1936                 3.9329                 5.8480
 Frc consts  --      0.7458                 0.6354                 1.0383
 IR Inten    --     10.6772                25.8724                55.2855

                     25                     26                     27
                      A                      A                      A
 Frequencies --    613.9501               638.3491               703.0453
 Red. masses --      3.2495                 6.7509                 4.2096
 Frc consts  --      0.7217                 1.6208                 1.2259
 IR Inten    --     33.3386                 1.2960                 4.6899

                     28                     29                     30
                      A                      A                      A
 Frequencies --    716.2235               751.1346               863.1164
 Red. masses --      4.5691                 6.1855                 1.6852
 Frc consts  --      1.3810                 2.0562                 0.7397
 IR Inten    --     10.5062                96.5319                 8.7894

                     31                     32                     33
                      A                      A                      A
 Frequencies --    867.8955               933.6693               967.3923
 Red. masses --      2.0134                 1.5409                 3.8196
 Frc consts  --      0.8936                 0.7914                 2.1061
 IR Inten    --     30.0660                 0.0808                 9.0795

                     34                     35                     36
                      A                      A                      A
 Frequencies --    975.7557               987.8158               993.2450
 Red. masses --      2.3717                 1.4704                 1.3967
 Frc consts  --      1.3304                 0.8454                 0.8118
 IR Inten    --     14.2051                18.7126                 5.6676

                     37                     38                     39
                      A                      A                      A
 Frequencies --   1012.6884              1032.3828              1082.7697
 Red. masses --      2.1688                 1.3047                 1.4690
 Frc consts  --      1.3104                 0.8193                 1.0147
 IR Inten    --     50.1412                 0.7482                 1.2723

                     40                     41                     42
                      A                      A                      A
 Frequencies --   1090.0813              1122.9286              1141.3941
 Red. masses --      1.9627                 6.0260                 2.4244
 Frc consts  --      1.3741                 4.4769                 1.8609
 IR Inten    --     17.1350               128.4925                67.0514

                     43                     44                     45
                      A                      A                      A
 Frequencies --   1161.6330              1209.8870              1230.6226
 Red. masses --      1.8952                 2.9059                 2.7597
 Frc consts  --      1.5067                 2.5063                 2.4624
 IR Inten    --    150.1804                35.2066                16.8013

                     46                     47                     48
                      A                      A                      A
 Frequencies --   1232.0615              1276.9808              1326.4107
 Red. masses --      3.3410                 4.7586                15.6351
 Frc consts  --      2.9880                 4.5719                16.2072
 IR Inten    --     18.8408                37.5555               178.8475

                     49                     50                     51
                      A                      A                      A
 Frequencies --   1370.7343              1377.0503              1425.2006
 Red. masses --      1.3092                 1.8245                 1.2626
 Frc consts  --      1.4493                 2.0384                 1.5110
 IR Inten    --      2.4799                46.8521                 9.8737

                     52                     53                     54
                      A                      A                      A
 Frequencies --   1430.3609              1443.2710              1451.2560
 Red. masses --      1.4787                 1.3622                 2.1633
 Frc consts  --      1.7824                 1.6719                 2.6845
 IR Inten    --      8.0946                 5.6381                 5.8066

                     55                     56                     57
                      A                      A                      A
 Frequencies --   1480.4104              1484.4112              1507.7816
 Red. masses --      1.0516                 1.0511                 1.0979
 Frc consts  --      1.3578                 1.3646                 1.4706
 IR Inten    --      6.6511                 3.4153                 1.4801

                     58                     59                     60
                      A                      A                      A
 Frequencies --   1508.7735              1514.5531              1519.1658
 Red. masses --      1.0689                 1.0501                 1.0529
 Frc consts  --      1.4337                 1.4192                 1.4317
 IR Inten    --      2.9650                 5.8451                 2.0026

                     61                     62                     63
                      A                      A                      A
 Frequencies --   1529.3112              1538.6557              1566.6894
 Red. masses --      1.0530                 1.1311                 6.0309
 Frc consts  --      1.4511                 1.5777                 8.7216
 IR Inten    --      4.1292                 3.2320                56.4668

                     64                     65                     66
                      A                      A                      A
 Frequencies --   1657.2351              3040.9195              3052.1081
 Red. masses --      7.1031                 1.0406                 1.0411
 Frc consts  --     11.4938                 5.6695                 5.7143
 IR Inten    --     24.2906                23.2362                26.2057

                     67                     68                     69
                      A                      A                      A
 Frequencies --   3054.5480              3083.4053              3101.7688
 Red. masses --      1.0376                 1.0289                 1.1009
 Frc consts  --      5.7041                 5.7633                 6.2406
 IR Inten    --     21.0765                 0.2181                11.8026

                     70                     71                     72
                      A                      A                      A
 Frequencies --   3112.3977              3120.5860              3140.8762
 Red. masses --      1.0967                 1.0986                 1.1033
 Frc consts  --      6.2594                 6.3034                 6.4130
 IR Inten    --      7.0934                53.3014                14.4380

                     73                     74                     75
                      A                      A                      A
 Frequencies --   3145.1464              3184.1028              3192.0812
 Red. masses --      1.1034                 1.1063                 1.0966
 Frc consts  --      6.4306                 6.6084                 6.5833
 IR Inten    --     20.8882                 0.5282                 0.1454

                     76                     77                     78
                      A                      A                      A
 Frequencies --   3192.6492              3296.4883              3732.0333
 Red. masses --      1.1083                 1.0968                 1.0658
 Frc consts  --      6.6560                 7.0220                 8.7465
 IR Inten    --      0.8417                 0.3957                 8.2176

 - Thermochemistry -
 -------------------
 Temperature   298.150 Kelvin.  Pressure   1.00000 Atm.
 Atom     1 has atomic number  6 and mass  12.00000

 Molecular mass:   218.06128 amu.
 Principal axes and moments of inertia in atomic units:
                           1         2         3
     Eigenvalues --  1471.239725267.474595931.16807
           X            0.99973  -0.01435  -0.01849
           Y            0.01439   0.99989   0.00183
           Z            0.01846  -0.00210   0.99983
 This molecule is an asymmetric top.
 Rotational symmetry number  1.
 Warning -- assumption of classical behavior for rotation
           may cause significant error
 Rotational temperatures (Kelvin)      0.05887     0.01644     0.01460
 Rotational constants (GHZ):           1.22668     0.34262     0.30428
 Zero-point vibrational energy     591418.9 (Joules/Mol)
                                  141.35251 (Kcal/Mol)
 Warning -- explicit consideration of  25 degrees of freedom as
           vibrations may cause significant error
 Vibrational temperatures:     29.00    50.82   104.26   148.06   159.81
          (Kelvin)            213.03   275.89   299.77   313.97   360.51
                              376.68   390.18   415.56   431.21   447.15
                              452.05   512.11   539.63   575.97   614.66
                              664.58   710.31   753.40   789.83   883.34
                              918.44  1011.53  1030.49  1080.72  1241.83
                             1248.71  1343.34  1391.86  1403.89  1421.25
                             1429.06  1457.03  1485.37  1557.86  1568.38
                             1615.64  1642.21  1671.33  1740.76  1770.59
                             1772.66  1837.29  1908.41  1972.18  1981.27
                             2050.55  2057.97  2076.55  2088.03  2129.98
                             2135.74  2169.36  2170.79  2179.10  2185.74
                             2200.34  2213.78  2254.12  2384.39  4375.20
                             4391.30  4394.81  4436.33  4462.75  4478.05
                             4489.83  4519.02  4525.16  4581.21  4592.69
                             4593.51  4742.91  5369.56

 Zero-point correction=                           0.225260 (Hartree/Particle)
 Thermal correction to Energy=                    0.240900
 Thermal correction to Enthalpy=                  0.241844
 Thermal correction to Gibbs Free Energy=         0.181718
 Sum of electronic and zero-point Energies=          -1050.209918
 Sum of electronic and thermal Energies=             -1050.194278
 Sum of electronic and thermal Enthalpies=           -1050.193334
 Sum of electronic and thermal Free Energies=        -1050.253460

                     E (Thermal)             CV                S
                      KCal/Mol        Cal/Mol-Kelvin    Cal/Mol-Kelvin
 Total                  151.167             57.623            126.546
 Electronic               0.000              0.000              0.000
 Translational            0.889              2.981             42.042
 Rotational               0.889              2.981             32.197
 Vibrational            149.390             51.661             52.307
 Vibration     1          0.593              1.986              6.619
 Vibration     2          0.594              1.982              5.506
 Vibration     3          0.599              1.967              4.085
 Vibration     4          0.605              1.947              3.398
 Vibration     5          0.607              1.940              3.250
 Vibration     6          0.617              1.905              2.697
 Vibration     7          0.634              1.851              2.211
 Vibration     8          0.642              1.828              2.058
 Vibration     9          0.646              1.813              1.974
 Vibration    10          0.663              1.762              1.727
 Vibration    11          0.669              1.743              1.650
 Vibration    12          0.675              1.726              1.589
 Vibration    13          0.685              1.694              1.481
 Vibration    14          0.692              1.674              1.419
 Vibration    15          0.700              1.653              1.358
 Vibration    16          0.702              1.647              1.340
 Vibration    17          0.731              1.563              1.140
 Vibration    18          0.746              1.523              1.059
 Vibration    19          0.766              1.469              0.961
 Vibration    20          0.789              1.411              0.868
 Vibration    21          0.820              1.335              0.761
 Vibration    22          0.849              1.264              0.674
 Vibration    23          0.879              1.198              0.602
 Vibration    24          0.904              1.142              0.546
 Vibration    25          0.973              1.002              0.426

 Optimization completed.
    -- Stationary point found.
 Normal termination of Gaussian 16 at Thu Dec 10 11:06:02 2020.

 ----------------------------------------------------------------------
 # B3LYP/6-311++G(d,p) empiricaldispersion=gd3bj scf=xqc pop=npa geom=c
 heck
 ----------------------------------------------------------------------

 ---------------------------------------
 CID_146610792_JID_4463_Energie_neutraal
 ---------------------------------------
 Structure from the checkpoint file:  "JID_4463.chk"
 Charge =  0 Multiplicity = 1

 SCF Done:  E(RB3LYP) =  -1050.65630460     A.U. after   15 cycles
 Normal termination of Gaussian 16 at Thu Dec 10 11:09:04 2020.

 ----------------------------------------------------------------------
 # B3LYP/6-311++G(d,p) empiricaldispersion=gd3bj scf=xqc pop=npa geom=c
 heck
 ----------------------------------------------------------------------

 -------------------------------------
 CID_146610792_JID_4463_Energie_kation
 -------------------------------------
 Structure from the checkpoint file:  "JID_4463.chk"
 Charge =  1 Multiplicity = 2

 SCF Done:  E(UB3LYP) =  -1050.34199789     A.U. after   25 cycles
 Normal termination of Gaussian 16 at Thu Dec 10 11:15:43 2020.
 Gaussian 16:  ES64L-G16RevA.03 25-Dec-2016

 ----------------------------------------------------------------------
 # B3LYP/6-311++G(d,p) empiricaldispersion=gd3bj scf=xqc pop=npa geom=c
 heck
 ----------------------------------------------------------------------

 ------------------------------------
 CID_146610792_JID_4463_Energie_anion
 ------------------------------------
 Structure from the checkpoint file:  "JID_4463.chk"
 Charge = -1 Multiplicity = 2

                         Standard orientation:
 ---------------------------------------------------------------------
 Center     Atomic      Atomic             Coordinates (Angstroms)
 Number     Number       Type             X           Y           Z
 ---------------------------------------------------------------------
      1          6           0        1.526747    2.587687    0.012048
      2          6           0        0.852780    1.262760    0.008225
      3          6           0        1.285985   -0.042076    0.036488
      4          6           0        0.106499   -0.858159   -0.004058
      5          6           0       -0.947229    0.001872   -0.054092
      6          8           0       -0.517568    1.295652   -0.043396
      7         16           0       -2.680690   -0.307377   -0.160563
      8          8           0       -3.249798    0.486675   -1.255689
      9          8           0       -2.819735   -1.769889   -0.126135
     10          6           0       -3.312412    0.372510    1.386281
     11          6           0        2.714875   -0.540680    0.039211
     12          6           0        2.818441   -1.928407    0.686240
     13          6           0        3.261928   -0.570221   -1.398087
     14          8           0        3.471826    0.398396    0.824899
     15          1           0        1.335900    3.125556   -0.924611
     16          1           0        1.152652    3.211224    0.832491
     17          1           0        2.598845    2.444733    0.140461
     18          1           0        0.034180   -1.934900    0.003121
     19          1           0       -2.882813   -0.185470    2.219931
     20          1           0       -3.045205    1.429805    1.436349
     21          1           0       -4.398346    0.254541    1.360518
     22          1           0        2.273051   -2.686230    0.114809
     23          1           0        3.869163   -2.239551    0.726244
     24          1           0        2.425341   -1.902172    1.706359
     25          1           0        3.234880    0.433125   -1.832955
     26          1           0        4.299204   -0.930591   -1.408279
     27          1           0        2.666968   -1.236735   -2.030596
     28          1           0        4.403750    0.136315    0.754197
 ---------------------------------------------------------------------

 SCF Done:  E(UB3LYP) =  -1050.64977514     A.U. after   33 cycles
 SCF Done:  E(UB3LYP) =  -1050.64977514     a.u. after    1 cycles

 The electronic state is 2-A.
 Alpha  occ. eigenvalues --  -88.95812 -19.09692 -19.02109 -19.02025 -19.01940
 Alpha  occ. eigenvalues --  -10.14358 -10.14073 -10.13752 -10.11724 -10.08686
 Alpha  occ. eigenvalues --  -10.08279 -10.07752 -10.06395 -10.06266  -8.02144
 Alpha  occ. eigenvalues --   -5.98404  -5.98335  -5.98275  -1.02895  -1.01062
 Alpha  occ. eigenvalues --   -0.92657  -0.91095  -0.72999  -0.70948  -0.67877
 Alpha  occ. eigenvalues --   -0.66950  -0.61340  -0.59706  -0.55187  -0.52340
 Alpha  occ. eigenvalues --   -0.48783  -0.45469  -0.43252  -0.39901  -0.39256
 Alpha  occ. eigenvalues --   -0.37965  -0.37634  -0.36641  -0.35472  -0.34492
 Alpha  occ. eigenvalues --   -0.33903  -0.33488  -0.32442  -0.31284  -0.30958
 Alpha  occ. eigenvalues --   -0.30426  -0.29718  -0.28422  -0.26763  -0.26221
 Alpha  occ. eigenvalues --   -0.24346  -0.23399  -0.22980  -0.21367  -0.20583
 Alpha  occ. eigenvalues --   -0.19444  -0.17791  -0.13809   0.04066
 Alpha virt. eigenvalues --    0.05773   0.06218   0.07598   0.08517   0.08779
 Alpha virt. eigenvalues --    0.09718   0.09874   0.10303   0.11189   0.11694
 Alpha virt. eigenvalues --    0.11818   0.12054   0.13561   0.13733   0.13909

  Beta  occ. eigenvalues --  -88.95806 -19.09607 -19.02065 -19.02015 -19.01925
  Beta  occ. eigenvalues --  -10.14356 -10.14011 -10.13672 -10.11679 -10.08617
  Beta  occ. eigenvalues --  -10.08302 -10.07742 -10.06364 -10.06222  -8.02137
  Beta  occ. eigenvalues --   -5.98400  -5.98330  -5.98254  -1.02771  -1.01002
  Beta  occ. eigenvalues --   -0.92572  -0.91070  -0.72919  -0.70811  -0.67783
  Beta  occ. eigenvalues --   -0.66877  -0.61243  -0.59639  -0.55099  -0.52254
  Beta  occ. eigenvalues --   -0.48677  -0.45372  -0.43188  -0.39769  -0.39158
  Beta  occ. eigenvalues --   -0.37903  -0.37500  -0.36476  -0.35405  -0.34430
  Beta  occ. eigenvalues --   -0.33862  -0.33418  -0.32386  -0.31188  -0.30865
  Beta  occ. eigenvalues --   -0.30378  -0.29668  -0.28353  -0.26708  -0.26185
  Beta  occ. eigenvalues --   -0.24314  -0.23352  -0.22937  -0.21315  -0.20507
  Beta  occ. eigenvalues --   -0.19165  -0.17651  -0.13424
  Beta virt. eigenvalues --    0.06235   0.06947   0.07071   0.07916   0.09172
  Beta virt. eigenvalues --    0.09295   0.10013   0.10246   0.10763   0.11449
  Beta virt. eigenvalues --    0.11749   0.12021   0.12353   0.13795   0.13890

 Mulliken charges and spin densities:
               1          2
     1  C    0.466413  -1.062502
     2  C    1.143326  -1.301459
     3  C    2.919297  -2.239285
     4  C   -0.643502   0.698860
     5  C   -0.553855  -0.816086
     6  O    0.075873   0.035811
     7  S    0.772948   0.039890
     8  O   -0.134648   0.006210
     9  O   -0.181922   0.001230
    10  C   -0.119018  -0.503425
    11  C   -5.162287   5.249479
    12  C    0.818417  -1.319523
    13  C    0.975754  -1.583369
    14  O   -0.046381  -0.104677
    15  H   -0.016511   0.187695
    16  H    0.055855   0.088275
    17  H    0.108951   0.105379
    18  H    0.186391   0.038596
    19  H    0.008541   0.172324
    20  H    0.083431   0.127629
    21  H   -0.060559   0.290454
    22  H   -0.010709   0.141749
    23  H   -0.720142   0.882565
    24  H    0.089098   0.077726
    25  H    0.106930   0.055706
    26  H   -0.738737   0.883348
    27  H   -0.098669   0.264370
    28  H   -0.324285   0.583028
 Sum of Mulliken charges =  -1.00000   1.00000

 Dipole moment (field-independent basis, Debye):
    X=             -5.4757    Y=              2.1501    Z=              1.5059  Tot=              6.0724
 Quadrupole moment (field-independent basis, Debye-Ang):
   XX=           -192.7661   YY=           -122.6894   ZZ=           -119.6755
   XY=              6.2726   XZ=             -5.7657   YZ=             -0.5690

 Summary of Natural Population Analysis:

                                       Natural Population
                Natural  -----------------------------------------------
    Atom  No    Charge         Core      Valence    Rydberg      Total
 -----------------------------------------------------------------------
      C    1   -0.31093      0.99962     2.30642    0.00490     3.31093
      C    2    0.19006      0.99942     1.79719    0.01333     2.80994
      C    3   -0.07302      0.99942     2.06062    0.01298     3.07302
      C    4   -0.10384      0.99944     2.09661    0.00779     3.10384
      C    5    0.00899      0.99934     1.97228    0.01939     2.99101
      O    6   -0.23157      0.99984     3.22310    0.00863     4.23157
      S    7    1.02959      4.99919     1.87235    0.09887     6.97041
      O    8   -0.46348      0.99991     3.45768    0.00589     4.46348
      O    9   -0.46829      0.99991     3.46277    0.00561     4.46829
      C   10   -0.39122      0.99961     2.38339    0.00821     3.39122
      C   11    0.12109      0.99952     1.86391    0.01548     2.87891
      C   12   -0.29304      0.99963     2.28629    0.00712     3.29304
      C   13   -0.28979      0.99962     2.28380    0.00638     3.28979
      O   14   -0.37746      0.99989     3.37047    0.00709     4.37746
      H   15    0.10578      0.00000     0.39273    0.00150     0.39422
      H   16    0.10518      0.00000     0.39355    0.00127     0.39482
      H   17    0.12495      0.00000     0.37388    0.00117     0.37505
      H   18    0.11846      0.00000     0.38054    0.00100     0.38154
      H   19    0.11495      0.00000     0.38393    0.00112     0.38505
      H   20    0.11663      0.00000     0.38219    0.00118     0.38337
      H   21    0.11628      0.00000     0.38220    0.00152     0.38372
      H   22    0.10031      0.00000     0.39869    0.00100     0.39969
      H   23    0.10402      0.00000     0.39440    0.00159     0.39598
      H   24    0.10415      0.00000     0.39481    0.00104     0.39585
      H   25    0.10277      0.00000     0.39604    0.00119     0.39723
      H   26    0.10203      0.00000     0.39542    0.00256     0.39797
      H   27    0.10330      0.00000     0.39566    0.00104     0.39670
      H   28    0.23410      0.00000     0.25681    0.00909     0.26590
 =======================================================================
   * Total *   -0.00000     17.99435    39.75771    0.24793    58.00000

 Normal termination of Gaussian 16 at Thu Dec 10 11:24:38 2020.
