 Gaussian 16, Revision A.03,

 -----------------------------------------------------------
 # opt freq B3LYP/6-31G(d) empiricaldispersion=gd3bj scf=xqc
 -----------------------------------------------------------

 -------------------------------
 CID_129638396_JID_8615_neutraal
 -------------------------------
 Symbolic Z-matrix:
 Charge =  0 Multiplicity = 1

 SCF Done:  E(RB3LYP) =  -806.759440909     A.U. after   15 cycles
 SCF Done:  E(RB3LYP) =  -806.763882617     A.U. after   12 cycles
 SCF Done:  E(RB3LYP) =  -806.762776114     A.U. after   14 cycles
 SCF Done:  E(RB3LYP) =  -806.764804769     A.U. after   12 cycles
 SCF Done:  E(RB3LYP) =  -806.765770288     A.U. after   12 cycles
 SCF Done:  E(RB3LYP) =  -806.766255236     A.U. after   12 cycles
 SCF Done:  E(RB3LYP) =  -806.766254469     A.U. after   12 cycles
 SCF Done:  E(RB3LYP) =  -806.766820059     A.U. after   12 cycles
 SCF Done:  E(RB3LYP) =  -806.767030461     A.U. after   12 cycles
 SCF Done:  E(RB3LYP) =  -806.767117011     A.U. after   11 cycles
 SCF Done:  E(RB3LYP) =  -806.767172456     A.U. after    9 cycles
 SCF Done:  E(RB3LYP) =  -806.767174222     A.U. after    8 cycles
 SCF Done:  E(RB3LYP) =  -806.767174605     A.U. after    7 cycles
 SCF Done:  E(RB3LYP) =  -806.767174714     A.U. after    7 cycles
 SCF Done:  E(RB3LYP) =  -806.767174779     A.U. after    7 cycles
 Optimization completed.
    -- Stationary point found.
 Normal termination of Gaussian 16 at Fri Dec 11 21:22:15 2020.

 --------------------------------------------------------------------
 #N Geom=AllCheck Guess=TCheck SCRF=Check GenChk RB3LYP/6-31G(d) Freq
 --------------------------------------------------------------------

 Structure from the checkpoint file:  "JID_8615.chk"
 -------------------------------
 CID_129638396_JID_8615_neutraal
 -------------------------------
 Charge =  0 Multiplicity = 1

 SCF Done:  E(RB3LYP) =  -806.767174779     A.U. after    1 cycles

  Exact polarizability: 213.545   4.662 166.178   9.279   8.663 114.948
 Approx polarizability: 280.333   5.447 265.827  10.936  16.728 166.585

                      1                      2                      3
                      A                      A                      A
 Frequencies --     22.0785                25.1044                33.7895
 Red. masses --      3.7104                 4.3721                 3.6790
 Frc consts  --      0.0011                 0.0016                 0.0025
 IR Inten    --      0.3169                 0.0467                 0.9171

                      4                      5                      6
                      A                      A                      A
 Frequencies --     67.4801                79.8513                88.4220
 Red. masses --      3.6327                 2.2193                 5.1581
 Frc consts  --      0.0097                 0.0083                 0.0238
 IR Inten    --      1.7224                 0.4466                 1.9337

                      7                      8                      9
                      A                      A                      A
 Frequencies --    102.9604               130.6245               151.9708
 Red. masses --      3.7473                 3.4495                 3.2425
 Frc consts  --      0.0234                 0.0347                 0.0441
 IR Inten    --      0.9573                 1.2422                 0.3472

                     10                     11                     12
                      A                      A                      A
 Frequencies --    155.7530               173.5825               181.1316
 Red. masses --      1.2020                 2.2231                 2.1734
 Frc consts  --      0.0172                 0.0395                 0.0420
 IR Inten    --      0.3153                 2.8852                 2.1406

                     13                     14                     15
                      A                      A                      A
 Frequencies --    237.2900               254.1093               263.5289
 Red. masses --      2.0440                 1.7299                 2.8844
 Frc consts  --      0.0678                 0.0658                 0.1180
 IR Inten    --      1.9466                 1.5553                 0.3780

                     16                     17                     18
                      A                      A                      A
 Frequencies --    292.5623               295.4315               333.7675
 Red. masses --      1.8352                 1.8764                 3.0919
 Frc consts  --      0.0925                 0.0965                 0.2029
 IR Inten    --      1.8106                 2.8057                 7.5431

                     19                     20                     21
                      A                      A                      A
 Frequencies --    352.5077               370.6956               405.5835
 Red. masses --      3.8121                 3.2060                 3.9938
 Frc consts  --      0.2791                 0.2596                 0.3871
 IR Inten    --      2.2387                 4.7382                16.3015

                     22                     23                     24
                      A                      A                      A
 Frequencies --    412.7304               420.7316               451.5828
 Red. masses --      4.0369                 3.0634                 1.9315
 Frc consts  --      0.4052                 0.3195                 0.2321
 IR Inten    --      0.8142                 1.7622                 0.3441

                     25                     26                     27
                      A                      A                      A
 Frequencies --    498.4773               522.4727               552.1388
 Red. masses --      1.9338                 3.3968                 2.8225
 Frc consts  --      0.2831                 0.5463                 0.5070
 IR Inten    --      1.6280                 4.4047                14.6185

                     28                     29                     30
                      A                      A                      A
 Frequencies --    608.3142               634.5233               660.4560
 Red. masses --      4.8932                 6.2037                 5.5466
 Frc consts  --      1.0668                 1.4716                 1.4255
 IR Inten    --     13.4979                 0.9989                 3.6746

                     31                     32                     33
                      A                      A                      A
 Frequencies --    707.6349               727.0851               755.7944
 Red. masses --      1.9286                 2.7052                 7.5737
 Frc consts  --      0.5690                 0.8426                 2.5490
 IR Inten    --     24.8289                 3.1200                15.5458

                     34                     35                     36
                      A                      A                      A
 Frequencies --    776.9286               793.9544               800.4956
 Red. masses --      2.0132                 1.3809                 3.0371
 Frc consts  --      0.7160                 0.5129                 1.1466
 IR Inten    --     44.4580                 3.7310                14.8096

                     37                     38                     39
                      A                      A                      A
 Frequencies --    825.5634               839.5182               847.7735
 Red. masses --      1.1520                 1.2892                 2.4572
 Frc consts  --      0.4626                 0.5353                 1.0405
 IR Inten    --      2.7262                 0.4435                 0.6836

                     40                     41                     42
                      A                      A                      A
 Frequencies --    911.9385               917.9335               929.2898
 Red. masses --      1.4869                 2.1235                 2.3990
 Frc consts  --      0.7285                 1.0542                 1.2206
 IR Inten    --      1.7411                 4.5324                 0.1258

                     43                     44                     45
                      A                      A                      A
 Frequencies --    958.2833               962.4039               986.6374
 Red. masses --      1.4205                 2.4325                 1.2419
 Frc consts  --      0.7686                 1.3275                 0.7123
 IR Inten    --      2.0205                 7.7125                 0.1138

                     46                     47                     48
                      A                      A                      A
 Frequencies --   1021.1073              1022.0331              1060.3920
 Red. masses --      2.5315                 5.5178                 2.8027
 Frc consts  --      1.5551                 3.3959                 1.8568
 IR Inten    --      1.6081                 0.1639                49.0928

                     49                     50                     51
                      A                      A                      A
 Frequencies --   1068.1359              1084.9820              1102.2652
 Red. masses --      2.4241                 2.4181                 2.0096
 Frc consts  --      1.6295                 1.6772                 1.4386
 IR Inten    --     31.5969                20.3447                 1.5024

                     52                     53                     54
                      A                      A                      A
 Frequencies --   1114.6049              1119.4568              1132.1746
 Red. masses --      2.1796                 1.6504                 1.7681
 Frc consts  --      1.5954                 1.2186                 1.3353
 IR Inten    --     21.4044                 8.7061                22.3200

                     55                     56                     57
                      A                      A                      A
 Frequencies --   1144.0254              1162.3766              1163.2142
 Red. masses --      1.7429                 1.3779                 1.8395
 Frc consts  --      1.3440                 1.0969                 1.4665
 IR Inten    --    101.9742                17.8099                26.4698

                     58                     59                     60
                      A                      A                      A
 Frequencies --   1192.7758              1195.0881              1219.8028
 Red. masses --      3.4388                 1.1124                 1.2841
 Frc consts  --      2.8825                 0.9360                 1.1257
 IR Inten    --    344.1739                 9.5024                 4.0441

                     61                     62                     63
                      A                      A                      A
 Frequencies --   1222.3543              1264.9044              1294.7159
 Red. masses --      1.6713                 2.1517                 4.1210
 Frc consts  --      1.4713                 2.0284                 4.0701
 IR Inten    --     19.1147                20.7637               124.3392

                     64                     65                     66
                      A                      A                      A
 Frequencies --   1314.8174              1328.1840              1353.3134
 Red. masses --      1.2135                 1.1206                 3.6949
 Frc consts  --      1.2361                 1.1647                 3.9870
 IR Inten    --     10.9319                16.6603                51.9774

                     67                     68                     69
                      A                      A                      A
 Frequencies --   1368.3719              1372.6171              1387.8813
 Red. masses --      1.3082                 1.8665                 1.9155
 Frc consts  --      1.4432                 2.0719                 2.1739
 IR Inten    --     12.9757                 6.8823               214.4332

                     70                     71                     72
                      A                      A                      A
 Frequencies --   1408.1362              1412.0169              1414.7648
 Red. masses --      1.3618                 1.4353                 1.3181
 Frc consts  --      1.5910                 1.6861                 1.5544
 IR Inten    --     44.9973                70.0858                59.9384

                     73                     74                     75
                      A                      A                      A
 Frequencies --   1427.1149              1431.5376              1442.4762
 Red. masses --      1.3022                 1.3627                 1.2411
 Frc consts  --      1.5625                 1.6454                 1.5215
 IR Inten    --     30.0069                65.1776                12.9400

                     76                     77                     78
                      A                      A                      A
 Frequencies --   1452.5277              1488.2792              1491.4103
 Red. masses --      1.4039                 1.1938                 1.1014
 Frc consts  --      1.7451                 1.5580                 1.4435
 IR Inten    --     11.9680                69.4600                 3.1616

                     79                     80                     81
                      A                      A                      A
 Frequencies --   1505.1347              1506.1774              1514.2842
 Red. masses --      1.6417                 1.3073                 1.0988
 Frc consts  --      2.1912                 1.7473                 1.4845
 IR Inten    --      5.1623                 7.5323                15.1997

                     82                     83                     84
                      A                      A                      A
 Frequencies --   1520.4761              1523.7166              1523.8263
 Red. masses --      1.0790                 1.0540                 1.0484
 Frc consts  --      1.4698                 1.4418                 1.4343
 IR Inten    --     13.9345                18.2451                 2.8625

                     85                     86                     87
                      A                      A                      A
 Frequencies --   1537.7544              1541.1826              1548.7987
 Red. masses --      1.0582                 1.0609                 1.0811
 Frc consts  --      1.4743                 1.4847                 1.5279
 IR Inten    --      7.0608                 2.0989                38.4435

                     88                     89                     90
                      A                      A                      A
 Frequencies --   1552.4960              1563.6652              1647.2764
 Red. masses --      2.2108                 1.1014                 5.8310
 Frc consts  --      3.1396                 1.5866                 9.3224
 IR Inten    --     92.2094                 7.4957                 3.0958

                     91                     92                     93
                      A                      A                      A
 Frequencies --   1665.4984              1793.9922              3007.9070
 Red. masses --      5.5359                11.0428                 1.0664
 Frc consts  --      9.0475                20.9398                 5.6846
 IR Inten    --     35.8163               266.8761                58.6460

                     94                     95                     96
                      A                      A                      A
 Frequencies --   3024.2398              3036.1897              3050.1569
 Red. masses --      1.0602                 1.0616                 1.0665
 Frc consts  --      5.7130                 5.7661                 5.8461
 IR Inten    --     41.6768                31.4100                68.8451

                     97                     98                     99
                      A                      A                      A
 Frequencies --   3050.4281              3053.7683              3059.9485
 Red. masses --      1.0723                 1.0398                 1.0404
 Frc consts  --      5.8788                 5.7132                 5.7397
 IR Inten    --      6.1507                24.4674                24.2134

                    100                    101                    102
                      A                      A                      A
 Frequencies --   3061.3995              3073.6131              3080.0242
 Red. masses --      1.1022                 1.0849                 1.0868
 Frc consts  --      6.0862                 6.0388                 6.0746
 IR Inten    --     32.8173                27.5017                72.4459

                    103                    104                    105
                      A                      A                      A
 Frequencies --   3115.4378              3124.6518              3138.4585
 Red. masses --      1.0999                 1.1026                 1.0899
 Frc consts  --      6.2899                 6.3427                 6.3251
 IR Inten    --     57.0482                29.8992                23.9182

                    106                    107                    108
                      A                      A                      A
 Frequencies --   3141.2086              3142.1809              3185.7863
 Red. masses --      1.0998                 1.1015                 1.0852
 Frc consts  --      6.3936                 6.4076                 6.4891
 IR Inten    --     31.5719                27.6423                 1.2798

                    109                    110                    111
                      A                      A                      A
 Frequencies --   3189.8756              3194.0223              3195.1016
 Red. masses --      1.0953                 1.0981                 1.0929
 Frc consts  --      6.5662                 6.6004                 6.5733
 IR Inten    --      6.9448                14.8063                10.8654

                    112                    113                    114
                      A                      A                      A
 Frequencies --   3208.7541              3217.4392              3258.5986
 Red. masses --      1.0936                 1.0953                 1.0924
 Frc consts  --      6.6342                 6.6802                 6.8344
 IR Inten    --     33.6343                12.7659                 1.5249

 - Thermochemistry -
 -------------------
 Temperature   298.150 Kelvin.  Pressure   1.00000 Atm.
 Atom     1 has atomic number  6 and mass  12.00000

 Molecular mass:   250.16813 amu.
 Principal axes and moments of inertia in atomic units:
                           1         2         3
     Eigenvalues --  2246.619008049.526298692.85820
           X            0.99995  -0.00988   0.00183
           Y            0.00992   0.99965  -0.02447
           Z           -0.00159   0.02449   0.99970
 This molecule is an asymmetric top.
 Rotational symmetry number  1.
 Warning -- assumption of classical behavior for rotation
           may cause significant error
 Rotational temperatures (Kelvin)      0.03855     0.01076     0.00996
 Rotational constants (GHZ):           0.80331     0.22420     0.20761
 Zero-point vibrational energy     919642.5 (Joules/Mol)
                                  219.79983 (Kcal/Mol)
 Warning -- explicit consideration of  28 degrees of freedom as
           vibrations may cause significant error
 Vibrational temperatures:     31.77    36.12    48.62    97.09   114.89
          (Kelvin)            127.22   148.14   187.94   218.65   224.09
                              249.75   260.61   341.41   365.61   379.16
                              420.93   425.06   480.22   507.18   533.35
                              583.54   593.83   605.34   649.73   717.20
                              751.72   794.40   875.23   912.94   950.25
                             1018.13  1046.11  1087.42  1117.83  1142.32
                             1151.73  1187.80  1207.88  1219.76  1312.08
                             1320.70  1337.04  1378.76  1384.68  1419.55
                             1469.15  1470.48  1525.67  1536.81  1561.05
                             1585.91  1603.67  1610.65  1628.95  1646.00
                             1672.40  1673.61  1716.14  1719.47  1755.02
                             1758.70  1819.92  1862.81  1891.73  1910.96
                             1947.12  1968.78  1974.89  1996.85  2025.99
                             2031.58  2035.53  2053.30  2059.66  2075.40
                             2089.86  2141.30  2145.81  2165.55  2167.05
                             2178.72  2187.63  2192.29  2192.45  2212.49
                             2217.42  2228.38  2233.70  2249.77  2370.06
                             2396.28  2581.15  4327.71  4351.21  4368.40
                             4388.50  4388.89  4393.69  4402.58  4404.67
                             4422.24  4431.47  4482.42  4495.68  4515.54
                             4519.50  4520.90  4583.64  4589.52  4595.49
                             4597.04  4616.68  4629.18  4688.40

 Zero-point correction=                           0.350273 (Hartree/Particle)
 Thermal correction to Energy=                    0.369137
 Thermal correction to Enthalpy=                  0.370081
 Thermal correction to Gibbs Free Energy=         0.301493
 Sum of electronic and zero-point Energies=           -806.416901
 Sum of electronic and thermal Energies=              -806.398038
 Sum of electronic and thermal Enthalpies=            -806.397094
 Sum of electronic and thermal Free Energies=         -806.465681

                     E (Thermal)             CV                S
                      KCal/Mol        Cal/Mol-Kelvin    Cal/Mol-Kelvin
 Total                  231.637             70.417            144.354
 Electronic               0.000              0.000              0.000
 Translational            0.889              2.981             42.451
 Rotational               0.889              2.981             33.419
 Vibrational            229.859             64.455             68.484
 Vibration     1          0.593              1.985              6.438
 Vibration     2          0.593              1.985              6.183
 Vibration     3          0.594              1.983              5.594
 Vibration     4          0.598              1.970              4.226
 Vibration     5          0.600              1.963              3.895
 Vibration     6          0.601              1.957              3.695
 Vibration     7          0.605              1.947              3.397
 Vibration     8          0.612              1.923              2.937
 Vibration     9          0.619              1.900              2.647
 Vibration    10          0.620              1.896              2.601
 Vibration    11          0.627              1.875              2.396
 Vibration    12          0.630              1.865              2.317
 Vibration    13          0.656              1.784              1.823
 Vibration    14          0.665              1.756              1.702
 Vibration    15          0.670              1.740              1.638
 Vibration    16          0.688              1.688              1.459
 Vibration    17          0.690              1.682              1.443
 Vibration    18          0.715              1.608              1.242
 Vibration    19          0.729              1.570              1.155
 Vibration    20          0.743              1.532              1.077
 Vibration    21          0.771              1.458              0.942
 Vibration    22          0.777              1.443              0.917
 Vibration    23          0.783              1.425              0.889
 Vibration    24          0.810              1.357              0.791
 Vibration    25          0.854              1.253              0.662
 Vibration    26          0.877              1.200              0.604
 Vibration    27          0.907              1.135              0.540
 Vibration    28          0.967              1.014              0.436

 Optimization completed.
    -- Stationary point found.
 Normal termination of Gaussian 16 at Fri Dec 11 21:39:41 2020.

 ----------------------------------------------------------------------
 # B3LYP/6-311++G(d,p) empiricaldispersion=gd3bj scf=xqc pop=npa geom=c
 heck
 ----------------------------------------------------------------------

 ---------------------------------------
 CID_129638396_JID_8615_Energie_neutraal
 ---------------------------------------
 Structure from the checkpoint file:  "JID_8615.chk"
 Charge =  0 Multiplicity = 1

 SCF Done:  E(RB3LYP) =  -806.990053201     A.U. after   15 cycles
 Normal termination of Gaussian 16 at Fri Dec 11 21:46:50 2020.

 ----------------------------------------------------------------------
 # B3LYP/6-311++G(d,p) empiricaldispersion=gd3bj scf=xqc pop=npa geom=c
 heck
 ----------------------------------------------------------------------

 -------------------------------------
 CID_129638396_JID_8615_Energie_kation
 -------------------------------------
 Structure from the checkpoint file:  "JID_8615.chk"
 Charge =  1 Multiplicity = 2

 SCF Done:  E(UB3LYP) =  -806.722288892     A.U. after   25 cycles
 Normal termination of Gaussian 16 at Fri Dec 11 22:02:59 2020.
 Gaussian 16:  ES64L-G16RevA.03 25-Dec-2016

 ----------------------------------------------------------------------
 # B3LYP/6-311++G(d,p) empiricaldispersion=gd3bj scf=xqc pop=npa geom=c
 heck
 ----------------------------------------------------------------------

 ------------------------------------
 CID_129638396_JID_8615_Energie_anion
 ------------------------------------
 Structure from the checkpoint file:  "JID_8615.chk"
 Charge = -1 Multiplicity = 2

                         Standard orientation:
 ---------------------------------------------------------------------
 Center     Atomic      Atomic             Coordinates (Angstroms)
 Number     Number       Type             X           Y           Z
 ---------------------------------------------------------------------
      1          6           0       -1.822467   -0.777211    2.354088
      2          6           0       -2.214899    0.421098    1.490881
      3          7           0       -3.344069    0.147732    0.605635
      4          6           0       -3.997456    1.341813    0.080707
      5          6           0       -3.239261    2.185229   -0.961059
      6          6           0       -3.247306   -0.981775   -0.299650
      7          6           0       -2.147089   -1.016048   -1.374501
      8          8           0       -0.877110   -1.407689   -0.809078
      9          6           0        0.097840   -0.462610   -0.761812
     10          8           0       -0.025893    0.669887   -1.194540
     11          7           0        1.224638   -0.962323   -0.145792
     12          6           0        1.306923   -2.373093    0.238221
     13          6           0        2.402373   -0.163845   -0.048057
     14          6           0        3.653687   -0.753825   -0.264459
     15          6           0        4.820618   -0.003400   -0.121188
     16          6           0        4.753512    1.343537    0.228982
     17          6           0        3.504918    1.932125    0.439495
     18          6           0        2.334636    1.189560    0.310073
     19          1           0       -2.689374   -1.151474    2.909108
     20          1           0       -1.049902   -0.481062    3.071948
     21          1           0       -1.418090   -1.596626    1.753726
     22          1           0       -2.534571    1.235145    2.154264
     23          1           0       -1.329313    0.798312    0.955667
     24          1           0       -4.964713    1.033455   -0.339277
     25          1           0       -4.227167    1.977911    0.945814
     26          1           0       -3.211055    1.696251   -1.940077
     27          1           0       -3.737928    3.152996   -1.093451
     28          1           0       -2.204648    2.369285   -0.657254
     29          1           0       -3.155155   -1.905221    0.285826
     30          1           0       -4.206052   -1.049836   -0.831171
     31          1           0       -2.386072   -1.795113   -2.106342
     32          1           0       -2.021583   -0.062935   -1.884405
     33          1           0        1.599976   -3.014937   -0.601992
     34          1           0        2.046815   -2.469655    1.034601
     35          1           0        0.339768   -2.709062    0.606251
     36          1           0        3.719515   -1.796226   -0.557272
     37          1           0        5.782700   -0.477505   -0.293930
     38          1           0        5.661826    1.928870    0.337045
     39          1           0        3.437692    2.980298    0.717113
     40          1           0        1.371197    1.652344    0.473533
 ---------------------------------------------------------------------

 SCF Done:  E(UB3LYP) =  -806.977425603     A.U. after   33 cycles
 SCF Done:  E(UB3LYP) =  -806.977425603     a.u. after    1 cycles

 The electronic state is 2-A.
 Alpha  occ. eigenvalues --  -19.07093 -19.00462 -14.26478 -14.20996 -10.22940
 Alpha  occ. eigenvalues --  -10.12975 -10.12841 -10.10880 -10.10608 -10.10497
 Alpha  occ. eigenvalues --  -10.09973 -10.08621 -10.08601 -10.08392 -10.08319
 Alpha  occ. eigenvalues --  -10.08254 -10.06737 -10.06694  -1.01817  -0.92659
 Alpha  occ. eigenvalues --   -0.86389  -0.83151  -0.76280  -0.68294  -0.67228
 Alpha  occ. eigenvalues --   -0.66165  -0.65785  -0.63053  -0.61288  -0.57123
 Alpha  occ. eigenvalues --   -0.53676  -0.53002  -0.51750  -0.48113  -0.46597
 Alpha  occ. eigenvalues --   -0.45186  -0.42347  -0.40914  -0.39940  -0.39583
 Alpha  occ. eigenvalues --   -0.38351  -0.37206  -0.36564  -0.35542  -0.35001
 Alpha  occ. eigenvalues --   -0.34730  -0.33693  -0.33140  -0.32105  -0.31726
 Alpha  occ. eigenvalues --   -0.31296  -0.30586  -0.29771  -0.28655  -0.28283
 Alpha  occ. eigenvalues --   -0.27470  -0.27327  -0.27004  -0.26102  -0.26062
 Alpha  occ. eigenvalues --   -0.24743  -0.23945  -0.21510  -0.20030  -0.19341
 Alpha  occ. eigenvalues --   -0.16606  -0.13711  -0.11642   0.04034
 Alpha virt. eigenvalues --    0.05632   0.06279   0.06861   0.07187   0.07299
 Alpha virt. eigenvalues --    0.07517   0.07806   0.08657   0.09005   0.09116
 Alpha virt. eigenvalues --    0.09740   0.10210   0.11160   0.11284   0.11523

  Beta  occ. eigenvalues --  -19.07090 -19.00452 -14.26478 -14.20998 -10.22928
  Beta  occ. eigenvalues --  -10.12960 -10.12834 -10.10840 -10.10586 -10.10485
  Beta  occ. eigenvalues --  -10.09963 -10.08609 -10.08583 -10.08363 -10.08306
  Beta  occ. eigenvalues --  -10.08253 -10.06729 -10.06676  -1.01802  -0.92645
  Beta  occ. eigenvalues --   -0.86372  -0.83142  -0.76249  -0.68264  -0.67210
  Beta  occ. eigenvalues --   -0.66127  -0.65747  -0.63019  -0.61245  -0.57086
  Beta  occ. eigenvalues --   -0.53638  -0.52972  -0.51701  -0.48080  -0.46559
  Beta  occ. eigenvalues --   -0.45162  -0.42296  -0.40876  -0.39911  -0.39564
  Beta  occ. eigenvalues --   -0.38323  -0.37178  -0.36532  -0.35509  -0.34973
  Beta  occ. eigenvalues --   -0.34706  -0.33669  -0.33113  -0.32069  -0.31704
  Beta  occ. eigenvalues --   -0.31259  -0.30555  -0.29746  -0.28626  -0.28236
  Beta  occ. eigenvalues --   -0.27439  -0.27303  -0.26976  -0.26074  -0.26038
  Beta  occ. eigenvalues --   -0.24724  -0.23927  -0.21490  -0.19989  -0.19325
  Beta  occ. eigenvalues --   -0.16545  -0.13674  -0.11629
  Beta virt. eigenvalues --    0.05905   0.06363   0.06950   0.07174   0.07422
  Beta virt. eigenvalues --    0.07586   0.07840   0.08116   0.09004   0.09243
  Beta virt. eigenvalues --    0.09550   0.10022   0.10523   0.11465   0.11482

 Mulliken charges and spin densities:
               1          2
     1  C    0.340019  -0.757554
     2  C   -0.780261   0.442723
     3  N    0.144398   0.042648
     4  C   -0.022255  -0.173828
     5  C   -0.228125  -0.265234
     6  C    0.309846  -0.691260
     7  C    0.186644  -0.304887
     8  O    0.024699   0.017379
     9  C   -0.251591  -0.337971
    10  O   -0.221813   0.006855
    11  N    0.116081   0.183769
    12  C    0.905942  -1.231365
    13  C   -0.036241  -0.260769
    14  C   -0.344602   0.272040
    15  C    0.266842  -0.397651
    16  C    0.557998  -0.952161
    17  C   -0.548996   0.291439
    18  C    0.122068   0.209589
    19  H   -0.034849   0.190279
    20  H    0.015736   0.126059
    21  H    0.187110  -0.066807
    22  H   -0.060528   0.203937
    23  H    0.097196  -0.051474
    24  H   -0.147332   0.277743
    25  H    0.076817   0.056617
    26  H    0.038974   0.075243
    27  H    0.042874   0.088648
    28  H    0.054951   0.122336
    29  H   -0.015979   0.214154
    30  H   -0.175530   0.317820
    31  H   -0.553526   0.747485
    32  H    0.360228  -0.168870
    33  H   -0.485508   0.673115
    34  H   -0.025728   0.193421
    35  H   -0.117130   0.302930
    36  H   -0.234744   0.405345
    37  H   -0.548724   0.733503
    38  H   -0.080915   0.218205
    39  H   -0.084430   0.262393
    40  H    0.150383  -0.015845
 Sum of Mulliken charges =  -1.00000   1.00000

 Dipole moment (field-independent basis, Debye):
    X=             -2.5379    Y=              3.7779    Z=              1.6159  Tot=              4.8295
 Quadrupole moment (field-independent basis, Debye-Ang):
   XX=           -206.9130   YY=           -159.5247   ZZ=           -146.5408
   XY=              1.0558   XZ=             -0.0653   YZ=             -3.0191

 Summary of Natural Population Analysis:

                                       Natural Population
                Natural  -----------------------------------------------
    Atom  No    Charge         Core      Valence    Rydberg      Total
 -----------------------------------------------------------------------
      C    1   -0.29024      0.99966     2.28616    0.00443     3.29024
      C    2   -0.08632      0.99961     2.07619    0.01051     3.08632
      N    3   -0.28327      0.99972     2.76922    0.01434     3.78327
      C    4   -0.07917      0.99962     2.06892    0.01063     3.07917
      C    5   -0.29911      0.99966     2.29515    0.00429     3.29911
      C    6   -0.09708      0.99959     2.08442    0.01306     3.09708
      C    7   -0.02577      0.99954     2.01457    0.01165     3.02577
      O    8   -0.29135      0.99986     3.28190    0.00960     4.29135
      C    9    0.47158      0.99965     1.50318    0.02559     2.52842
      O   10   -0.32982      0.99987     3.32535    0.00460     4.32982
      N   11   -0.25692      0.99961     2.74623    0.01107     3.75692
      C   12   -0.17595      0.99963     2.16815    0.00817     3.17595
      C   13    0.08681      0.99946     1.90151    0.01221     2.91319
      C   14   -0.11212      0.99952     2.10312    0.00948     3.11212
      C   15   -0.09729      0.99957     2.08714    0.01058     3.09729
      C   16   -0.10923      0.99956     2.10004    0.00963     3.10923
      C   17   -0.09731      0.99957     2.08835    0.00939     3.09731
      C   18   -0.10059      0.99952     2.09266    0.00842     3.10059
      H   19    0.09723      0.00000     0.40150    0.00127     0.40277
      H   20    0.10025      0.00000     0.39892    0.00084     0.39975
      H   21    0.10013      0.00000     0.39831    0.00156     0.39987
      H   22    0.09044      0.00000     0.40830    0.00126     0.40956
      H   23    0.08488      0.00000     0.41231    0.00281     0.41512
      H   24    0.09049      0.00000     0.40849    0.00101     0.40951
      H   25    0.08938      0.00000     0.40946    0.00116     0.41062
      H   26    0.09462      0.00000     0.40422    0.00116     0.40538
      H   27    0.09515      0.00000     0.40384    0.00101     0.40485
      H   28    0.10677      0.00000     0.39222    0.00102     0.39323
      H   29    0.09933      0.00000     0.39922    0.00145     0.40067
      H   30    0.09975      0.00000     0.39881    0.00144     0.40025
      H   31    0.09153      0.00000     0.40674    0.00173     0.40847
      H   32    0.10223      0.00000     0.39601    0.00176     0.39777
      H   33    0.09743      0.00000     0.40050    0.00207     0.40257
      H   34    0.10042      0.00000     0.39830    0.00127     0.39958
      H   35    0.10997      0.00000     0.38848    0.00155     0.39003
      H   36    0.10796      0.00000     0.39037    0.00168     0.39204
      H   37    0.10250      0.00000     0.39612    0.00138     0.39750
      H   38    0.10010      0.00000     0.39898    0.00092     0.39990
      H   39    0.09956      0.00000     0.39963    0.00081     0.40044
      H   40    0.11302      0.00000     0.38566    0.00131     0.38698
 =======================================================================
   * Total *   -0.00000     17.99322    49.78865    0.21813    68.00000

 Normal termination of Gaussian 16 at Fri Dec 11 22:23:59 2020.
