 Gaussian 16, Revision A.03,

 -----------------------------------------------------------
 # opt freq B3LYP/6-31G(d) empiricaldispersion=gd3bj scf=xqc
 -----------------------------------------------------------

 -------------------------------
 CID_130582097_JID_3330_neutraal
 -------------------------------
 Symbolic Z-matrix:
 Charge =  0 Multiplicity = 1

 SCF Done:  E(RB3LYP) =  -1331.46583228     A.U. after   15 cycles
 SCF Done:  E(RB3LYP) =  -1331.47728386     A.U. after   14 cycles
 SCF Done:  E(RB3LYP) =  -1331.47829200     A.U. after   14 cycles
 SCF Done:  E(RB3LYP) =  -1331.48078095     A.U. after   13 cycles
 SCF Done:  E(RB3LYP) =  -1331.48261988     A.U. after   14 cycles
 SCF Done:  E(RB3LYP) =  -1331.48393389     A.U. after   13 cycles
 SCF Done:  E(RB3LYP) =  -1331.48508710     A.U. after   13 cycles
 SCF Done:  E(RB3LYP) =  -1331.48546457     A.U. after   13 cycles
 SCF Done:  E(RB3LYP) =  -1331.48555913     A.U. after   13 cycles
 SCF Done:  E(RB3LYP) =  -1331.48558492     A.U. after   11 cycles
 SCF Done:  E(RB3LYP) =  -1331.48560131     A.U. after    9 cycles
 SCF Done:  E(RB3LYP) =  -1331.48560309     A.U. after    9 cycles
 SCF Done:  E(RB3LYP) =  -1331.48560376     A.U. after    8 cycles
 SCF Done:  E(RB3LYP) =  -1331.48560408     A.U. after    8 cycles
 SCF Done:  E(RB3LYP) =  -1331.48560418     A.U. after    8 cycles
 SCF Done:  E(RB3LYP) =  -1331.48560420     A.U. after    7 cycles
 Optimization completed.
    -- Stationary point found.
 Normal termination of Gaussian 16 at Wed Dec  9 23:02:15 2020.

 --------------------------------------------------------------------
 #N Geom=AllCheck Guess=TCheck SCRF=Check GenChk RB3LYP/6-31G(d) Freq
 --------------------------------------------------------------------

 Structure from the checkpoint file:  "JID_3330.chk"
 -------------------------------
 CID_130582097_JID_3330_neutraal
 -------------------------------
 Charge =  0 Multiplicity = 1

 SCF Done:  E(RB3LYP) =  -1331.48560420     A.U. after    1 cycles

  Exact polarizability: 136.175   1.834 121.022  -1.258  -4.368 123.648
 Approx polarizability: 173.991   3.063 185.523   6.433 -16.008 225.204

                      1                      2                      3
                      A                      A                      A
 Frequencies --     26.2101                31.1348                49.2546
 Red. masses --      4.4655                 5.7504                 4.9485
 Frc consts  --      0.0018                 0.0033                 0.0071
 IR Inten    --      2.5388                 7.2673                 4.8240

                      4                      5                      6
                      A                      A                      A
 Frequencies --     95.7376               104.8478               153.2207
 Red. masses --      6.1851                 4.7430                 2.9734
 Frc consts  --      0.0334                 0.0307                 0.0411
 IR Inten    --      1.9572                 2.5545                 0.4840

                      7                      8                      9
                      A                      A                      A
 Frequencies --    172.2242               204.2383               214.9644
 Red. masses --      1.2034                 1.0829                 3.1096
 Frc consts  --      0.0210                 0.0266                 0.0847
 IR Inten    --      0.1311                 0.3795                 1.3165

                     10                     11                     12
                      A                      A                      A
 Frequencies --    232.9479               249.7511               264.1129
 Red. masses --      1.4949                 2.1333                 3.3117
 Frc consts  --      0.0478                 0.0784                 0.1361
 IR Inten    --      0.2654                 2.2910                 1.4824

                     13                     14                     15
                      A                      A                      A
 Frequencies --    274.8829               293.1700               313.5132
 Red. masses --      2.4520                 1.3880                 3.0116
 Frc consts  --      0.1092                 0.0703                 0.1744
 IR Inten    --      4.0508                53.2612                 0.8822

                     16                     17                     18
                      A                      A                      A
 Frequencies --    335.7147               350.9601               373.5371
 Red. masses --      2.4082                 1.4749                 2.1876
 Frc consts  --      0.1599                 0.1070                 0.1798
 IR Inten    --     57.2092                64.0923                 3.7422

                     19                     20                     21
                      A                      A                      A
 Frequencies --    387.7027               409.3896               425.1909
 Red. masses --      4.4032                 3.8102                 4.2150
 Frc consts  --      0.3900                 0.3762                 0.4490
 IR Inten    --     25.4540                 7.7380                 8.7080

                     22                     23                     24
                      A                      A                      A
 Frequencies --    440.1958               475.4353               550.7159
 Red. masses --      4.1004                 4.4818                 4.3333
 Frc consts  --      0.4681                 0.5969                 0.7743
 IR Inten    --      8.2536                30.7097                 6.1646

                     25                     26                     27
                      A                      A                      A
 Frequencies --    625.7242               649.3772               670.0835
 Red. masses --      1.3420                 3.3213                 5.3689
 Frc consts  --      0.3096                 0.8252                 1.4203
 IR Inten    --     30.2437                 2.2948                16.0126

                     28                     29                     30
                      A                      A                      A
 Frequencies --    736.1761               758.8096               780.3187
 Red. masses --      4.1363                 4.1845                 4.0950
 Frc consts  --      1.3208                 1.4196                 1.4691
 IR Inten    --     18.1317                10.3536                 6.2493

                     31                     32                     33
                      A                      A                      A
 Frequencies --    834.9050               889.4526               932.1125
 Red. masses --      5.6016                 3.0848                 2.0647
 Frc consts  --      2.3006                 1.4379                 1.0569
 IR Inten    --     97.2254                18.8758                 2.3750

                     34                     35                     36
                      A                      A                      A
 Frequencies --    965.9101               968.3107               973.4501
 Red. masses --      1.4458                 1.3673                 1.7072
 Frc consts  --      0.7947                 0.7553                 0.9532
 IR Inten    --      1.4975                14.0311                19.8974

                     37                     38                     39
                      A                      A                      A
 Frequencies --   1004.8471              1016.0648              1044.2228
 Red. masses --      2.0070                 1.4901                 1.2978
 Frc consts  --      1.1940                 0.9064                 0.8338
 IR Inten    --     16.7269                16.7379                 2.9832

                     40                     41                     42
                      A                      A                      A
 Frequencies --   1067.8780              1174.7398              1206.6784
 Red. masses --      1.6294                 3.1053                 2.7043
 Frc consts  --      1.0948                 2.5249                 2.3200
 IR Inten    --    155.2115               129.7111               164.6936

                     43                     44                     45
                      A                      A                      A
 Frequencies --   1218.7605              1231.2185              1278.2319
 Red. masses --      2.4975                 9.0178                 4.7064
 Frc consts  --      2.1857                 8.0542                 4.5306
 IR Inten    --     10.9266               250.4571               284.1379

                     46                     47                     48
                      A                      A                      A
 Frequencies --   1329.2709              1354.2864              1383.1427
 Red. masses --      2.9111                 1.2171                 1.2090
 Frc consts  --      3.0307                 1.3152                 1.3628
 IR Inten    --     78.3885                23.1056                13.9209

                     49                     50                     51
                      A                      A                      A
 Frequencies --   1396.2342              1423.6327              1443.4975
 Red. masses --      2.4479                 1.4692                 1.2520
 Frc consts  --      2.8116                 1.7544                 1.5371
 IR Inten    --    142.2467                21.7325                22.3222

                     52                     53                     54
                      A                      A                      A
 Frequencies --   1467.6281              1480.2274              1481.8723
 Red. masses --      1.0549                 1.0474                 1.0500
 Frc consts  --      1.3387                 1.3522                 1.3584
 IR Inten    --     15.0150                 2.1486                 2.9761

                     55                     56                     57
                      A                      A                      A
 Frequencies --   1497.9333              1508.7850              1520.4092
 Red. masses --      1.0510                 1.0489                 1.0549
 Frc consts  --      1.3894                 1.4068                 1.4368
 IR Inten    --     20.0287                 4.1367                 2.3636

                     58                     59                     60
                      A                      A                      A
 Frequencies --   1534.4459              1551.5333              1664.4151
 Red. masses --      1.0541                 1.0599                 1.2658
 Frc consts  --      1.4623                 1.5032                 2.0661
 IR Inten    --      9.5470                18.0153               165.1150

                     61                     62                     63
                      A                      A                      A
 Frequencies --   1740.6548              3050.4416              3069.7988
 Red. masses --     11.7214                 1.0352                 1.0388
 Frc consts  --     20.9244                 5.6754                 5.7680
 IR Inten    --    205.5321                16.4690                26.1063

                     64                     65                     66
                      A                      A                      A
 Frequencies --   3086.8568              3090.9245              3121.7062
 Red. masses --      1.0293                 1.0291                 1.1023
 Frc consts  --      5.7787                 5.7926                 6.3290
 IR Inten    --      2.8586                 2.0096                18.7883

                     67                     68                     69
                      A                      A                      A
 Frequencies --   3128.0273              3141.2271              3182.5253
 Red. masses --      1.1025                 1.1008                 1.1005
 Frc consts  --      6.3560                 6.4000                 6.5675
 IR Inten    --     18.8579                25.3079                 4.4839

                     70                     71                     72
                      A                      A                      A
 Frequencies --   3186.7091              3194.4780              3198.8709
 Red. masses --      1.1085                 1.1076                 1.1074
 Frc consts  --      6.6327                 6.6592                 6.6766
 IR Inten    --      1.0714                 2.1627                 0.7358

                     73                     74                     75
                      A                      A                      A
 Frequencies --   3216.7543              3580.2301              3704.1853
 Red. masses --      1.1055                 1.0446                 1.1043
 Frc consts  --      6.7399                 7.8888                 8.9271
 IR Inten    --      5.9323                38.3086                39.0958

 - Thermochemistry -
 -------------------
 Temperature   298.150 Kelvin.  Pressure   1.00000 Atm.
 Atom     1 has atomic number  6 and mass  12.00000

 Molecular mass:   222.04967 amu.
 Principal axes and moments of inertia in atomic units:
                           1         2         3
     Eigenvalues --  1869.758464354.498234667.30645
           X            0.99986  -0.01617  -0.00351
           Y            0.01638   0.99736   0.07070
           Z            0.00235  -0.07075   0.99749
 This molecule is an asymmetric top.
 Rotational symmetry number  1.
 Warning -- assumption of classical behavior for rotation
           may cause significant error
 Rotational temperatures (Kelvin)      0.04632     0.01989     0.01856
 Rotational constants (GHZ):           0.96523     0.41445     0.38668
 Zero-point vibrational energy     569344.9 (Joules/Mol)
                                  136.07669 (Kcal/Mol)
 Warning -- explicit consideration of  24 degrees of freedom as
           vibrations may cause significant error
 Vibrational temperatures:     37.71    44.80    70.87   137.75   150.85
          (Kelvin)            220.45   247.79   293.85   309.29   335.16
                              359.34   380.00   395.50   421.81   451.08
                              483.02   504.95   537.44   557.82   589.02
                              611.75   633.34   684.05   792.36   900.28
                              934.31   964.10  1059.19  1091.76  1122.70
                             1201.24  1279.72  1341.10  1389.73  1393.18
                             1400.58  1445.75  1461.89  1502.40  1536.44
                             1690.19  1736.14  1753.52  1771.45  1839.09
                             1912.52  1948.52  1990.03  2008.87  2048.29
                             2076.87  2111.59  2129.72  2132.08  2155.19
                             2170.81  2187.53  2207.73  2232.31  2394.72
                             2504.41  4388.91  4416.76  4441.30  4447.15
                             4491.44  4500.53  4519.53  4578.94  4584.96
                             4596.14  4602.46  4628.19  5151.15  5329.50

 Zero-point correction=                           0.216852 (Hartree/Particle)
 Thermal correction to Energy=                    0.232796
 Thermal correction to Enthalpy=                  0.233740
 Thermal correction to Gibbs Free Energy=         0.172850
 Sum of electronic and zero-point Energies=          -1331.268752
 Sum of electronic and thermal Energies=             -1331.252808
 Sum of electronic and thermal Enthalpies=           -1331.251864
 Sum of electronic and thermal Free Energies=        -1331.312755

                     E (Thermal)             CV                S
                      KCal/Mol        Cal/Mol-Kelvin    Cal/Mol-Kelvin
 Total                  146.082             57.897            128.155
 Electronic               0.000              0.000              0.000
 Translational            0.889              2.981             42.096
 Rotational               0.889              2.981             32.008
 Vibrational            144.304             51.936             54.051
 Vibration     1          0.593              1.985              6.097
 Vibration     2          0.594              1.983              5.756
 Vibration     3          0.595              1.978              4.847
 Vibration     4          0.603              1.952              3.539
 Vibration     5          0.605              1.945              3.362
 Vibration     6          0.619              1.899              2.632
 Vibration     7          0.626              1.877              2.411
 Vibration     8          0.640              1.834              2.095
 Vibration     9          0.645              1.818              2.001
 Vibration    10          0.654              1.791              1.856
 Vibration    11          0.663              1.763              1.732
 Vibration    12          0.671              1.739              1.634
 Vibration    13          0.677              1.720              1.565
 Vibration    14          0.688              1.686              1.456
 Vibration    15          0.701              1.648              1.344
 Vibration    16          0.717              1.604              1.232
 Vibration    17          0.728              1.573              1.162
 Vibration    18          0.745              1.526              1.065
 Vibration    19          0.756              1.496              1.009
 Vibration    20          0.774              1.450              0.929
 Vibration    21          0.787              1.415              0.875
 Vibration    22          0.800              1.383              0.826
 Vibration    23          0.832              1.305              0.722
 Vibration    24          0.906              1.138              0.543

 Optimization completed.
    -- Stationary point found.
 Normal termination of Gaussian 16 at Wed Dec  9 23:09:18 2020.

 ----------------------------------------------------------------------
 # B3LYP/6-311++G(d,p) empiricaldispersion=gd3bj scf=xqc pop=npa geom=c
 heck
 ----------------------------------------------------------------------

 ---------------------------------------
 CID_130582097_JID_3330_Energie_neutraal
 ---------------------------------------
 Structure from the checkpoint file:  "JID_3330.chk"
 Charge =  0 Multiplicity = 1

 SCF Done:  E(RB3LYP) =  -1331.70278072     A.U. after   16 cycles
 Normal termination of Gaussian 16 at Wed Dec  9 23:13:00 2020.

 ----------------------------------------------------------------------
 # B3LYP/6-311++G(d,p) empiricaldispersion=gd3bj scf=xqc pop=npa geom=c
 heck
 ----------------------------------------------------------------------

 -------------------------------------
 CID_130582097_JID_3330_Energie_kation
 -------------------------------------
 Structure from the checkpoint file:  "JID_3330.chk"
 Charge =  1 Multiplicity = 2

 SCF Done:  E(UB3LYP) =  -1331.41626668     A.U. after   26 cycles
 Normal termination of Gaussian 16 at Wed Dec  9 23:21:29 2020.
 Gaussian 16:  ES64L-G16RevA.03 25-Dec-2016

 ----------------------------------------------------------------------
 # B3LYP/6-311++G(d,p) empiricaldispersion=gd3bj scf=xqc pop=npa geom=c
 heck
 ----------------------------------------------------------------------

 ------------------------------------
 CID_130582097_JID_3330_Energie_anion
 ------------------------------------
 Structure from the checkpoint file:  "JID_3330.chk"
 Charge = -1 Multiplicity = 2

                         Standard orientation:
 ---------------------------------------------------------------------
 Center     Atomic      Atomic             Coordinates (Angstroms)
 Number     Number       Type             X           Y           Z
 ---------------------------------------------------------------------
      1          6           0        2.429760   -1.633117   -0.765155
      2          6           0        1.556613   -0.824895    0.207224
      3          6           0        1.504117   -1.551903    1.569493
      4          6           0        2.079312    0.618944    0.292564
      5         16           0        2.267248    1.572554   -1.058320
      6          7           0        2.395158    1.071820    1.519121
      7          6           0        0.103288   -0.765705   -0.326350
      8          8           0       -0.270443   -1.459284   -1.264005
      9          7           0       -0.687154    0.075841    0.439236
     10         16           0       -2.178520    0.301218   -0.053974
     11          8           0       -2.485630    1.123010   -1.238581
     12          6           0       -2.896279    1.065032    1.405989
     13          6           0       -3.080412   -1.267797   -0.197922
     14          1           0        3.455941   -1.688450   -0.386719
     15          1           0        2.440775   -1.162085   -1.747891
     16          1           0        2.028734   -2.644804   -0.866203
     17          1           0        2.506231   -1.647522    2.002995
     18          1           0        0.840642   -1.045933    2.278236
     19          1           0        1.113905   -2.563823    1.422823
     20          1           0        2.192481    0.547963    2.357208
     21          1           0        2.692604    2.033740    1.610275
     22          1           0       -3.946805    1.276821    1.197779
     23          1           0       -2.779816    0.400668    2.263245
     24          1           0       -2.342090    1.991584    1.565344
     25          1           0       -2.636228   -1.781505   -1.049658
     26          1           0       -2.938235   -1.846260    0.717132
     27          1           0       -4.133621   -1.037543   -0.370733
 ---------------------------------------------------------------------

 SCF Done:  E(UB3LYP) =  -1331.70359732     A.U. after   30 cycles

 The electronic state is 2-A.
 Alpha  occ. eigenvalues --  -88.94342 -88.68165 -19.01580 -18.99406 -14.24446
 Alpha  occ. eigenvalues --  -14.20192 -10.17383 -10.15037 -10.11191 -10.11175
 Alpha  occ. eigenvalues --  -10.10294 -10.07322 -10.05851  -8.01067  -7.76957
 Alpha  occ. eigenvalues --   -5.97285  -5.97196  -5.97157  -5.73311  -5.72866
 Alpha  occ. eigenvalues --   -5.72470  -0.98098  -0.93813  -0.84686  -0.81709
 Alpha  occ. eigenvalues --   -0.72303  -0.69460  -0.64804  -0.63283  -0.59049
 Alpha  occ. eigenvalues --   -0.56856  -0.51921  -0.48388  -0.45238  -0.43541
 Alpha  occ. eigenvalues --   -0.40275  -0.38812  -0.37948  -0.36072  -0.35997
 Alpha  occ. eigenvalues --   -0.35259  -0.34182  -0.33532  -0.31775  -0.31639
 Alpha  occ. eigenvalues --   -0.30412  -0.29391  -0.28219  -0.27529  -0.26206
 Alpha  occ. eigenvalues --   -0.25019  -0.24214  -0.23262  -0.20872  -0.19252
 Alpha  occ. eigenvalues --   -0.16713  -0.15286  -0.12269  -0.10343   0.03495
 Alpha virt. eigenvalues --    0.05934   0.06452   0.07685   0.08367   0.08835
 Alpha virt. eigenvalues --    0.09007   0.09813   0.10697   0.11109   0.11287
 Alpha virt. eigenvalues --    0.12092   0.12679   0.12838   0.13414   0.13904

  Beta  occ. eigenvalues --  -88.94337 -88.68160 -19.01547 -18.99385 -14.24392
  Beta  occ. eigenvalues --  -14.20180 -10.17359 -10.14882 -10.11131 -10.11117
  Beta  occ. eigenvalues --  -10.10303 -10.07287 -10.05839  -8.01060  -7.76952
  Beta  occ. eigenvalues --   -5.97281  -5.97189  -5.97151  -5.73313  -5.72846
  Beta  occ. eigenvalues --   -5.72465  -0.98018  -0.93765  -0.84533  -0.81655
  Beta  occ. eigenvalues --   -0.72238  -0.69398  -0.64715  -0.63139  -0.58997
  Beta  occ. eigenvalues --   -0.56774  -0.51821  -0.48278  -0.45158  -0.43494
  Beta  occ. eigenvalues --   -0.40195  -0.38752  -0.37879  -0.35996  -0.35954
  Beta  occ. eigenvalues --   -0.35205  -0.34115  -0.33459  -0.31727  -0.31587
  Beta  occ. eigenvalues --   -0.30334  -0.29238  -0.28123  -0.27494  -0.26018
  Beta  occ. eigenvalues --   -0.24865  -0.24131  -0.23193  -0.20834  -0.19227
  Beta  occ. eigenvalues --   -0.16652  -0.15252  -0.12046  -0.10322
  Beta virt. eigenvalues --    0.06300   0.07027   0.07084   0.08174   0.09069
  Beta virt. eigenvalues --    0.09185   0.09421   0.10236   0.11234   0.11345
  Beta virt. eigenvalues --    0.11522   0.12379   0.12865   0.13203   0.13401

 Mulliken charges and spin densities:
               1          2
     1  C   -0.545152  -0.016312
     2  C    0.048526   0.836980
     3  C    0.721933  -1.335308
     4  C    0.333792  -0.422942
     5  S   -0.460862  -0.111622
     6  N   -0.337648   0.099482
     7  C   -0.789105   0.071550
     8  O   -0.257053   0.016306
     9  N    0.110820   0.222578
    10  S    0.468351  -0.471475
    11  O   -0.089052   0.008451
    12  C    0.601763  -1.001369
    13  C   -0.041554  -0.453434
    14  H    0.137786  -0.004075
    15  H    0.124384   0.031308
    16  H    0.151703   0.005050
    17  H    0.001964   0.155184
    18  H   -0.144152   0.303544
    19  H    0.035718   0.129192
    20  H   -0.062292   0.335824
    21  H    0.164666   0.101087
    22  H   -0.208116   0.408641
    23  H   -0.586986   0.820104
    24  H   -0.219010   0.444406
    25  H    0.158226   0.078034
    26  H   -0.177404   0.392225
    27  H   -0.141243   0.356592
 Sum of Mulliken charges =  -1.00000   1.00000

 Dipole moment (field-independent basis, Debye):
    X=              2.7553    Y=             -2.0644    Z=             -0.5076  Tot=              3.4800
 Quadrupole moment (field-independent basis, Debye-Ang):
   XX=           -143.3183   YY=           -123.8755   ZZ=           -138.6111
   XY=             -2.9537   XZ=             11.9622   YZ=              6.8454

 Summary of Natural Population Analysis:

                                       Natural Population
                Natural  -----------------------------------------------
    Atom  No    Charge         Core      Valence    Rydberg      Total
 -----------------------------------------------------------------------
      C    1   -0.27935      0.99964     2.27285    0.00687     3.27935
      C    2   -0.10139      0.99946     2.08743    0.01451     3.10139
      C    3   -0.29272      0.99964     2.28486    0.00822     3.29272
      C    4    0.09527      0.99959     1.88117    0.02396     2.90473
      S    5   -0.10569      4.99951     3.09300    0.01319     8.10569
      N    6   -0.37305      0.99965     2.86120    0.01220     3.87305
      C    7    0.35839      0.99963     1.61309    0.02889     2.64161
      O    8   -0.32391      0.99987     3.31797    0.00607     4.32391
      N    9   -0.47241      0.99970     2.95906    0.01365     3.97241
      S   10    0.95564      4.99914     1.96558    0.07964     7.04436
      O   11   -0.45519      0.99991     3.45040    0.00488     4.45519
      C   12   -0.37366      0.99962     2.36424    0.00980     3.37366
      C   13   -0.38496      0.99961     2.37803    0.00731     3.38496
      H   14    0.09532      0.00000     0.40394    0.00074     0.40468
      H   15    0.11609      0.00000     0.38299    0.00092     0.38391
      H   16    0.10321      0.00000     0.39596    0.00083     0.39679
      H   17    0.09910      0.00000     0.39992    0.00098     0.40090
      H   18    0.11002      0.00000     0.38800    0.00198     0.38998
      H   19    0.10748      0.00000     0.39150    0.00102     0.39252
      H   20    0.19753      0.00000     0.29981    0.00266     0.30247
      H   21    0.19690      0.00000     0.30096    0.00214     0.30310
      H   22    0.11473      0.00000     0.38354    0.00173     0.38527
      H   23    0.12477      0.00000     0.36798    0.00725     0.37523
      H   24    0.12397      0.00000     0.37457    0.00145     0.37603
      H   25    0.13154      0.00000     0.36742    0.00104     0.36846
      H   26    0.11788      0.00000     0.37981    0.00231     0.38212
      H   27    0.11447      0.00000     0.38436    0.00117     0.38553
 =======================================================================
   * Total *   -0.00000     20.99496    37.74964    0.25540    59.00000

 Normal termination of Gaussian 16 at Wed Dec  9 23:31:28 2020.
