 Gaussian 16, Revision A.03,

 -----------------------------------------------------------
 # opt freq B3LYP/6-31G(d) empiricaldispersion=gd3bj scf=xqc
 -----------------------------------------------------------

 -------------------------------
 CID_115655711_JID_8258_neutraal
 -------------------------------
 Symbolic Z-matrix:
 Charge =  0 Multiplicity = 1

 SCF Done:  E(RB3LYP) =  -791.899453262     A.U. after   13 cycles
 SCF Done:  E(RB3LYP) =  -791.902012627     A.U. after   12 cycles
 SCF Done:  E(RB3LYP) =  -791.896059452     A.U. after   14 cycles
 SCF Done:  E(RB3LYP) =  -791.902346609     A.U. after   12 cycles
 SCF Done:  E(RB3LYP) =  -791.903743900     A.U. after   12 cycles
 SCF Done:  E(RB3LYP) =  -791.904831460     A.U. after   12 cycles
 SCF Done:  E(RB3LYP) =  -791.905497072     A.U. after   11 cycles
 SCF Done:  E(RB3LYP) =  -791.905775918     A.U. after   11 cycles
 SCF Done:  E(RB3LYP) =  -791.905897906     A.U. after   11 cycles
 SCF Done:  E(RB3LYP) =  -791.905962993     A.U. after   11 cycles
 SCF Done:  E(RB3LYP) =  -791.909271796     A.U. after   10 cycles
 SCF Done:  E(RB3LYP) =  -791.909274569     A.U. after    9 cycles
 SCF Done:  E(RB3LYP) =  -791.909274283     A.U. after    7 cycles
 SCF Done:  E(RB3LYP) =  -791.909274884     A.U. after    7 cycles
 SCF Done:  E(RB3LYP) =  -791.909274850     A.U. after    6 cycles
 Optimization completed.
    -- Stationary point found.
 Normal termination of Gaussian 16 at Fri Dec 11 20:05:41 2020.

 --------------------------------------------------------------------
 #N Geom=AllCheck Guess=TCheck SCRF=Check GenChk RB3LYP/6-31G(d) Freq
 --------------------------------------------------------------------

 Structure from the checkpoint file:  "JID_8258.chk"
 -------------------------------
 CID_115655711_JID_8258_neutraal
 -------------------------------
 Charge =  0 Multiplicity = 1

 SCF Done:  E(RB3LYP) =  -791.909274850     A.U. after    1 cycles

  Exact polarizability: 203.611 -24.455 148.925  -3.999  -6.880 152.706
 Approx polarizability: 255.045 -45.241 226.170 -18.036 -14.000 253.197

                      1                      2                      3
                      A                      A                      A
 Frequencies --     21.9709                26.3770                36.0208
 Red. masses --      3.3156                 4.0433                 3.6046
 Frc consts  --      0.0009                 0.0017                 0.0028
 IR Inten    --      0.2941                 0.0203                 0.3087

                      4                      5                      6
                      A                      A                      A
 Frequencies --     53.6847                77.2645                85.1769
 Red. masses --      3.3883                 4.1591                 3.3820
 Frc consts  --      0.0058                 0.0146                 0.0145
 IR Inten    --      0.4083                 0.2426                 0.1185

                      7                      8                      9
                      A                      A                      A
 Frequencies --    100.7443               112.7272               145.3598
 Red. masses --      3.5102                 1.8004                 3.1097
 Frc consts  --      0.0210                 0.0135                 0.0387
 IR Inten    --      0.3664                 0.7671                 3.6834

                     10                     11                     12
                      A                      A                      A
 Frequencies --    157.3796               207.1513               232.5477
 Red. masses --      3.4140                 3.0337                 1.9426
 Frc consts  --      0.0498                 0.0767                 0.0619
 IR Inten    --      2.6246                 3.6170                 0.8345

                     13                     14                     15
                      A                      A                      A
 Frequencies --    241.6151               254.8741               265.9339
 Red. masses --      1.0805                 1.0605                 2.8397
 Frc consts  --      0.0372                 0.0406                 0.1183
 IR Inten    --      0.2958                 0.0365                 0.6882

                     16                     17                     18
                      A                      A                      A
 Frequencies --    273.9468               285.2329               298.5549
 Red. masses --      1.5232                 1.1032                 2.8081
 Frc consts  --      0.0674                 0.0529                 0.1475
 IR Inten    --      3.7252                 0.5082                 0.7019

                     19                     20                     21
                      A                      A                      A
 Frequencies --    325.0924               342.8508               365.9791
 Red. masses --      3.7431                 2.7783                 2.4299
 Frc consts  --      0.2331                 0.1924                 0.1918
 IR Inten    --      2.9198                 1.2055                 0.2039

                     22                     23                     24
                      A                      A                      A
 Frequencies --    373.3517               406.1474               423.4797
 Red. masses --      2.3228                 3.7484                 2.7299
 Frc consts  --      0.1908                 0.3643                 0.2884
 IR Inten    --      0.0506                 0.9680                 2.2682

                     25                     26                     27
                      A                      A                      A
 Frequencies --    432.2964               469.2373               472.8601
 Red. masses --      3.0917                 3.3987                 3.7355
 Frc consts  --      0.3404                 0.4409                 0.4921
 IR Inten    --      0.5036                 4.8420                 6.9518

                     28                     29                     30
                      A                      A                      A
 Frequencies --    503.0137               565.4948               587.4146
 Red. masses --      3.3933                 2.6973                 3.0192
 Frc consts  --      0.5059                 0.5082                 0.6138
 IR Inten    --     15.6436                 6.6546                 5.1490

                     31                     32                     33
                      A                      A                      A
 Frequencies --    602.9550               657.9520               722.4098
 Red. masses --      2.4293                 6.7736                 3.0247
 Frc consts  --      0.5204                 1.7277                 0.9300
 IR Inten    --     10.0319                 0.1497                 8.6510

                     34                     35                     36
                      A                      A                      A
 Frequencies --    761.0850               793.9650               815.7211
 Red. masses --      3.8452                 2.3426                 2.9914
 Frc consts  --      1.3123                 0.8701                 1.1728
 IR Inten    --      2.7906                56.8475                 7.8214

                     37                     38                     39
                      A                      A                      A
 Frequencies --    837.0667               844.9072               849.0030
 Red. masses --      1.0967                 1.9141                 1.2897
 Frc consts  --      0.4528                 0.8051                 0.5477
 IR Inten    --      1.3159                35.2806                 4.7044

                     40                     41                     42
                      A                      A                      A
 Frequencies --    866.8782               873.1541               903.0321
 Red. masses --      2.8579                 2.2432                 1.6933
 Frc consts  --      1.2654                 1.0076                 0.8136
 IR Inten    --     26.6987                30.9089                19.7223

                     43                     44                     45
                      A                      A                      A
 Frequencies --    936.9298               940.1241               943.3596
 Red. masses --      1.3591                 1.7919                 1.6476
 Frc consts  --      0.7029                 0.9331                 0.8639
 IR Inten    --      0.1935                14.5778                 3.0722

                     46                     47                     48
                      A                      A                      A
 Frequencies --    950.4228               955.9323               964.5990
 Red. masses --      1.2617                 1.7589                 1.3353
 Frc consts  --      0.6715                 0.9470                 0.7320
 IR Inten    --      0.4486                27.3921                 0.7431

                     49                     50                     51
                      A                      A                      A
 Frequencies --    973.6224               978.7804              1040.1564
 Red. masses --      2.0329                 1.8595                 2.6635
 Frc consts  --      1.1354                 1.0496                 1.6978
 IR Inten    --     46.4398                 6.1942                 3.2641

                     52                     53                     54
                      A                      A                      A
 Frequencies --   1055.9765              1091.8326              1125.3453
 Red. masses --      2.4251                 2.3624                 1.7749
 Frc consts  --      1.5933                 1.6593                 1.3244
 IR Inten    --      2.3721                80.6445                 4.9225

                     55                     56                     57
                      A                      A                      A
 Frequencies --   1133.0570              1139.2909              1150.7498
 Red. masses --      2.6126                 2.0134                 1.9167
 Frc consts  --      1.9762                 1.5397                 1.4954
 IR Inten    --     40.2866                17.4450                12.3048

                     58                     59                     60
                      A                      A                      A
 Frequencies --   1158.3199              1169.0564              1179.0056
 Red. masses --      2.0982                 1.9033                 2.0728
 Frc consts  --      1.6586                 1.5326                 1.6976
 IR Inten    --      9.0644                94.5210                63.6854

                     61                     62                     63
                      A                      A                      A
 Frequencies --   1184.2754              1200.1811              1201.4561
 Red. masses --      2.1868                 1.2699                 1.5495
 Frc consts  --      1.8070                 1.0777                 1.3178
 IR Inten    --     14.2386                25.3173                22.2848

                     64                     65                     66
                      A                      A                      A
 Frequencies --   1213.6489              1228.4446              1253.5947
 Red. masses --      1.9490                 3.1886                 1.8667
 Frc consts  --      1.6914                 2.8350                 1.7284
 IR Inten    --      7.0123                 7.6649                63.1972

                     67                     68                     69
                      A                      A                      A
 Frequencies --   1255.6555              1302.4800              1323.3673
 Red. masses --      2.0402                 1.3801                 1.1256
 Frc consts  --      1.8953                 1.3794                 1.1614
 IR Inten    --    201.1744                 6.2077                 0.9489

                     70                     71                     72
                      A                      A                      A
 Frequencies --   1330.5651              1346.5064              1365.5985
 Red. masses --      1.8019                 1.5238                 1.8881
 Frc consts  --      1.8796                 1.6278                 2.0746
 IR Inten    --      0.6478                 4.2449                 2.0903

                     73                     74                     75
                      A                      A                      A
 Frequencies --   1379.2281              1381.4883              1413.0166
 Red. masses --      1.3035                 1.3275                 1.2522
 Frc consts  --      1.4609                 1.4927                 1.4730
 IR Inten    --     10.9794                 2.8858                 2.6495

                     76                     77                     78
                      A                      A                      A
 Frequencies --   1415.6204              1423.1937              1426.8643
 Red. masses --      1.2197                 1.2429                 1.3952
 Frc consts  --      1.4401                 1.4832                 1.6735
 IR Inten    --      1.9339                 1.8298                 5.6524

                     79                     80                     81
                      A                      A                      A
 Frequencies --   1428.5420              1434.2600              1442.6642
 Red. masses --      1.3316                 1.2699                 1.2471
 Frc consts  --      1.6011                 1.5392                 1.5293
 IR Inten    --     16.0439                 9.3166                19.4718

                     82                     83                     84
                      A                      A                      A
 Frequencies --   1452.5893              1460.9829              1507.2188
 Red. masses --      1.3550                 2.7036                 1.0866
 Frc consts  --      1.6845                 3.4000                 1.4544
 IR Inten    --     20.2308                 3.5346                 1.7251

                     85                     86                     87
                      A                      A                      A
 Frequencies --   1512.5361              1513.7321              1519.9744
 Red. masses --      1.0413                 1.0480                 1.0503
 Frc consts  --      1.4036                 1.4148                 1.4297
 IR Inten    --      6.6051                 0.9518                 1.7011

                     88                     89                     90
                      A                      A                      A
 Frequencies --   1520.9025              1525.6918              1528.2189
 Red. masses --      1.0483                 1.0549                 1.0458
 Frc consts  --      1.4287                 1.4468                 1.4391
 IR Inten    --      1.2010                 9.2841                 9.6472

                     91                     92                     93
                      A                      A                      A
 Frequencies --   1531.6032              1536.1342              1540.5903
 Red. masses --      1.0545                 1.1931                 1.0669
 Frc consts  --      1.4575                 1.6587                 1.4919
 IR Inten    --      2.5776                30.4609                 1.8107

                     94                     95                     96
                      A                      A                      A
 Frequencies --   1549.8510              1557.8502              1561.9785
 Red. masses --      1.0801                 2.2690                 1.1157
 Frc consts  --      1.5286                 3.2445                 1.6037
 IR Inten    --     12.9641                67.1693                16.2514

                     97                     98                     99
                      A                      A                      A
 Frequencies --   1630.2382              1666.6569              2985.5140
 Red. masses --      6.5396                 5.8583                 1.0685
 Frc consts  --     10.2400                 9.5877                 5.6113
 IR Inten    --      3.6643                23.1217                25.0293

                    100                    101                    102
                      A                      A                      A
 Frequencies --   3020.0722              3040.6129              3048.4649
 Red. masses --      1.0634                 1.0888                 1.0595
 Frc consts  --      5.7147                 5.9308                 5.8011
 IR Inten    --     40.7268                38.4048                61.0342

                    103                    104                    105
                      A                      A                      A
 Frequencies --   3054.4770              3056.5705              3059.4306
 Red. masses --      1.0349                 1.0364                 1.0354
 Frc consts  --      5.6886                 5.7051                 5.7100
 IR Inten    --     14.9611                21.8949                 8.5780

                    106                    107                    108
                      A                      A                      A
 Frequencies --   3060.1685              3070.1867              3072.5401
 Red. masses --      1.0353                 1.0880                 1.0968
 Frc consts  --      5.7120                 6.0423                 6.1006
 IR Inten    --     16.4290                24.4139                37.6816

                    109                    110                    111
                      A                      A                      A
 Frequencies --   3079.1690              3090.9874              3122.5466
 Red. masses --      1.0870                 1.1064                 1.1020
 Frc consts  --      6.0724                 6.2279                 6.3306
 IR Inten    --     24.4061                21.2615                 0.9848

                    112                    113                    114
                      A                      A                      A
 Frequencies --   3123.5432              3129.3336              3132.2264
 Red. masses --      1.1015                 1.1018                 1.1031
 Frc consts  --      6.3321                 6.3570                 6.3762
 IR Inten    --     40.9727                69.6442                 8.0195

                    115                    116                    117
                      A                      A                      A
 Frequencies --   3132.7739              3133.8408              3137.0558
 Red. masses --      1.1026                 1.1037                 1.1033
 Frc consts  --      6.3755                 6.3865                 6.3974
 IR Inten    --     40.5795                15.1890                34.4416

                    118                    119                    120
                      A                      A                      A
 Frequencies --   3137.7908              3170.8183              3179.7639
 Red. masses --      1.1024                 1.0889                 1.0889
 Frc consts  --      6.3948                 6.4501                 6.4866
 IR Inten    --     54.0534                13.3473                14.8664

                    121                    122                    123
                      A                      A                      A
 Frequencies --   3216.8599              3218.2154              3478.1519
 Red. masses --      1.0926                 1.0928                 1.0730
 Frc consts  --      6.6616                 6.6682                 7.6481
 IR Inten    --     12.5833                 6.2177                11.1463

 - Thermochemistry -
 -------------------
 Temperature   298.150 Kelvin.  Pressure   1.00000 Atm.
 Atom     1 has atomic number  6 and mass  12.00000

 Molecular mass:   251.18853 amu.
 Principal axes and moments of inertia in atomic units:
                           1         2         3
     Eigenvalues --  2395.602808501.384939199.83061
           X            0.99996   0.00448   0.00833
           Y           -0.00420   0.99944  -0.03308
           Z           -0.00847   0.03304   0.99942
 This molecule is an asymmetric top.
 Rotational symmetry number  1.
 Warning -- assumption of classical behavior for rotation
           may cause significant error
 Rotational temperatures (Kelvin)      0.03616     0.01019     0.00941
 Rotational constants (GHZ):           0.75336     0.21229     0.19617
 Zero-point vibrational energy    1008314.3 (Joules/Mol)
                                  240.99290 (Kcal/Mol)
 Warning -- explicit consideration of  31 degrees of freedom as
           vibrations may cause significant error
 Vibrational temperatures:     31.61    37.95    51.83    77.24   111.17
          (Kelvin)            122.55   144.95   162.19   209.14   226.43
                              298.04   334.58   347.63   366.71   382.62
                              394.15   410.39   429.55   467.74   493.29
                              526.56   537.17   584.36   609.29   621.98
                              675.13   680.34   723.72   813.62   845.16
                              867.52   946.65  1039.39  1095.03  1142.34
                             1173.64  1204.35  1215.63  1221.53  1247.24
                             1256.27  1299.26  1348.03  1352.63  1357.28
                             1367.45  1375.37  1387.84  1400.83  1408.25
                             1496.55  1519.31  1570.90  1619.12  1630.22
                             1639.19  1655.67  1666.56  1682.01  1696.33
                             1703.91  1726.79  1728.63  1746.17  1767.46
                             1803.64  1806.61  1873.98  1904.03  1914.39
                             1937.32  1964.79  1984.40  1987.65  2033.02
                             2036.76  2047.66  2052.94  2055.35  2063.58
                             2075.67  2089.95  2102.03  2168.55  2176.20
                             2177.92  2186.90  2188.24  2195.13  2198.77
                             2203.64  2210.15  2216.57  2229.89  2241.40
                             2247.34  2345.55  2397.95  4295.49  4345.21
                             4374.76  4386.06  4394.71  4397.72  4401.84
                             4402.90  4417.31  4420.70  4430.24  4447.24
                             4492.65  4494.08  4502.41  4506.58  4507.36
                             4508.90  4513.52  4514.58  4562.10  4574.97
                             4628.34  4630.29  5004.28

 Zero-point correction=                           0.384047 (Hartree/Particle)
 Thermal correction to Energy=                    0.403695
 Thermal correction to Enthalpy=                  0.404639
 Thermal correction to Gibbs Free Energy=         0.334658
 Sum of electronic and zero-point Energies=           -791.525228
 Sum of electronic and thermal Energies=              -791.505580
 Sum of electronic and thermal Enthalpies=            -791.504636
 Sum of electronic and thermal Free Energies=         -791.574617

                     E (Thermal)             CV                S
                      KCal/Mol        Cal/Mol-Kelvin    Cal/Mol-Kelvin
 Total                  253.322             74.247            147.288
 Electronic               0.000              0.000              0.000
 Translational            0.889              2.981             42.463
 Rotational               0.889              2.981             33.593
 Vibrational            251.545             68.285             71.231
 Vibration     1          0.593              1.985              6.448
 Vibration     2          0.593              1.985              6.085
 Vibration     3          0.594              1.982              5.467
 Vibration     4          0.596              1.976              4.677
 Vibration     5          0.599              1.964              3.959
 Vibration     6          0.601              1.959              3.768
 Vibration     7          0.604              1.949              3.440
 Vibration     8          0.607              1.939              3.221
 Vibration     9          0.617              1.908              2.732
 Vibration    10          0.621              1.894              2.581
 Vibration    11          0.641              1.830              2.069
 Vibration    12          0.653              1.791              1.859
 Vibration    13          0.658              1.777              1.791
 Vibration    14          0.665              1.755              1.697
 Vibration    15          0.672              1.736              1.622
 Vibration    16          0.676              1.721              1.571
 Vibration    17          0.683              1.701              1.502
 Vibration    18          0.692              1.676              1.425
 Vibration    19          0.709              1.625              1.284
 Vibration    20          0.722              1.590              1.199
 Vibration    21          0.739              1.542              1.097
 Vibration    22          0.745              1.527              1.066
 Vibration    23          0.771              1.457              0.940
 Vibration    24          0.786              1.419              0.880
 Vibration    25          0.793              1.400              0.851
 Vibration    26          0.826              1.318              0.740
 Vibration    27          0.830              1.310              0.730
 Vibration    28          0.858              1.243              0.651
 Vibration    29          0.921              1.106              0.513
 Vibration    30          0.945              1.059              0.472
 Vibration    31          0.961              1.026              0.445

                           ! Non-Optimized Parameters !
 Normal termination of Gaussian 16 at Fri Dec 11 20:26:12 2020.

 ----------------------------------------------------------------------
 # B3LYP/6-311++G(d,p) empiricaldispersion=gd3bj scf=xqc pop=npa geom=c
 heck
 ----------------------------------------------------------------------

 ---------------------------------------
 CID_115655711_JID_8258_Energie_neutraal
 ---------------------------------------
 Structure from the checkpoint file:  "JID_8258.chk"
 Charge =  0 Multiplicity = 1

 SCF Done:  E(RB3LYP) =  -792.131592287     A.U. after   15 cycles
 Normal termination of Gaussian 16 at Fri Dec 11 20:36:25 2020.

 ----------------------------------------------------------------------
 # B3LYP/6-311++G(d,p) empiricaldispersion=gd3bj scf=xqc pop=npa geom=c
 heck
 ----------------------------------------------------------------------

 -------------------------------------
 CID_115655711_JID_8258_Energie_kation
 -------------------------------------
 Structure from the checkpoint file:  "JID_8258.chk"
 Charge =  1 Multiplicity = 2

 SCF Done:  E(UB3LYP) =  -791.844274786     A.U. after   24 cycles
 Normal termination of Gaussian 16 at Fri Dec 11 20:59:36 2020.
 Gaussian 16:  ES64L-G16RevA.03 25-Dec-2016

 ----------------------------------------------------------------------
 # B3LYP/6-311++G(d,p) empiricaldispersion=gd3bj scf=xqc pop=npa geom=c
 heck
 ----------------------------------------------------------------------

 ------------------------------------
 CID_115655711_JID_8258_Energie_anion
 ------------------------------------
 Structure from the checkpoint file:  "JID_8258.chk"
 Charge = -1 Multiplicity = 2

                         Standard orientation:
 ---------------------------------------------------------------------
 Center     Atomic      Atomic             Coordinates (Angstroms)
 Number     Number       Type             X           Y           Z
 ---------------------------------------------------------------------
      1          6           0        1.345896    2.636488   -0.927931
      2          6           0        1.983752    1.745221    0.123000
      3          8           0        3.161191    1.181499   -0.453505
      4          6           0        3.851807    0.192486    0.320635
      5          6           0        4.319284    0.711503    1.679134
      6          6           0        3.018439   -1.087718    0.442342
      7          7           0        2.632077   -1.553949   -0.886725
      8          6           0        1.387900   -2.334361   -0.916434
      9          6           0        0.157622   -1.531642   -0.536714
     10          6           0       -0.372659   -1.560963    0.758004
     11          6           0       -1.415833   -0.712284    1.131316
     12          6           0       -1.958296    0.178842    0.201984
     13          6           0       -1.443210    0.215517   -1.098907
     14          6           0       -0.399510   -0.633053   -1.456920
     15          8           0       -2.937445    1.069811    0.583838
     16          6           0       -4.321465    0.666256    0.430781
     17          6           0       -4.693739    0.438901   -1.032371
     18          6           0       -4.668845   -0.531794    1.311109
     19          1           0        2.038560    3.426280   -1.236179
     20          1           0        0.434936    3.097540   -0.531731
     21          1           0        1.076335    2.048174   -1.810297
     22          1           0        2.238756    2.332499    1.016979
     23          1           0        1.276862    0.962998    0.427193
     24          1           0        4.728612   -0.032488   -0.297321
     25          1           0        3.482107    0.867107    2.368137
     26          1           0        5.001918   -0.009654    2.141669
     27          1           0        4.850359    1.661149    1.559725
     28          1           0        3.619118   -1.858974    0.944213
     29          1           0        2.154356   -0.886995    1.097382
     30          1           0        2.508215   -0.723956   -1.466467
     31          1           0        1.274248   -2.735617   -1.930643
     32          1           0        1.505389   -3.191795   -0.243177
     33          1           0        0.040994   -2.252495    1.488119
     34          1           0       -1.807572   -0.721621    2.142987
     35          1           0       -1.857984    0.921914   -1.810025
     36          1           0        0.001463   -0.588259   -2.467562
     37          1           0       -4.857685    1.546031    0.800790
     38          1           0       -4.174884   -0.433528   -1.442773
     39          1           0       -5.771766    0.264457   -1.120474
     40          1           0       -4.435503    1.313583   -1.637466
     41          1           0       -4.393731   -0.338669    2.352709
     42          1           0       -5.746220   -0.726306    1.269044
     43          1           0       -4.148252   -1.434595    0.975411
 ---------------------------------------------------------------------

 SCF Done:  E(UB3LYP) =  -792.118340834     A.U. after   33 cycles
 SCF Done:  E(UB3LYP) =  -792.118340834     a.u. after    1 cycles

 The electronic state is 2-A.
 Alpha  occ. eigenvalues --  -19.04187 -19.03706 -14.20976 -10.13999 -10.13769
 Alpha  occ. eigenvalues --  -10.13722 -10.12567 -10.11256 -10.10141 -10.09294
 Alpha  occ. eigenvalues --  -10.09196 -10.09017 -10.08808 -10.08648 -10.07807
 Alpha  occ. eigenvalues --  -10.07411 -10.06967 -10.06830  -0.95791  -0.94764
 Alpha  occ. eigenvalues --   -0.82246  -0.76921  -0.70447  -0.69570  -0.66579
 Alpha  occ. eigenvalues --   -0.66395  -0.65112  -0.60654  -0.60226  -0.55958
 Alpha  occ. eigenvalues --   -0.54674  -0.53057  -0.52043  -0.48521  -0.48309
 Alpha  occ. eigenvalues --   -0.42316  -0.41554  -0.41055  -0.39900  -0.39350
 Alpha  occ. eigenvalues --   -0.38769  -0.38028  -0.36814  -0.35645  -0.34629
 Alpha  occ. eigenvalues --   -0.34046  -0.33551  -0.33196  -0.32519  -0.31785
 Alpha  occ. eigenvalues --   -0.30915  -0.29960  -0.29747  -0.29436  -0.28832
 Alpha  occ. eigenvalues --   -0.28728  -0.28189  -0.27175  -0.26937  -0.26545
 Alpha  occ. eigenvalues --   -0.26164  -0.25585  -0.23508  -0.22017  -0.18482
 Alpha  occ. eigenvalues --   -0.17813  -0.17333  -0.15703  -0.13879   0.03971
 Alpha virt. eigenvalues --    0.05361   0.06272   0.06500   0.06755   0.07058
 Alpha virt. eigenvalues --    0.07649   0.08120   0.08466   0.08585   0.08822
 Alpha virt. eigenvalues --    0.09395   0.09885   0.10010   0.10922   0.10994

  Beta  occ. eigenvalues --  -19.04186 -19.03706 -14.20974 -10.13999 -10.13757
  Beta  occ. eigenvalues --  -10.13717 -10.12558 -10.11249 -10.10129 -10.09295
  Beta  occ. eigenvalues --  -10.09190 -10.09006 -10.08801 -10.08636 -10.07780
  Beta  occ. eigenvalues --  -10.07403 -10.06934 -10.06797  -0.95785  -0.94760
  Beta  occ. eigenvalues --   -0.82239  -0.76909  -0.70427  -0.69544  -0.66561
  Beta  occ. eigenvalues --   -0.66378  -0.65091  -0.60626  -0.60164  -0.55930
  Beta  occ. eigenvalues --   -0.54650  -0.53028  -0.52008  -0.48492  -0.48279
  Beta  occ. eigenvalues --   -0.42294  -0.41542  -0.41032  -0.39871  -0.39324
  Beta  occ. eigenvalues --   -0.38732  -0.38009  -0.36797  -0.35620  -0.34602
  Beta  occ. eigenvalues --   -0.34025  -0.33524  -0.33166  -0.32493  -0.31765
  Beta  occ. eigenvalues --   -0.30891  -0.29927  -0.29727  -0.29407  -0.28809
  Beta  occ. eigenvalues --   -0.28706  -0.28170  -0.27149  -0.26920  -0.26522
  Beta  occ. eigenvalues --   -0.26147  -0.25563  -0.23478  -0.22004  -0.18471
  Beta  occ. eigenvalues --   -0.17807  -0.17321  -0.15696  -0.13874
  Beta virt. eigenvalues --    0.05850   0.06297   0.06464   0.06788   0.06949
  Beta virt. eigenvalues --    0.07590   0.07948   0.08417   0.08662   0.08833
  Beta virt. eigenvalues --    0.09095   0.09824   0.10185   0.10349   0.11197

 Mulliken charges and spin densities:
               1          2
     1  C   -0.261860  -0.407346
     2  C   -0.259994   0.038585
     3  O   -0.076535  -0.000545
     4  C   -0.741967   0.823823
     5  C    0.547574  -1.157212
     6  C   -0.022403  -0.475406
     7  N    0.088922  -0.008971
     8  C   -0.140503  -0.789026
     9  C    0.951715  -0.186685
    10  C   -0.264535  -0.030577
    11  C    0.269982  -0.236505
    12  C    0.591124  -1.568047
    13  C    0.061645   0.259282
    14  C   -0.930624   0.695052
    15  O   -0.054680   0.014024
    16  C   -1.451625   1.649468
    17  C    0.999484  -1.618175
    18  C    0.902738  -1.505690
    19  H    0.069622   0.079095
    20  H    0.042852   0.112848
    21  H    0.071413   0.065379
    22  H    0.054335   0.090100
    23  H    0.617710  -0.303107
    24  H    0.055363   0.133609
    25  H   -0.227249   0.387320
    26  H   -0.261703   0.405365
    27  H    0.001487   0.162328
    28  H   -0.122370   0.301346
    29  H    0.124556  -0.027832
    30  H    0.242352  -0.008622
    31  H    0.105239   0.068332
    32  H    0.032845   0.135100
    33  H   -0.447303   0.630349
    34  H   -0.312314   0.520510
    35  H    0.085730   0.117030
    36  H   -0.037602   0.221225
    37  H   -0.425189   0.628631
    38  H   -0.035958   0.192929
    39  H   -0.380308   0.526383
    40  H   -0.065299   0.215746
    41  H    0.018051   0.138205
    42  H   -0.432851   0.577895
    43  H    0.018131   0.133788
 Sum of Mulliken charges =  -1.00000   1.00000

 Dipole moment (field-independent basis, Debye):
    X=              4.6877    Y=              0.3985    Z=             -3.3209  Tot=              5.7586
 Quadrupole moment (field-independent basis, Debye-Ang):
   XX=           -237.4733   YY=           -153.1585   ZZ=           -155.4547
   XY=              3.9182   XZ=             -3.6845   YZ=              3.5915

 Summary of Natural Population Analysis:

                                       Natural Population
                Natural  -----------------------------------------------
    Atom  No    Charge         Core      Valence    Rydberg      Total
 -----------------------------------------------------------------------
      C    1   -0.28938      0.99966     2.28498    0.00473     3.28938
      C    2   -0.01905      0.99958     2.00746    0.01201     3.01905
      O    3   -0.31152      0.99988     3.30232    0.00932     4.31152
      C    4    0.06424      0.99955     1.92185    0.01436     2.93576
      C    5   -0.30075      0.99965     2.29602    0.00508     3.30075
      C    6   -0.10458      0.99959     2.09398    0.01101     3.10458
      N    7   -0.33732      0.99975     2.82679    0.01078     3.83732
      C    8   -0.09420      0.99959     2.08236    0.01225     3.09420
      C    9   -0.03844      0.99951     2.02864    0.01029     3.03844
      C   10   -0.09994      0.99951     2.08998    0.01045     3.09994
      C   11   -0.11488      0.99950     2.10506    0.01032     3.11488
      C   12    0.14940      0.99936     1.83550    0.01574     2.85060
      C   13   -0.12089      0.99952     2.11013    0.01124     3.12089
      C   14   -0.08859      0.99951     2.08234    0.00674     3.08859
      O   15   -0.29819      0.99986     3.28831    0.01001     4.29819
      C   16    0.06870      0.99954     1.91851    0.01324     2.93130
      C   17   -0.30182      0.99964     2.29610    0.00607     3.30182
      C   18   -0.30175      0.99964     2.29624    0.00587     3.30175
      H   19    0.09686      0.00000     0.40213    0.00101     0.40314
      H   20    0.10286      0.00000     0.39634    0.00080     0.39714
      H   21    0.09942      0.00000     0.39948    0.00109     0.40058
      H   22    0.07830      0.00000     0.42036    0.00134     0.42170
      H   23    0.08618      0.00000     0.41079    0.00302     0.41382
      H   24    0.09063      0.00000     0.40791    0.00146     0.40937
      H   25    0.10073      0.00000     0.39811    0.00116     0.39927
      H   26    0.10487      0.00000     0.39404    0.00109     0.39513
      H   27    0.10319      0.00000     0.39593    0.00088     0.39681
      H   28    0.09473      0.00000     0.40379    0.00148     0.40527
      H   29    0.08741      0.00000     0.41035    0.00224     0.41259
      H   30    0.17677      0.00000     0.31950    0.00374     0.32323
      H   31    0.09651      0.00000     0.40250    0.00099     0.40349
      H   32    0.09534      0.00000     0.40358    0.00108     0.40466
      H   33    0.10349      0.00000     0.39520    0.00130     0.39651
      H   34    0.10847      0.00000     0.38984    0.00168     0.39153
      H   35    0.10653      0.00000     0.39188    0.00159     0.39347
      H   36    0.09755      0.00000     0.40097    0.00148     0.40245
      H   37    0.09015      0.00000     0.40818    0.00167     0.40985
      H   38    0.10089      0.00000     0.39789    0.00122     0.39911
      H   39    0.10594      0.00000     0.39272    0.00134     0.39406
      H   40    0.10215      0.00000     0.39659    0.00126     0.39785
      H   41    0.10327      0.00000     0.39542    0.00130     0.39673
      H   42    0.10555      0.00000     0.39313    0.00132     0.39445
      H   43    0.10118      0.00000     0.39752    0.00130     0.39882
 =======================================================================
   * Total *    0.00002     17.99287    50.79073    0.21638    68.99998

 Normal termination of Gaussian 16 at Fri Dec 11 21:31:35 2020.
