 Gaussian 16, Revision A.03,

 ----------------------------------------------------------------------
 # opt=(cartesian,calcfc,maxcycle=500) freq B3LYP/6-31G(d) empiricaldis
 persion=gd3bj scf=xqc
 ----------------------------------------------------------------------

 ------------------------------
 CID_115235471_JID_342_neutraal
 ------------------------------
 Symbolic Z-matrix:
 Charge =  0 Multiplicity = 1

 SCF Done:  E(RB3LYP) =  -443.845524514     A.U. after   14 cycles
 SCF Done:  E(RB3LYP) =  -443.851719950     A.U. after   11 cycles
 SCF Done:  E(RB3LYP) =  -443.858176550     A.U. after   12 cycles
 SCF Done:  E(RB3LYP) =  -443.859023144     A.U. after   11 cycles
 SCF Done:  E(RB3LYP) =  -443.859328273     A.U. after   11 cycles
 SCF Done:  E(RB3LYP) =  -443.859436962     A.U. after   11 cycles
 SCF Done:  E(RB3LYP) =  -443.859514485     A.U. after   12 cycles
 SCF Done:  E(RB3LYP) =  -443.859542416     A.U. after   11 cycles
 SCF Done:  E(RB3LYP) =  -443.859540040     A.U. after   11 cycles
 SCF Done:  E(RB3LYP) =  -443.859554876     A.U. after    9 cycles
 SCF Done:  E(RB3LYP) =  -443.859603009     A.U. after    7 cycles
 SCF Done:  E(RB3LYP) =  -443.859602745     A.U. after    8 cycles
 SCF Done:  E(RB3LYP) =  -443.859603025     A.U. after    6 cycles
 SCF Done:  E(RB3LYP) =  -443.859602656     A.U. after    9 cycles
 SCF Done:  E(RB3LYP) =  -443.859603029     A.U. after    6 cycles
 Optimization completed.
    -- Stationary point found.
 Normal termination of Gaussian 16 at Sat Feb 27 18:29:28 2021.

 --------------------------------------------------------------------
 #N Geom=AllCheck Guess=TCheck SCRF=Check GenChk RB3LYP/6-31G(d) Freq
 --------------------------------------------------------------------

 Structure from the checkpoint file:  "JID_342.chk"
 ------------------------------
 CID_115235471_JID_342_neutraal
 ------------------------------
 Charge =  0 Multiplicity = 1

 SCF Done:  E(RB3LYP) =  -443.859603029     A.U. after    1 cycles

  Exact polarizability: 112.384   1.517  87.388  -0.819  -1.970  75.198
 Approx polarizability: 122.465   0.600 135.559  -0.809  -6.985 113.650

                      1                      2                      3
                      A                      A                      A
 Frequencies --     30.2438                44.5371                82.5418
 Red. masses --      2.7966                 3.5888                 3.0733
 Frc consts  --      0.0015                 0.0042                 0.0123
 IR Inten    --      2.7978                 0.1002                 1.9966

                      4                      5                      6
                      A                      A                      A
 Frequencies --     88.4982               110.3912               129.6433
 Red. masses --      1.5820                 1.5087                 2.1470
 Frc consts  --      0.0073                 0.0108                 0.0213
 IR Inten    --      0.2894                 0.3980                 1.6121

                      7                      8                      9
                      A                      A                      A
 Frequencies --    160.4533               227.6238               264.0239
 Red. masses --      2.3212                 3.0993                 4.2485
 Frc consts  --      0.0352                 0.0946                 0.1745
 IR Inten    --      2.1499                 3.4417                 0.9813

                     10                     11                     12
                      A                      A                      A
 Frequencies --    384.6405               458.0918               471.1628
 Red. masses --      2.9578                 3.1659                 2.0290
 Frc consts  --      0.2578                 0.3914                 0.2654
 IR Inten    --      0.6969                 6.3491                 5.0087

                     13                     14                     15
                      A                      A                      A
 Frequencies --    482.4578               600.6239               637.2956
 Red. masses --      2.1313                 3.9577                 2.2237
 Frc consts  --      0.2923                 0.8412                 0.5321
 IR Inten    --      4.4298                12.6465                 1.6352

                     16                     17                     18
                      A                      A                      A
 Frequencies --    770.0345               773.6843               796.2502
 Red. masses --      1.2203                 1.5561                 1.2173
 Frc consts  --      0.4263                 0.5488                 0.4547
 IR Inten    --      3.7086                 8.5794                17.1762

                     19                     20                     21
                      A                      A                      A
 Frequencies --    819.0775               851.3460               910.7834
 Red. masses --      1.3646                 2.8912                 2.0799
 Frc consts  --      0.5394                 1.2346                 1.0166
 IR Inten    --     41.4088                 2.3302                 1.3825

                     22                     23                     24
                      A                      A                      A
 Frequencies --    939.3295               949.7245               954.2586
 Red. masses --      2.2973                 1.5620                 1.6893
 Frc consts  --      1.1943                 0.8301                 0.9063
 IR Inten    --      1.5128                10.4947                 5.7921

                     25                     26                     27
                      A                      A                      A
 Frequencies --    970.7223               988.7501              1046.2018
 Red. masses --      1.6089                 2.0887                 1.8417
 Frc consts  --      0.8933                 1.2031                 1.1877
 IR Inten    --      8.3889                 0.2624                 2.3281

                     28                     29                     30
                      A                      A                      A
 Frequencies --   1080.8914              1105.2070              1153.0393
 Red. masses --      2.5607                 2.3179                 2.0484
 Frc consts  --      1.7627                 1.6682                 1.6045
 IR Inten    --      8.1922                 3.5130                11.5830

                     31                     32                     33
                      A                      A                      A
 Frequencies --   1156.0537              1189.0477              1196.4560
 Red. masses --      2.7020                 2.1446                 2.0253
 Frc consts  --      2.1276                 1.7864                 1.7082
 IR Inten    --     20.0336                50.3829                29.6836

                     34                     35                     36
                      A                      A                      A
 Frequencies --   1209.9546              1232.4602              1260.3330
 Red. masses --      1.3918                 1.4030                 1.2866
 Frc consts  --      1.2005                 1.2557                 1.2041
 IR Inten    --     16.2031                 3.7195                 0.8203

                     37                     38                     39
                      A                      A                      A
 Frequencies --   1268.2828              1279.1452              1291.1554
 Red. masses --      1.2676                 1.2814                 1.4903
 Frc consts  --      1.2013                 1.2353                 1.4638
 IR Inten    --      0.3052                 0.5904                 2.1229

                     40                     41                     42
                      A                      A                      A
 Frequencies --   1310.3530              1330.5278              1349.8686
 Red. masses --      1.3155                 1.2324                 1.5421
 Frc consts  --      1.3308                 1.2854                 1.6556
 IR Inten    --     20.4836                12.3275                 7.6486

                     43                     44                     45
                      A                      A                      A
 Frequencies --   1405.0492              1412.8202              1440.8016
 Red. masses --      1.4483                 1.3595                 1.5873
 Frc consts  --      1.6846                 1.5989                 1.9414
 IR Inten    --     58.0752                70.6619                 8.3631

                     46                     47                     48
                      A                      A                      A
 Frequencies --   1485.7260              1495.6891              1498.3117
 Red. masses --      1.0817                 1.1154                 1.2211
 Frc consts  --      1.4068                 1.4702                 1.6151
 IR Inten    --      4.7332                19.3449                 9.4604

                     49                     50                     51
                      A                      A                      A
 Frequencies --   1504.0294              1505.8264              1514.9742
 Red. masses --      1.0913                 1.0545                 1.0851
 Frc consts  --      1.4544                 1.4088                 1.4673
 IR Inten    --      0.2261                 9.0783                 2.7075

                     52                     53                     54
                      A                      A                      A
 Frequencies --   1539.6980              1544.0857              1814.7694
 Red. masses --      1.1274                 1.1020                10.1954
 Frc consts  --      1.5746                 1.5480                19.7833
 IR Inten    --      2.3865                 0.4678               125.1104

                     55                     56                     57
                      A                      A                      A
 Frequencies --   2937.4564              2960.9072              3023.5080
 Red. masses --      1.0828                 1.0743                 1.0633
 Frc consts  --      5.5051                 5.5490                 5.7270
 IR Inten    --     59.4315                74.9372                15.9183

                     58                     59                     60
                      A                      A                      A
 Frequencies --   3050.0178              3058.5846              3068.0120
 Red. masses --      1.0394                 1.0937                 1.0567
 Frc consts  --      5.6968                 6.0280                 5.8600
 IR Inten    --      6.5980                 9.9292                52.5454

                     61                     62                     63
                      A                      A                      A
 Frequencies --   3072.1799              3077.0698              3100.0085
 Red. masses --      1.0568                 1.0629                 1.0883
 Frc consts  --      5.8769                 5.9293                 6.1623
 IR Inten    --     33.0659                21.4081                18.3664

                     64                     65                     66
                      A                      A                      A
 Frequencies --   3108.0243              3114.1711              3123.9150
 Red. masses --      1.0990                 1.1080                 1.1094
 Frc consts  --      6.2551                 6.3308                 6.3790
 IR Inten    --     14.3552                15.2756                20.1550

                     67                     68                     69
                      A                      A                      A
 Frequencies --   3135.8847              3166.3752              3453.1279
 Red. masses --      1.1083                 1.1020                 1.0734
 Frc consts  --      6.4215                 6.5097                 7.5411
 IR Inten    --     67.2020                11.4978                 2.7023

 - Thermochemistry -
 -------------------
 Temperature   298.150 Kelvin.  Pressure   1.00000 Atm.
 Atom     1 has atomic number  8 and mass  15.99491

 Molecular mass:   141.11536 amu.
 Principal axes and moments of inertia in atomic units:
                           1         2         3
     Eigenvalues --   416.474373973.899434215.62833
           X            0.99990   0.01392  -0.00378
           Y           -0.01387   0.99983   0.01243
           Z            0.00395  -0.01238   0.99992
 This molecule is an asymmetric top.
 Rotational symmetry number  1.
 Rotational temperatures (Kelvin)      0.20797     0.02180     0.02055
 Rotational constants (GHZ):           4.33338     0.45415     0.42811
 Zero-point vibrational energy     585967.9 (Joules/Mol)
                                  140.04970 (Kcal/Mol)
 Warning -- explicit consideration of  14 degrees of freedom as
           vibrations may cause significant error
 Vibrational temperatures:     43.51    64.08   118.76   127.33   158.83
          (Kelvin)            186.53   230.86   327.50   379.87   553.41
                              659.09   677.90   694.15   864.16   916.93
                             1107.91  1113.16  1145.63  1178.47  1224.90
                             1310.41  1351.49  1366.44  1372.97  1396.65
                             1422.59  1505.25  1555.16  1590.15  1658.97
                             1663.30  1710.77  1721.43  1740.85  1773.24
                             1813.34  1824.78  1840.40  1857.68  1885.31
                             1914.33  1942.16  2021.55  2032.73  2072.99
                             2137.63  2151.96  2155.74  2163.96  2166.55
                             2179.71  2215.28  2221.59  2611.05  4226.34
                             4260.08  4350.15  4388.30  4400.62  4414.18
                             4420.18  4427.22  4460.22  4471.75  4480.60
                             4494.62  4511.84  4555.71  4968.28

 Zero-point correction=                           0.223183 (Hartree/Particle)
 Thermal correction to Energy=                    0.234620
 Thermal correction to Enthalpy=                  0.235565
 Thermal correction to Gibbs Free Energy=         0.184093
 Sum of electronic and zero-point Energies=           -443.636420
 Sum of electronic and thermal Energies=              -443.624983
 Sum of electronic and thermal Enthalpies=            -443.624039
 Sum of electronic and thermal Free Energies=         -443.675510

                     E (Thermal)             CV                S
                      KCal/Mol        Cal/Mol-Kelvin    Cal/Mol-Kelvin
 Total                  147.226             40.537            108.332
 Electronic               0.000              0.000              0.000
 Translational            0.889              2.981             40.745
 Rotational               0.889              2.981             30.324
 Vibrational            145.449             34.575             37.263
 Vibration     1          0.594              1.984              5.813
 Vibration     2          0.595              1.980              5.046
 Vibration     3          0.600              1.961              3.830
 Vibration     4          0.601              1.957              3.693
 Vibration     5          0.606              1.941              3.262
 Vibration     6          0.612              1.924              2.951
 Vibration     7          0.622              1.891              2.544
 Vibration     8          0.651              1.799              1.898
 Vibration     9          0.671              1.739              1.635
 Vibration    10          0.754              1.503              1.021
 Vibration    11          0.816              1.343              0.772
 Vibration    12          0.828              1.314              0.734
 Vibration    13          0.839              1.289              0.703
 Vibration    14          0.959              1.030              0.449

 Optimization completed.
    -- Stationary point found.
 Normal termination of Gaussian 16 at Sat Feb 27 18:33:03 2021.

 ----------------------------------------------------------------------
 # B3LYP/6-311++G(d,p) empiricaldispersion=gd3bj scf=xqc pop=npa geom=c
 heck
 ----------------------------------------------------------------------

 --------------------------------------
 CID_115235471_JID_342_Energie_neutraal
 --------------------------------------
 Structure from the checkpoint file:  "JID_342.chk"
 Charge =  0 Multiplicity = 1

 SCF Done:  E(RB3LYP) =  -443.991135185     A.U. after   13 cycles
 Normal termination of Gaussian 16 at Sat Feb 27 18:34:24 2021.

 ----------------------------------------------------------------------
 # B3LYP/6-311++G(d,p) empiricaldispersion=gd3bj scf=xqc pop=npa geom=c
 heck
 ----------------------------------------------------------------------

 ------------------------------------
 CID_115235471_JID_342_Energie_kation
 ------------------------------------
 Structure from the checkpoint file:  "JID_342.chk"
 Charge =  1 Multiplicity = 2

 SCF Done:  E(UB3LYP) =  -443.682650296     A.U. after   20 cycles
 Normal termination of Gaussian 16 at Sat Feb 27 18:37:01 2021.
 Gaussian 16:  ES64L-G16RevA.03 25-Dec-2016

 ----------------------------------------------------------------------
 # B3LYP/6-311++G(d,p) empiricaldispersion=gd3bj scf=xqc pop=npa geom=c
 heck
 ----------------------------------------------------------------------

 -----------------------------------
 CID_115235471_JID_342_Energie_anion
 -----------------------------------
 Structure from the checkpoint file:  "JID_342.chk"
 Charge = -1 Multiplicity = 2

                         Standard orientation:
 ---------------------------------------------------------------------
 Center     Atomic      Atomic             Coordinates (Angstroms)
 Number     Number       Type             X           Y           Z
 ---------------------------------------------------------------------
      1          8           0       -2.908439    1.368068   -0.358164
      2          7           0        0.731345   -0.771257   -0.031536
      3          6           0        1.971737   -0.136710   -0.444193
      4          6           0        2.475892    1.040503    0.430126
      5          6           0        3.279299   -0.894093   -0.112233
      6          6           0        3.910255    0.462656    0.299824
      7          6           0       -0.444013    0.042121   -0.334303
      8          6           0       -1.711324   -0.642883    0.163194
      9          6           0       -2.961634    0.209548    0.010495
     10          6           0       -4.281491   -0.461868    0.346554
     11          1           0        1.963990    0.167282   -1.507923
     12          1           0        2.088832    0.935158    1.448828
     13          1           0        2.295991    2.060113    0.076795
     14          1           0        3.758835   -1.467576   -0.911945
     15          1           0        3.121591   -1.543497    0.755107
     16          1           0        4.543613    0.474903    1.191295
     17          1           0        4.462512    0.922890   -0.525799
     18          1           0        0.650655   -1.668441   -0.512011
     19          1           0       -0.335924    1.004089    0.176995
     20          1           0       -0.546768    0.279526   -1.408925
     21          1           0       -1.873970   -1.601160   -0.353411
     22          1           0       -1.594605   -0.903928    1.224802
     23          1           0       -4.240371   -0.930728    1.336970
     24          1           0       -4.488815   -1.261173   -0.376411
     25          1           0       -5.089800    0.271163    0.314917
 ---------------------------------------------------------------------

 SCF Done:  E(UB3LYP) =  -443.976126005     A.U. after   33 cycles
 SCF Done:  E(UB3LYP) =  -443.976126005     a.u. after    1 cycles

 The electronic state is 2-A.
 Alpha  occ. eigenvalues --  -19.00648 -14.19298 -10.15533 -10.09594 -10.08481
 Alpha  occ. eigenvalues --  -10.07400 -10.06787 -10.06744 -10.06667 -10.06365
 Alpha  occ. eigenvalues --   -0.93922  -0.81006  -0.73385  -0.66833  -0.62342
 Alpha  occ. eigenvalues --   -0.56485  -0.54788  -0.51107  -0.45189  -0.42454
 Alpha  occ. eigenvalues --   -0.39809  -0.38345  -0.37812  -0.36010  -0.34172
 Alpha  occ. eigenvalues --   -0.33315  -0.31608  -0.30633  -0.29093  -0.28128
 Alpha  occ. eigenvalues --   -0.27095  -0.25386  -0.24880  -0.24215  -0.23085
 Alpha  occ. eigenvalues --   -0.21478  -0.20952  -0.14823  -0.12644   0.04749
 Alpha virt. eigenvalues --    0.06414   0.07427   0.08056   0.08310   0.08899
 Alpha virt. eigenvalues --    0.09956   0.10272   0.11121   0.11479   0.11668
 Alpha virt. eigenvalues --    0.11882   0.12305   0.14201   0.14677   0.14960

  Beta  occ. eigenvalues --  -19.00625 -14.19273 -10.15511 -10.09584 -10.08471
  Beta  occ. eigenvalues --  -10.07387 -10.06783 -10.06708 -10.06647 -10.06310
  Beta  occ. eigenvalues --   -0.93872  -0.80973  -0.73360  -0.66760  -0.62273
  Beta  occ. eigenvalues --   -0.56449  -0.54740  -0.51032  -0.45141  -0.42369
  Beta  occ. eigenvalues --   -0.39763  -0.38293  -0.37753  -0.35935  -0.34136
  Beta  occ. eigenvalues --   -0.33242  -0.31565  -0.30586  -0.29073  -0.28078
  Beta  occ. eigenvalues --   -0.27034  -0.25308  -0.24854  -0.24146  -0.23054
  Beta  occ. eigenvalues --   -0.21447  -0.20924  -0.14790  -0.12597
  Beta virt. eigenvalues --    0.06838   0.07596   0.07990   0.08446   0.08629
  Beta virt. eigenvalues --    0.09230   0.10618   0.10727   0.11477   0.11817
  Beta virt. eigenvalues --    0.12170   0.12276   0.12387   0.14572   0.14980

 Mulliken charges and spin densities:
               1          2
     1  O   -0.287317   0.020460
     2  N   -0.029501   0.094514
     3  C   -0.888678   0.694533
     4  C    0.179129  -0.408138
     5  C    0.639914  -0.903910
     6  C   -0.039456  -0.342277
     7  C   -0.422132  -0.038517
     8  C    0.738301  -0.893927
     9  C   -1.352441   1.532802
    10  C    2.350929  -2.976410
    11  H   -0.074906   0.218504
    12  H    0.086323   0.054877
    13  H    0.104602   0.015129
    14  H   -0.386369   0.532907
    15  H    0.114016   0.011978
    16  H    0.065856   0.060660
    17  H   -0.125740   0.260716
    18  H   -0.177212   0.404422
    19  H    0.087532   0.092951
    20  H   -0.101514   0.243724
    21  H   -0.378862   0.556863
    22  H    0.089014   0.089989
    23  H   -0.443175   0.590513
    24  H   -0.666999   0.849666
    25  H   -0.081314   0.237969
 Sum of Mulliken charges =  -1.00000   1.00000

 Dipole moment (field-independent basis, Debye):
    X=              4.9749    Y=              3.7655    Z=              2.8083  Tot=              6.8421
 Quadrupole moment (field-independent basis, Debye-Ang):
   XX=           -148.1946   YY=           -100.7600   ZZ=            -91.0951
   XY=             -5.3541   XZ=              3.4152   YZ=             -3.0812

 Summary of Natural Population Analysis:

                                       Natural Population
                Natural  -----------------------------------------------
    Atom  No    Charge         Core      Valence    Rydberg      Total
 -----------------------------------------------------------------------
      O    1   -0.29122      0.99987     3.28457    0.00677     4.29122
      N    2   -0.33902      0.99972     2.82763    0.01168     3.83902
      C    3   -0.00719      0.99959     1.99358    0.01402     3.00719
      C    4   -0.19213      0.99962     2.18556    0.00695     3.19213
      C    5   -0.19023      0.99963     2.18150    0.00910     3.19023
      C    6   -0.19208      0.99966     2.18397    0.00845     3.19208
      C    7   -0.08704      0.99962     2.07461    0.01281     3.08704
      C    8   -0.24097      0.99958     2.23275    0.00864     3.24097
      C    9    0.29979      0.99969     1.67983    0.02069     2.70021
      C   10   -0.33412      0.99962     2.32880    0.00570     3.33412
      H   11    0.08082      0.00000     0.41723    0.00195     0.41918
      H   12    0.09922      0.00000     0.39943    0.00135     0.40078
      H   13    0.09523      0.00000     0.40379    0.00098     0.40477
      H   14    0.09818      0.00000     0.40024    0.00158     0.40182
      H   15    0.09853      0.00000     0.39997    0.00150     0.40147
      H   16    0.09307      0.00000     0.40611    0.00082     0.40693
      H   17    0.09543      0.00000     0.40330    0.00127     0.40457
      H   18    0.17450      0.00000     0.32137    0.00413     0.32550
      H   19    0.09587      0.00000     0.40235    0.00178     0.40413
      H   20    0.08404      0.00000     0.41444    0.00152     0.41596
      H   21    0.11370      0.00000     0.38196    0.00435     0.38630
      H   22    0.11227      0.00000     0.38626    0.00147     0.38773
      H   23    0.10855      0.00000     0.38994    0.00151     0.39145
      H   24    0.11776      0.00000     0.37712    0.00512     0.38224
      H   25    0.10703      0.00000     0.39193    0.00104     0.39297
 =======================================================================
   * Total *   -0.00000      9.99660    28.86823    0.13517    39.00000

 Normal termination of Gaussian 16 at Sat Feb 27 18:41:19 2021.
