 Gaussian 16, Revision A.03,

 -----------------------------------------------------------
 # opt freq B3LYP/6-31G(d) empiricaldispersion=gd3bj scf=xqc
 -----------------------------------------------------------

 -------------------------------
 CID_129980998_JID_1779_neutraal
 -------------------------------
 Symbolic Z-matrix:
 Charge =  0 Multiplicity = 1

 SCF Done:  E(RB3LYP) =  -495.616616792     A.U. after   14 cycles
 SCF Done:  E(RB3LYP) =  -495.621927758     A.U. after   12 cycles
 SCF Done:  E(RB3LYP) =  -495.623065450     A.U. after   12 cycles
 SCF Done:  E(RB3LYP) =  -495.624011178     A.U. after   12 cycles
 SCF Done:  E(RB3LYP) =  -495.624474973     A.U. after   12 cycles
 SCF Done:  E(RB3LYP) =  -495.624637861     A.U. after   11 cycles
 SCF Done:  E(RB3LYP) =  -495.624671257     A.U. after   10 cycles
 SCF Done:  E(RB3LYP) =  -495.624694034     A.U. after   10 cycles
 SCF Done:  E(RB3LYP) =  -495.624704035     A.U. after   10 cycles
 SCF Done:  E(RB3LYP) =  -495.624706200     A.U. after    9 cycles
 SCF Done:  E(RB3LYP) =  -495.624707011     A.U. after    8 cycles
 SCF Done:  E(RB3LYP) =  -495.624707152     A.U. after    7 cycles
 Optimization completed.
    -- Stationary point found.
 Normal termination of Gaussian 16 at Tue Dec  8 21:04:50 2020.

 --------------------------------------------------------------------
 #N Geom=AllCheck Guess=TCheck SCRF=Check GenChk RB3LYP/6-31G(d) Freq
 --------------------------------------------------------------------

 Structure from the checkpoint file:  "JID_1779.chk"
 -------------------------------
 CID_129980998_JID_1779_neutraal
 -------------------------------
 Charge =  0 Multiplicity = 1

 SCF Done:  E(RB3LYP) =  -495.624707152     A.U. after    1 cycles

  Exact polarizability: 112.982   9.866 115.997   3.744  -0.941  55.332
 Approx polarizability: 177.727  11.975 182.016  10.743  -0.735  85.212

                      1                      2                      3
                      A                      A                      A
 Frequencies --     58.4719               130.5009               157.6099
 Red. masses --      3.3212                 2.8141                 2.7315
 Frc consts  --      0.0067                 0.0282                 0.0400
 IR Inten    --      3.9133                 0.5068                 4.2262

                      4                      5                      6
                      A                      A                      A
 Frequencies --    192.1171               235.5970               277.9862
 Red. masses --      3.5027                 2.7401                 3.1583
 Frc consts  --      0.0762                 0.0896                 0.1438
 IR Inten    --      0.7550                 8.2108                 3.6731

                      7                      8                      9
                      A                      A                      A
 Frequencies --    333.6263               390.6293               474.2484
 Red. masses --      1.9427                 1.9553                 3.9477
 Frc consts  --      0.1274                 0.1758                 0.5231
 IR Inten    --     54.5653                98.9699                 3.9201

                     10                     11                     12
                      A                      A                      A
 Frequencies --    497.1718               527.0330               572.3591
 Red. masses --      3.2635                 1.9930                 2.6643
 Frc consts  --      0.4753                 0.3262                 0.5142
 IR Inten    --     33.5591               111.2637                32.9389

                     13                     14                     15
                      A                      A                      A
 Frequencies --    587.9063               637.1640               696.0306
 Red. masses --      5.0315                 5.5463                 4.4646
 Frc consts  --      1.0246                 1.3266                 1.2744
 IR Inten    --      1.5335                 0.4910                58.7189

                     16                     17                     18
                      A                      A                      A
 Frequencies --    736.3810               794.9850               813.1853
 Red. masses --      2.1475                 3.9914                 1.3241
 Frc consts  --      0.6861                 1.4863                 0.5159
 IR Inten    --     13.0745                16.2912                22.7515

                     19                     20                     21
                      A                      A                      A
 Frequencies --    857.5133               887.7462               947.0322
 Red. masses --      3.6903                 2.2801                 2.4767
 Frc consts  --      1.5988                 1.0587                 1.3087
 IR Inten    --      7.2577                 8.9487                 4.4549

                     22                     23                     24
                      A                      A                      A
 Frequencies --    960.5313               974.4390              1057.0922
 Red. masses --      1.3454                 1.7170                 3.7923
 Frc consts  --      0.7314                 0.9606                 2.4968
 IR Inten    --      0.4949                18.6973                13.1328

                     25                     26                     27
                      A                      A                      A
 Frequencies --   1064.1354              1071.0633              1090.3309
 Red. masses --      2.9019                 3.0275                 2.1909
 Frc consts  --      1.9361                 2.0463                 1.5346
 IR Inten    --     22.9352                30.6729                30.2600

                     28                     29                     30
                      A                      A                      A
 Frequencies --   1112.6086              1198.5301              1206.8908
 Red. masses --      2.1422                 1.5935                 1.1688
 Frc consts  --      1.5624                 1.3486                 1.0031
 IR Inten    --      1.1606                16.0525                 5.1487

                     31                     32                     33
                      A                      A                      A
 Frequencies --   1218.9464              1236.9220              1278.4868
 Red. masses --      1.6644                 1.3024                 1.6065
 Frc consts  --      1.4571                 1.1740                 1.5471
 IR Inten    --      5.8395                 5.2640                 7.0121

                     34                     35                     36
                      A                      A                      A
 Frequencies --   1296.3699              1330.8821              1334.3337
 Red. masses --      1.9930                 1.8188                 1.6464
 Frc consts  --      1.9734                 1.8981                 1.7271
 IR Inten    --      7.7108                71.2671                 2.9552

                     37                     38                     39
                      A                      A                      A
 Frequencies --   1367.1297              1390.6740              1430.5096
 Red. masses --      2.3396                 1.3083                 1.3881
 Frc consts  --      2.5764                 1.4907                 1.6736
 IR Inten    --     36.4203                 3.0920                57.0775

                     40                     41                     42
                      A                      A                      A
 Frequencies --   1444.7398              1490.7882              1508.1604
 Red. masses --      1.7466                 2.3263                 1.2473
 Frc consts  --      2.1480                 3.0461                 1.6716
 IR Inten    --     44.1882               112.3739                27.2720

                     43                     44                     45
                      A                      A                      A
 Frequencies --   1527.3574              1531.8258              1556.4914
 Red. masses --      1.3560                 1.7208                 1.1844
 Frc consts  --      1.8637                 2.3790                 1.6906
 IR Inten    --     12.6677                 2.5975                 7.1903

                     46                     47                     48
                      A                      A                      A
 Frequencies --   1644.4468              1663.6699              3002.3101
 Red. masses --      6.7653                 7.3179                 1.0735
 Frc consts  --     10.7789                11.9336                 5.7009
 IR Inten    --     78.9596                86.3597                83.7998

                     49                     50                     51
                      A                      A                      A
 Frequencies --   3012.3590              3059.2843              3082.0317
 Red. masses --      1.0688                 1.0686                 1.0948
 Frc consts  --      5.7143                 5.8927                 6.1271
 IR Inten    --     61.0225                19.5515                23.8228

                     52                     53                     54
                      A                      A                      A
 Frequencies --   3107.6602              3118.3436              3172.3822
 Red. masses --      1.0907                 1.0983                 1.0882
 Frc consts  --      6.2059                 6.2923                 6.4526
 IR Inten    --     44.4475                21.2857                24.0038

                     55                     56                     57
                      A                      A                      A
 Frequencies --   3200.7253              3599.6578              3735.4070
 Red. masses --      1.0937                 1.0766                 1.0662
 Frc consts  --      6.6015                 8.2195                 8.7651
 IR Inten    --     25.3877                21.3927                13.5152

 - Thermochemistry -
 -------------------
 Temperature   298.150 Kelvin.  Pressure   1.00000 Atm.
 Atom     1 has atomic number  6 and mass  12.00000

 Molecular mass:   150.07931 amu.
 Principal axes and moments of inertia in atomic units:
                           1         2         3
     Eigenvalues --  1157.152281586.795902630.54362
           X            0.99572   0.09243  -0.00177
           Y           -0.09243   0.99571  -0.00299
           Z            0.00149   0.00314   0.99999
 This molecule is an asymmetric top.
 Rotational symmetry number  1.
 Warning -- assumption of classical behavior for rotation
           may cause significant error
 Rotational temperatures (Kelvin)      0.07485     0.05458     0.03293
 Rotational constants (GHZ):           1.55964     1.13735     0.68607
 Zero-point vibrational energy     459861.3 (Joules/Mol)
                                  109.90950 (Kcal/Mol)
 Warning -- explicit consideration of  13 degrees of freedom as
           vibrations may cause significant error
 Vibrational temperatures:     84.13   187.76   226.77   276.41   338.97
          (Kelvin)            399.96   480.01   562.03   682.34   715.32
                              758.28   823.50   845.87   916.74  1001.43
                             1059.49  1143.81  1169.99  1233.77  1277.27
                             1362.57  1381.99  1402.00  1520.92  1531.05
                             1541.02  1568.74  1600.80  1724.42  1736.45
                             1753.79  1779.65  1839.46  1865.19  1914.84
                             1919.81  1966.99  2000.87  2058.18  2078.66
                             2144.91  2169.91  2197.53  2203.96  2239.44
                             2365.99  2393.65  4319.65  4334.11  4401.63
                             4434.36  4471.23  4486.60  4564.35  4605.13
                             5179.10  5374.42

 Zero-point correction=                           0.175152 (Hartree/Particle)
 Thermal correction to Energy=                    0.184410
 Thermal correction to Enthalpy=                  0.185354
 Thermal correction to Gibbs Free Energy=         0.140478
 Sum of electronic and zero-point Energies=           -495.449555
 Sum of electronic and thermal Energies=              -495.440297
 Sum of electronic and thermal Enthalpies=            -495.439353
 Sum of electronic and thermal Free Energies=         -495.484229

                     E (Thermal)             CV                S
                      KCal/Mol        Cal/Mol-Kelvin    Cal/Mol-Kelvin
 Total                  115.719             35.988             94.450
 Electronic               0.000              0.000              0.000
 Translational            0.889              2.981             40.928
 Rotational               0.889              2.981             29.958
 Vibrational            113.941             30.026             23.563
 Vibration     1          0.596              1.974              4.508
 Vibration     2          0.612              1.923              2.939
 Vibration     3          0.621              1.894              2.578
 Vibration     4          0.634              1.851              2.207
 Vibration     5          0.655              1.786              1.836
 Vibration     6          0.679              1.714              1.546
 Vibration     7          0.715              1.608              1.242
 Vibration     8          0.758              1.490              0.998
 Vibration     9          0.831              1.307              0.726
 Vibration    10          0.853              1.256              0.665
 Vibration    11          0.882              1.190              0.594
 Vibration    12          0.929              1.091              0.500
 Vibration    13          0.945              1.058              0.471

                           ! Non-Optimized Parameters !
 Normal termination of Gaussian 16 at Tue Dec  8 21:09:50 2020.

 ----------------------------------------------------------------------
 # B3LYP/6-311++G(d,p) empiricaldispersion=gd3bj scf=xqc pop=npa geom=c
 heck
 ----------------------------------------------------------------------

 ---------------------------------------
 CID_129980998_JID_1779_Energie_neutraal
 ---------------------------------------
 Structure from the checkpoint file:  "JID_1779.chk"
 Charge =  0 Multiplicity = 1

 SCF Done:  E(RB3LYP) =  -495.769821885     A.U. after   14 cycles
 Normal termination of Gaussian 16 at Tue Dec  8 21:11:58 2020.

 ----------------------------------------------------------------------
 # B3LYP/6-311++G(d,p) empiricaldispersion=gd3bj scf=xqc pop=npa geom=c
 heck
 ----------------------------------------------------------------------

 -------------------------------------
 CID_129980998_JID_1779_Energie_kation
 -------------------------------------
 Structure from the checkpoint file:  "JID_1779.chk"
 Charge =  1 Multiplicity = 2

 SCF Done:  E(UB3LYP) =  -495.486293942     A.U. after   23 cycles
 Normal termination of Gaussian 16 at Tue Dec  8 21:17:07 2020.
 Gaussian 16:  ES64L-G16RevA.03 25-Dec-2016

 ----------------------------------------------------------------------
 # B3LYP/6-311++G(d,p) empiricaldispersion=gd3bj scf=xqc pop=npa geom=c
 heck
 ----------------------------------------------------------------------

 ------------------------------------
 CID_129980998_JID_1779_Energie_anion
 ------------------------------------
 Structure from the checkpoint file:  "JID_1779.chk"
 Charge = -1 Multiplicity = 2

                         Standard orientation:
 ---------------------------------------------------------------------
 Center     Atomic      Atomic             Coordinates (Angstroms)
 Number     Number       Type             X           Y           Z
 ---------------------------------------------------------------------
      1          6           0       -0.421352   -1.758436    0.059090
      2          6           0       -1.961458   -1.741667    0.259543
      3          7           0       -2.357744   -0.417399   -0.245033
      4          6           0       -1.278654    0.443610   -0.115572
      5          7           0       -1.381707    1.768597   -0.167515
      6          6           0       -0.214738    2.431886   -0.046791
      7          6           0        1.023371    1.821930    0.121316
      8          6           0        1.103440    0.414862    0.183506
      9          6           0       -0.084350   -0.285853    0.063554
     10          6           0        2.424023   -0.292470    0.380713
     11          8           0        2.597377   -1.407432   -0.489072
     12          1           0        0.095014   -2.335019    0.831191
     13          1           0       -0.157488   -2.211701   -0.904090
     14          1           0       -2.467381   -2.538836   -0.291960
     15          1           0       -2.208002   -1.851127    1.327254
     16          1           0       -3.264804   -0.047932    0.010603
     17          1           0       -0.286009    3.517063   -0.089304
     18          1           0        1.921167    2.426747    0.208838
     19          1           0        3.250081    0.427871    0.279030
     20          1           0        2.482256   -0.710309    1.392465
     21          1           0        2.490620   -1.078853   -1.395769
 ---------------------------------------------------------------------

 SCF Done:  E(UB3LYP) =  -495.758213100     A.U. after   33 cycles
 SCF Done:  E(UB3LYP) =  -495.758213100     a.u. after    1 cycles

 The electronic state is 2-A.
 Alpha  occ. eigenvalues --  -19.00255 -14.20588 -14.17358 -10.11007 -10.10234
 Alpha  occ. eigenvalues --  -10.08962 -10.07760 -10.06104 -10.05779 -10.04912
 Alpha  occ. eigenvalues --  -10.04850  -0.90431  -0.85196  -0.78833  -0.69782
 Alpha  occ. eigenvalues --   -0.63878  -0.61778  -0.57417  -0.50956  -0.48751
 Alpha  occ. eigenvalues --   -0.48141  -0.41777  -0.37821  -0.36844  -0.35874
 Alpha  occ. eigenvalues --   -0.34579  -0.32728  -0.32055  -0.28882  -0.28123
 Alpha  occ. eigenvalues --   -0.27204  -0.26732  -0.26148  -0.24071  -0.21877
 Alpha  occ. eigenvalues --   -0.18577  -0.16952  -0.14792  -0.13951  -0.08999
 Alpha  occ. eigenvalues --    0.05006
 Alpha virt. eigenvalues --    0.07444   0.08183   0.09183   0.09286   0.10029
 Alpha virt. eigenvalues --    0.10288   0.11064   0.12008   0.12316   0.13415
 Alpha virt. eigenvalues --    0.13755   0.15353   0.16394   0.16796   0.18043

  Beta  occ. eigenvalues --  -19.00182 -14.20592 -14.17201 -10.11025 -10.10216
  Beta  occ. eigenvalues --  -10.08929 -10.07696 -10.05988 -10.05763 -10.04867
  Beta  occ. eigenvalues --  -10.04837  -0.90253  -0.85104  -0.78677  -0.69574
  Beta  occ. eigenvalues --   -0.63765  -0.61664  -0.57256  -0.50822  -0.48698
  Beta  occ. eigenvalues --   -0.48036  -0.41645  -0.37742  -0.36743  -0.35765
  Beta  occ. eigenvalues --   -0.34510  -0.32599  -0.31918  -0.28796  -0.27945
  Beta  occ. eigenvalues --   -0.27085  -0.26573  -0.26024  -0.23992  -0.21770
  Beta  occ. eigenvalues --   -0.18411  -0.16745  -0.14233  -0.13739  -0.08725
  Beta virt. eigenvalues --    0.07617   0.08289   0.08820   0.09621   0.10168
  Beta virt. eigenvalues --    0.10495   0.10994   0.11442   0.12138   0.12617
  Beta virt. eigenvalues --    0.13623   0.14259   0.15497   0.16366   0.16854

 Mulliken charges and spin densities:
               1          2
     1  C   -0.055563  -0.413411
     2  C    1.520765  -1.982430
     3  N   -0.244066   0.157437
     4  C   -0.298845  -0.280979
     5  N   -0.212454   0.118101
     6  C   -0.075373  -0.027510
     7  C    0.035379  -0.845193
     8  C   -0.816669   1.750662
     9  C   -0.763809   1.358709
    10  C    1.634220  -2.122398
    11  O   -0.250670   0.054270
    12  H   -0.022220   0.166759
    13  H   -0.100793   0.325562
    14  H   -0.476947   0.650138
    15  H   -0.298914   0.449579
    16  H    0.123372   0.129056
    17  H    0.049874   0.092828
    18  H   -0.081903   0.196564
    19  H   -0.382005   0.545978
    20  H   -0.092935   0.254275
    21  H   -0.190446   0.422006
 Sum of Mulliken charges =  -1.00000   1.00000

 Dipole moment (field-independent basis, Debye):
    X=             -1.0986    Y=              3.1619    Z=              1.6186  Tot=              3.7181
 Quadrupole moment (field-independent basis, Debye-Ang):
   XX=           -108.9446   YY=           -103.4897   ZZ=            -89.0439
   XY=              2.8104   XZ=              1.3044   YZ=             -2.4718

 Summary of Natural Population Analysis:

                                       Natural Population
                Natural  -----------------------------------------------
    Atom  No    Charge         Core      Valence    Rydberg      Total
 -----------------------------------------------------------------------
      C    1   -0.19884      0.99962     2.19026    0.00896     3.19884
      C    2   -0.07919      0.99964     2.06932    0.01023     3.07919
      N    3   -0.31986      0.99968     2.80937    0.01082     3.81986
      C    4    0.20240      0.99946     1.78245    0.01569     2.79760
      N    5   -0.24523      0.99966     2.73380    0.01177     3.74523
      C    6    0.03519      0.99959     1.95062    0.01460     2.96481
      C    7   -0.14472      0.99952     2.13664    0.00856     3.14472
      C    8    0.00111      0.99946     1.98755    0.01189     2.99889
      C    9   -0.03399      0.99942     2.02351    0.01105     3.03399
      C   10   -0.01192      0.99955     2.00017    0.01220     3.01192
      O   11   -0.36529      0.99990     3.35826    0.00713     4.36529
      H   12    0.10698      0.00000     0.39195    0.00107     0.39302
      H   13    0.11015      0.00000     0.38731    0.00253     0.38985
      H   14    0.09460      0.00000     0.40304    0.00236     0.40540
      H   15    0.08200      0.00000     0.41608    0.00192     0.41800
      H   16    0.18586      0.00000     0.31086    0.00328     0.31414
      H   17    0.08252      0.00000     0.41634    0.00115     0.41748
      H   18    0.09824      0.00000     0.40058    0.00119     0.40176
      H   19    0.07746      0.00000     0.42080    0.00174     0.42254
      H   20    0.09169      0.00000     0.40639    0.00192     0.40831
      H   21    0.23085      0.00000     0.26092    0.00823     0.26915
 =======================================================================
   * Total *   -0.00000     10.99551    28.85621    0.14828    40.00000

 Normal termination of Gaussian 16 at Tue Dec  8 21:24:07 2020.
