 Gaussian 16, Revision A.03,

 -----------------------------------------------------------
 # opt freq B3LYP/6-31G(d) empiricaldispersion=gd3bj scf=xqc
 -----------------------------------------------------------

 ------------------------------
 CID_68347027_JID_1933_neutraal
 ------------------------------
 Symbolic Z-matrix:
 Charge =  0 Multiplicity = 1

 SCF Done:  E(RB3LYP) =  -804.986467492     A.U. after   15 cycles
 SCF Done:  E(RB3LYP) =  -804.988973107     A.U. after   12 cycles
 SCF Done:  E(RB3LYP) =  -804.989531004     A.U. after   12 cycles
 SCF Done:  E(RB3LYP) =  -804.989809779     A.U. after   13 cycles
 SCF Done:  E(RB3LYP) =  -804.990005631     A.U. after   10 cycles
 SCF Done:  E(RB3LYP) =  -804.990225582     A.U. after   12 cycles
 SCF Done:  E(RB3LYP) =  -804.990273095     A.U. after   10 cycles
 SCF Done:  E(RB3LYP) =  -804.990281592     A.U. after   10 cycles
 SCF Done:  E(RB3LYP) =  -804.990283804     A.U. after    9 cycles
 SCF Done:  E(RB3LYP) =  -804.990284514     A.U. after    8 cycles
 SCF Done:  E(RB3LYP) =  -804.990284597     A.U. after    7 cycles
 SCF Done:  E(RB3LYP) =  -804.990284606     A.U. after    6 cycles
 Optimization completed.
    -- Stationary point found.
 Normal termination of Gaussian 16 at Tue Dec  8 20:49:55 2020.

 --------------------------------------------------------------------
 #N Geom=AllCheck Guess=TCheck SCRF=Check GenChk RB3LYP/6-31G(d) Freq
 --------------------------------------------------------------------

 Structure from the checkpoint file:  "JID_1933.chk"
 ------------------------------
 CID_68347027_JID_1933_neutraal
 ------------------------------
 Charge =  0 Multiplicity = 1

 SCF Done:  E(RB3LYP) =  -804.990284606     A.U. after    1 cycles

  Exact polarizability: 138.950   1.256 115.527  11.975  -0.084  88.050
 Approx polarizability: 180.692   9.068 201.807  26.406  -0.699 133.270

                      1                      2                      3
                      A                      A                      A
 Frequencies --     17.4621                30.9442                53.4649
 Red. masses --      2.4757                 3.4262                 3.9202
 Frc consts  --      0.0004                 0.0019                 0.0066
 IR Inten    --      0.0290                 0.0721                 0.0952

                      4                      5                      6
                      A                      A                      A
 Frequencies --     94.0014               139.4873               154.5624
 Red. masses --      2.6758                 3.1989                 2.0367
 Frc consts  --      0.0139                 0.0367                 0.0287
 IR Inten    --      0.8602                 1.1130                 0.2451

                      7                      8                      9
                      A                      A                      A
 Frequencies --    210.0167               231.1946               276.1157
 Red. masses --      1.3824                 1.6317                 1.8150
 Frc consts  --      0.0359                 0.0514                 0.0815
 IR Inten    --      0.3472                 0.5867                 0.9719

                     10                     11                     12
                      A                      A                      A
 Frequencies --    305.8876               337.7999               366.1514
 Red. masses --      1.8057                 4.1169                 2.2860
 Frc consts  --      0.0995                 0.2768                 0.1806
 IR Inten    --      1.5047                 1.0629                 2.3266

                     13                     14                     15
                      A                      A                      A
 Frequencies --    387.0831               466.5130               553.2945
 Red. masses --      2.5774                 2.5070                 4.7115
 Frc consts  --      0.2275                 0.3215                 0.8498
 IR Inten    --      0.7374                 1.0624                 3.2321

                     16                     17                     18
                      A                      A                      A
 Frequencies --    573.7230               633.0815               649.8812
 Red. masses --      6.1698                 3.2033                 4.8409
 Frc consts  --      1.1965                 0.7564                 1.2046
 IR Inten    --      0.9174                 4.5118                 4.3243

                     19                     20                     21
                      A                      A                      A
 Frequencies --    707.2206               742.0708               761.1294
 Red. masses --      2.9739                 1.2229                 1.3878
 Frc consts  --      0.8764                 0.3968                 0.4737
 IR Inten    --      0.9771                21.7273                18.6396

                     22                     23                     24
                      A                      A                      A
 Frequencies --    808.9079               825.1422               850.0303
 Red. masses --      1.2871                 2.6190                 3.1445
 Frc consts  --      0.4962                 1.0506                 1.3386
 IR Inten    --      1.0309                 0.4318                 3.6223

                     25                     26                     27
                      A                      A                      A
 Frequencies --    897.5859               951.1071               960.9791
 Red. masses --      1.6682                 2.3721                 2.0810
 Frc consts  --      0.7919                 1.2643                 1.1322
 IR Inten    --      1.9269                 2.7055                 1.6921

                     28                     29                     30
                      A                      A                      A
 Frequencies --    972.5913               999.8084              1065.4512
 Red. masses --      2.0225                 2.2190                 2.1114
 Frc consts  --      1.1272                 1.3069                 1.4122
 IR Inten    --     13.4236                13.1144                17.6674

                     31                     32                     33
                      A                      A                      A
 Frequencies --   1082.7239              1101.9841              1112.4797
 Red. masses --      1.9877                 1.6968                 1.5709
 Frc consts  --      1.3729                 1.2140                 1.1455
 IR Inten    --      2.9345                 7.5537                 7.9698

                     34                     35                     36
                      A                      A                      A
 Frequencies --   1134.7025              1165.8387              1201.1108
 Red. masses --      1.8476                 1.5253                 2.2616
 Frc consts  --      1.4016                 1.2215                 1.9223
 IR Inten    --      4.1435                15.7265                28.7552

                     37                     38                     39
                      A                      A                      A
 Frequencies --   1219.8788              1275.7036              1309.0718
 Red. masses --      1.4459                 1.3333                 1.2184
 Frc consts  --      1.2678                 1.2784                 1.2302
 IR Inten    --      4.6085                 0.2675                 2.9502

                     40                     41                     42
                      A                      A                      A
 Frequencies --   1332.6528              1358.5994              1370.1420
 Red. masses --      1.1956                 2.7680                 1.4957
 Frc consts  --      1.2510                 3.0102                 1.6543
 IR Inten    --      2.4904                16.0819                 6.2334

                     43                     44                     45
                      A                      A                      A
 Frequencies --   1371.6916              1402.5113              1411.2804
 Red. masses --      1.4201                 1.3383                 1.5237
 Frc consts  --      1.5743                 1.5510                 1.7880
 IR Inten    --      3.6466                 3.3424                 2.2709

                     46                     47                     48
                      A                      A                      A
 Frequencies --   1433.0835              1441.8970              1506.2398
 Red. masses --      1.2205                 1.2692                 1.0799
 Frc consts  --      1.4769                 1.5547                 1.4435
 IR Inten    --      2.0847                 6.6793                 3.9502

                     49                     50                     51
                      A                      A                      A
 Frequencies --   1507.4733              1514.7519              1520.5343
 Red. masses --      1.0777                 1.1465                 1.0632
 Frc consts  --      1.4430                 1.5499                 1.4483
 IR Inten    --      2.8123                 4.0418                 1.8426

                     52                     53                     54
                      A                      A                      A
 Frequencies --   1525.0499              1532.6551              1534.4848
 Red. masses --      1.0401                 1.0630                 1.1169
 Frc consts  --      1.4253                 1.4712                 1.5495
 IR Inten    --      8.4469                 8.2207                 3.9455

                     55                     56                     57
                      A                      A                      A
 Frequencies --   1540.8216              1556.5839              1589.4538
 Red. masses --      1.0606                 4.6104                 7.7203
 Frc consts  --      1.4835                 6.5816                11.4916
 IR Inten    --      2.7085                 8.7269                46.4562

                     58                     59                     60
                      A                      A                      A
 Frequencies --   3035.6662              3041.4803              3043.7212
 Red. masses --      1.0652                 1.0602                 1.0396
 Frc consts  --      5.7835                 5.7785                 5.6745
 IR Inten    --     17.7743                25.9480                28.8188

                     61                     62                     63
                      A                      A                      A
 Frequencies --   3051.2304              3055.8798              3063.6167
 Red. masses --      1.0644                 1.0346                 1.0611
 Frc consts  --      5.8384                 5.6926                 5.8679
 IR Inten    --     39.0254                29.8910                17.4590

                     64                     65                     66
                      A                      A                      A
 Frequencies --   3074.2735              3084.7109              3102.4438
 Red. masses --      1.0982                 1.0999                 1.0991
 Frc consts  --      6.1155                 6.1663                 6.2332
 IR Inten    --     25.9554                 5.9173                53.1795

                     67                     68                     69
                      A                      A                      A
 Frequencies --   3106.6576              3108.8494              3117.0037
 Red. masses --      1.1028                 1.1013                 1.1013
 Frc consts  --      6.2711                 6.2711                 6.3041
 IR Inten    --      1.8127                51.8315                54.0649

                     70                     71                     72
                      A                      A                      A
 Frequencies --   3127.1870              3138.3642              3273.9022
 Red. masses --      1.1027                 1.1040                 1.0945
 Frc consts  --      6.3534                 6.4068                 6.9118
 IR Inten    --     36.1217                25.7680                 1.9954

 - Thermochemistry -
 -------------------
 Temperature   298.150 Kelvin.  Pressure   1.00000 Atm.
 Atom     1 has atomic number  6 and mass  12.00000

 Molecular mass:   169.09252 amu.
 Principal axes and moments of inertia in atomic units:
                           1         2         3
     Eigenvalues --  1005.039813533.563963937.97986
           X            0.99979  -0.02043  -0.00231
           Y            0.02042   0.99978  -0.00466
           Z            0.00241   0.00461   0.99999
 This molecule is an asymmetric top.
 Rotational symmetry number  1.
 Warning -- assumption of classical behavior for rotation
           may cause significant error
 Rotational temperatures (Kelvin)      0.08618     0.02451     0.02199
 Rotational constants (GHZ):           1.79569     0.51074     0.45829
 Zero-point vibrational energy     595148.6 (Joules/Mol)
                                  142.24393 (Kcal/Mol)
 Warning -- explicit consideration of  16 degrees of freedom as
           vibrations may cause significant error
 Vibrational temperatures:     25.12    44.52    76.92   135.25   200.69
          (Kelvin)            222.38   302.17   332.64   397.27   440.10
                              486.02   526.81   556.93   671.21   796.07
                              825.46   910.86   935.03  1017.53  1067.67
                             1095.10  1163.84  1187.20  1223.00  1291.43
                             1368.43  1382.63  1399.34  1438.50  1532.95
                             1557.80  1585.51  1600.61  1632.58  1677.38
                             1728.13  1755.13  1835.45  1883.46  1917.39
                             1954.72  1971.33  1973.56  2017.90  2030.52
                             2061.89  2074.57  2167.14  2168.92  2179.39
                             2187.71  2194.21  2205.15  2207.78  2216.90
                             2239.58  2286.87  4367.65  4376.01  4379.24
                             4390.04  4396.73  4407.86  4423.19  4438.21
                             4463.72  4469.79  4472.94  4484.67  4499.32
                             4515.41  4710.42

 Zero-point correction=                           0.226680 (Hartree/Particle)
 Thermal correction to Energy=                    0.239052
 Thermal correction to Enthalpy=                  0.239996
 Thermal correction to Gibbs Free Energy=         0.185802
 Sum of electronic and zero-point Energies=           -804.763604
 Sum of electronic and thermal Energies=              -804.751233
 Sum of electronic and thermal Enthalpies=            -804.750289
 Sum of electronic and thermal Free Energies=         -804.804483

                     E (Thermal)             CV                S
                      KCal/Mol        Cal/Mol-Kelvin    Cal/Mol-Kelvin
 Total                  150.007             44.880            114.062
 Electronic               0.000              0.000              0.000
 Translational            0.889              2.981             41.284
 Rotational               0.889              2.981             31.015
 Vibrational            148.230             38.918             41.763
 Vibration     1          0.593              1.986              6.904
 Vibration     2          0.594              1.984              5.768
 Vibration     3          0.596              1.976              4.685
 Vibration     4          0.603              1.953              3.575
 Vibration     5          0.615              1.914              2.811
 Vibration     6          0.620              1.898              2.615
 Vibration     7          0.642              1.826              2.044
 Vibration     8          0.653              1.793              1.870
 Vibration     9          0.678              1.718              1.558
 Vibration    10          0.696              1.663              1.384
 Vibration    11          0.718              1.600              1.223
 Vibration    12          0.739              1.542              1.096
 Vibration    13          0.756              1.498              1.011
 Vibration    14          0.824              1.324              0.747
 Vibration    15          0.909              1.132              0.537
 Vibration    16          0.930              1.088              0.497

                           ! Non-Optimized Parameters !
 Normal termination of Gaussian 16 at Tue Dec  8 20:55:58 2020.

 ----------------------------------------------------------------------
 # B3LYP/6-311++G(d,p) empiricaldispersion=gd3bj scf=xqc pop=npa geom=c
 heck
 ----------------------------------------------------------------------

 --------------------------------------
 CID_68347027_JID_1933_Energie_neutraal
 --------------------------------------
 Structure from the checkpoint file:  "JID_1933.chk"
 Charge =  0 Multiplicity = 1

 SCF Done:  E(RB3LYP) =  -805.126712912     A.U. after   15 cycles
 Normal termination of Gaussian 16 at Tue Dec  8 21:01:01 2020.

 ----------------------------------------------------------------------
 # B3LYP/6-311++G(d,p) empiricaldispersion=gd3bj scf=xqc pop=npa geom=c
 heck
 ----------------------------------------------------------------------

 ------------------------------------
 CID_68347027_JID_1933_Energie_kation
 ------------------------------------
 Structure from the checkpoint file:  "JID_1933.chk"
 Charge =  1 Multiplicity = 2

 SCF Done:  E(UB3LYP) =  -804.818102816     A.U. after   21 cycles
 Normal termination of Gaussian 16 at Tue Dec  8 21:08:16 2020.
 Gaussian 16:  ES64L-G16RevA.03 25-Dec-2016

 ----------------------------------------------------------------------
 # B3LYP/6-311++G(d,p) empiricaldispersion=gd3bj scf=xqc pop=npa geom=c
 heck
 ----------------------------------------------------------------------

 -----------------------------------
 CID_68347027_JID_1933_Energie_anion
 -----------------------------------
 Structure from the checkpoint file:  "JID_1933.chk"
 Charge = -1 Multiplicity = 2

                         Standard orientation:
 ---------------------------------------------------------------------
 Center     Atomic      Atomic             Coordinates (Angstroms)
 Number     Number       Type             X           Y           Z
 ---------------------------------------------------------------------
      1          6           0       -3.771468    0.656194    0.659209
      2          6           0       -2.865078   -0.532950    0.989796
      3          6           0       -2.447703   -1.361089   -0.232685
      4          6           0       -1.652310   -0.573361   -1.292016
      5          6           0       -0.399309    0.035619   -0.731811
      6          6           0       -0.106298    1.369180   -0.671962
      7         16           0        1.428395    1.621800    0.101368
      8          6           0        1.571010   -0.125863    0.297791
      9          7           0        0.561859   -0.794291   -0.178619
     10          6           0        2.797372   -0.752915    0.891803
     11          6           0        3.872659   -1.040673   -0.169511
     12          1           0       -3.251586    1.401199    0.046761
     13          1           0       -4.108603    1.161378    1.571125
     14          1           0       -4.662803    0.333677    0.106300
     15          1           0       -1.965069   -0.173257    1.504609
     16          1           0       -3.380166   -1.194979    1.697974
     17          1           0       -1.830470   -2.203568    0.099814
     18          1           0       -3.340279   -1.785657   -0.712315
     19          1           0       -1.384489   -1.255129   -2.109513
     20          1           0       -2.271533    0.217028   -1.729631
     21          1           0       -0.702674    2.199549   -1.023028
     22          1           0        3.207973   -0.104572    1.674350
     23          1           0        2.485553   -1.687922    1.368540
     24          1           0        4.205553   -0.115220   -0.651442
     25          1           0        4.744277   -1.523400    0.285439
     26          1           0        3.473733   -1.702735   -0.944218
 ---------------------------------------------------------------------

 SCF Done:  E(UB3LYP) =  -805.111494068     A.U. after   33 cycles
 SCF Done:  E(UB3LYP) =  -805.111494068     a.u. after    1 cycles

 The electronic state is 2-A.
 Alpha  occ. eigenvalues --  -88.76283 -14.19382 -10.11850 -10.09261 -10.08020
 Alpha  occ. eigenvalues --  -10.07461 -10.06694 -10.06121 -10.06061 -10.05885
 Alpha  occ. eigenvalues --  -10.05759  -7.84939  -5.81204  -5.80866  -5.80556
 Alpha  occ. eigenvalues --   -0.84889  -0.70664  -0.68217  -0.67974  -0.64147
 Alpha  occ. eigenvalues --   -0.59499  -0.54692  -0.52402  -0.47707  -0.45892
 Alpha  occ. eigenvalues --   -0.41985  -0.37737  -0.36359  -0.34966  -0.34543
 Alpha  occ. eigenvalues --   -0.32899  -0.30523  -0.30033  -0.29378  -0.28651
 Alpha  occ. eigenvalues --   -0.28016  -0.25894  -0.25523  -0.24706  -0.24359
 Alpha  occ. eigenvalues --   -0.22672  -0.22508  -0.21906  -0.17046  -0.16207
 Alpha  occ. eigenvalues --   -0.12647   0.04693
 Alpha virt. eigenvalues --    0.06233   0.07695   0.07814   0.08208   0.09076
 Alpha virt. eigenvalues --    0.09359   0.09907   0.10422   0.10967   0.11396
 Alpha virt. eigenvalues --    0.11948   0.12440   0.13093   0.13263   0.14018

  Beta  occ. eigenvalues --  -88.76263 -14.19342 -10.11724 -10.09266 -10.07914
  Beta  occ. eigenvalues --  -10.07455 -10.06685 -10.06111 -10.06048 -10.05835
  Beta  occ. eigenvalues --  -10.05736  -7.84920  -5.81196  -5.80857  -5.80492
  Beta  occ. eigenvalues --   -0.84765  -0.70605  -0.68099  -0.67872  -0.64104
  Beta  occ. eigenvalues --   -0.59405  -0.54615  -0.52296  -0.47599  -0.45804
  Beta  occ. eigenvalues --   -0.41881  -0.37652  -0.36307  -0.34922  -0.34489
  Beta  occ. eigenvalues --   -0.32771  -0.30376  -0.29949  -0.29320  -0.28568
  Beta  occ. eigenvalues --   -0.27957  -0.25755  -0.25437  -0.24636  -0.24314
  Beta  occ. eigenvalues --   -0.22633  -0.22470  -0.21867  -0.16674  -0.16137
  Beta  occ. eigenvalues --   -0.12175
  Beta virt. eigenvalues --    0.06800   0.07474   0.08196   0.08381   0.08920
  Beta virt. eigenvalues --    0.09304   0.09867   0.10271   0.10677   0.11262
  Beta virt. eigenvalues --    0.11872   0.12124   0.12592   0.13192   0.13518

 Mulliken charges and spin densities:
               1          2
     1  C    0.614829  -1.245123
     2  C   -0.820654   0.714090
     3  C    0.401466  -0.679211
     4  C    0.848638  -1.286995
     5  C   -0.383972  -0.825387
     6  C   -0.470065   1.204628
     7  S    0.340219  -0.908835
     8  C    0.112346   0.115817
     9  N    0.042017   0.157911
    10  C   -0.282420   0.522279
    11  C    0.685418  -1.135285
    12  H    0.016541   0.117716
    13  H   -0.126883   0.253084
    14  H   -0.166967   0.297709
    15  H    0.049921   0.078290
    16  H   -0.176431   0.333638
    17  H    0.180710  -0.026686
    18  H   -0.314178   0.457761
    19  H   -0.008267   0.178964
    20  H   -0.050253   0.187437
    21  H   -0.404744   0.664958
    22  H   -0.321152   0.469677
    23  H   -0.038566   0.197935
    24  H   -0.030476   0.151173
    25  H   -0.758054   0.917274
    26  H    0.060979   0.087182
 Sum of Mulliken charges =  -1.00000   1.00000

 Dipole moment (field-independent basis, Debye):
    X=             -1.7084    Y=              1.7836    Z=             -0.7669  Tot=              2.5861
 Quadrupole moment (field-independent basis, Debye-Ang):
   XX=           -166.6026   YY=           -108.8319   ZZ=           -104.8415
   XY=              8.4053   XZ=             -7.9621   YZ=              1.3467

 Summary of Natural Population Analysis:

                                       Natural Population
                Natural  -----------------------------------------------
    Atom  No    Charge         Core      Valence    Rydberg      Total
 -----------------------------------------------------------------------
      C    1   -0.28750      0.99967     2.28288    0.00495     3.28750
      C    2   -0.19341      0.99964     2.18525    0.00852     3.19341
      C    3   -0.18578      0.99962     2.17778    0.00838     3.18578
      C    4   -0.20044      0.99959     2.19119    0.00967     3.20044
      C    5    0.06017      0.99948     1.92514    0.01520     2.93983
      C    6   -0.19438      0.99944     2.18483    0.01011     3.19438
      S    7    0.17692      4.99943     2.80440    0.01925     7.82308
      C    8    0.06816      0.99960     1.91392    0.01832     2.93184
      N    9   -0.25040      0.99962     2.74000    0.01078     3.75040
      C   10   -0.21613      0.99958     2.20563    0.01092     3.21613
      C   11   -0.27833      0.99966     2.27337    0.00530     3.27833
      H   12    0.09630      0.00000     0.40246    0.00125     0.40370
      H   13    0.09698      0.00000     0.40218    0.00083     0.40302
      H   14    0.09481      0.00000     0.40398    0.00121     0.40519
      H   15    0.09871      0.00000     0.39995    0.00134     0.40129
      H   16    0.09350      0.00000     0.40553    0.00096     0.40650
      H   17    0.10248      0.00000     0.39605    0.00147     0.39752
      H   18    0.09356      0.00000     0.40516    0.00128     0.40644
      H   19    0.10493      0.00000     0.39388    0.00118     0.39507
      H   20    0.10028      0.00000     0.39845    0.00126     0.39972
      H   21    0.10908      0.00000     0.38958    0.00134     0.39092
      H   22    0.10384      0.00000     0.39431    0.00185     0.39616
      H   23    0.10996      0.00000     0.38849    0.00154     0.39004
      H   24    0.09610      0.00000     0.40283    0.00107     0.40390
      H   25    0.10135      0.00000     0.39550    0.00316     0.39865
      H   26    0.09925      0.00000     0.39961    0.00114     0.40075
 =======================================================================
   * Total *    0.00000     14.99533    30.86240    0.14228    46.00000

 Normal termination of Gaussian 16 at Tue Dec  8 21:18:15 2020.
