 Gaussian 16, Revision A.03,

 -----------------------------------------------------------
 # opt freq B3LYP/6-31G(d) empiricaldispersion=gd3bj scf=xqc
 -----------------------------------------------------------

 ------------------------------
 CID_14953600_JID_3308_neutraal
 ------------------------------
 Symbolic Z-matrix:
 Charge =  0 Multiplicity = 1

 SCF Done:  E(RB3LYP) =  -582.957353896     A.U. after   14 cycles
 SCF Done:  E(RB3LYP) =  -582.957207216     A.U. after   13 cycles
 SCF Done:  E(RB3LYP) =  -582.957140305     A.U. after   13 cycles
 SCF Done:  E(RB3LYP) =  -582.956974767     A.U. after   12 cycles
 SCF Done:  E(RB3LYP) =  -582.958171695     A.U. after    8 cycles
 SCF Done:  E(RB3LYP) =  -582.958601093     A.U. after   12 cycles
 SCF Done:  E(RB3LYP) =  -582.959339924     A.U. after   10 cycles
 SCF Done:  E(RB3LYP) =  -582.959240114     A.U. after   11 cycles
 SCF Done:  E(RB3LYP) =  -582.959456486     A.U. after   11 cycles
 SCF Done:  E(RB3LYP) =  -582.959471610     A.U. after   10 cycles
 SCF Done:  E(RB3LYP) =  -582.959473530     A.U. after    9 cycles
 SCF Done:  E(RB3LYP) =  -582.959474896     A.U. after    8 cycles
 SCF Done:  E(RB3LYP) =  -582.959474940     A.U. after    7 cycles
 SCF Done:  E(RB3LYP) =  -582.959475010     A.U. after    7 cycles
 Optimization completed.
    -- Stationary point found.
 Normal termination of Gaussian 16 at Wed Dec  9 22:59:41 2020.

 --------------------------------------------------------------------
 #N Geom=AllCheck Guess=TCheck SCRF=Check GenChk RB3LYP/6-31G(d) Freq
 --------------------------------------------------------------------

 Structure from the checkpoint file:  "JID_3308.chk"
 ------------------------------
 CID_14953600_JID_3308_neutraal
 ------------------------------
 Charge =  0 Multiplicity = 1

 SCF Done:  E(RB3LYP) =  -582.959475010     A.U. after    1 cycles

  Exact polarizability: 131.606   3.949 113.991   1.872  -0.778 111.271
 Approx polarizability: 159.518   4.042 165.616   1.641  -3.743 173.333

                      1                      2                      3
                      A                      A                      A
 Frequencies --     38.8911                44.2763                67.6310
 Red. masses --      3.8011                 2.8084                 4.0234
 Frc consts  --      0.0034                 0.0032                 0.0108
 IR Inten    --      0.3092                 0.0779                 0.5626

                      4                      5                      6
                      A                      A                      A
 Frequencies --     90.2750               132.3027               143.2709
 Red. masses --      5.6569                 2.2640                 3.1354
 Frc consts  --      0.0272                 0.0233                 0.0379
 IR Inten    --      0.4604                 0.2940                 0.2530

                      7                      8                      9
                      A                      A                      A
 Frequencies --    165.0064               202.1397               225.1818
 Red. masses --      3.7949                 1.6391                 1.2556
 Frc consts  --      0.0609                 0.0395                 0.0375
 IR Inten    --      0.7058                 0.4056                 0.1427

                     10                     11                     12
                      A                      A                      A
 Frequencies --    243.4060               257.5074               270.0153
 Red. masses --      1.1937                 1.3325                 2.1662
 Frc consts  --      0.0417                 0.0521                 0.0931
 IR Inten    --      0.0953                 0.1834                 0.0804

                     13                     14                     15
                      A                      A                      A
 Frequencies --    285.4022               291.0221               323.9218
 Red. masses --      2.3714                 1.4923                 1.7363
 Frc consts  --      0.1138                 0.0745                 0.1073
 IR Inten    --      0.3524                 0.0647                 0.4601

                     16                     17                     18
                      A                      A                      A
 Frequencies --    329.7984               361.5465               373.2536
 Red. masses --      2.1718                 2.5019                 2.1765
 Frc consts  --      0.1392                 0.1927                 0.1787
 IR Inten    --      0.1158                 2.8447                 0.2161

                     19                     20                     21
                      A                      A                      A
 Frequencies --    410.2204               433.7265               460.4800
 Red. masses --      2.4178                 1.9859                 2.3788
 Frc consts  --      0.2397                 0.2201                 0.2972
 IR Inten    --      0.9833                 0.8633                 2.3010

                     22                     23                     24
                      A                      A                      A
 Frequencies --    520.3749               536.3949               564.8121
 Red. masses --      3.6334                 2.5095                 3.2744
 Frc consts  --      0.5797                 0.4254                 0.6154
 IR Inten    --      5.0545                 7.3928                14.3650

                     25                     26                     27
                      A                      A                      A
 Frequencies --    628.3740               705.8130               740.3363
 Red. masses --      1.2710                 2.6845                 1.9693
 Frc consts  --      0.2957                 0.7879                 0.6360
 IR Inten    --     87.4028                24.3258                39.1620

                     28                     29                     30
                      A                      A                      A
 Frequencies --    790.5350               792.3674               831.7249
 Red. masses --      1.3314                 3.7164                 1.8857
 Frc consts  --      0.4902                 1.3748                 0.7686
 IR Inten    --      7.6685                17.6524                 3.0584

                     31                     32                     33
                      A                      A                      A
 Frequencies --    856.1800               892.1296               918.1020
 Red. masses --      2.3423                 1.8339                 1.9058
 Frc consts  --      1.0117                 0.8599                 0.9465
 IR Inten    --      0.8363                 3.7213                 4.0277

                     34                     35                     36
                      A                      A                      A
 Frequencies --    942.4922               966.0350               978.4679
 Red. masses --      1.2156                 1.7748                 1.4016
 Frc consts  --      0.6362                 0.9759                 0.7906
 IR Inten    --      0.8684                 4.1711                 0.3504

                     37                     38                     39
                      A                      A                      A
 Frequencies --   1001.2488              1018.1843              1025.7653
 Red. masses --      1.7029                 1.7349                 1.6758
 Frc consts  --      1.0058                 1.0597                 1.0389
 IR Inten    --      0.9833                 0.5943                 3.2247

                     40                     41                     42
                      A                      A                      A
 Frequencies --   1038.1989              1082.5465              1103.2816
 Red. masses --      1.7754                 1.9401                 2.1442
 Frc consts  --      1.1275                 1.3396                 1.5378
 IR Inten    --     11.3748                27.4143                 0.3327

                     43                     44                     45
                      A                      A                      A
 Frequencies --   1127.6321              1144.4690              1163.6696
 Red. masses --      1.9245                 1.6239                 2.5499
 Frc consts  --      1.4418                 1.2532                 2.0344
 IR Inten    --     41.2693                 5.2338               125.6527

                     46                     47                     48
                      A                      A                      A
 Frequencies --   1188.8117              1207.3783              1213.2139
 Red. masses --      2.4557                 1.7944                 1.9059
 Frc consts  --      2.0448                 1.5412                 1.6528
 IR Inten    --      4.4068                17.3254                 7.9948

                     49                     50                     51
                      A                      A                      A
 Frequencies --   1220.1383              1269.6234              1295.9751
 Red. masses --      1.9987                 1.4257                 1.5798
 Frc consts  --      1.7531                 1.3540                 1.5633
 IR Inten    --     17.1903                 0.3344                 3.6307

                     52                     53                     54
                      A                      A                      A
 Frequencies --   1329.9387              1339.1708              1362.8422
 Red. masses --      1.2228                 1.4223                 1.2604
 Frc consts  --      1.2743                 1.5028                 1.3792
 IR Inten    --      1.3778                 7.6846                 1.0932

                     55                     56                     57
                      A                      A                      A
 Frequencies --   1379.4478              1395.2451              1396.8549
 Red. masses --      1.5847                 1.4629                 1.3398
 Frc consts  --      1.7767                 1.6779                 1.5402
 IR Inten    --      9.4710                 1.4962                 1.5408

                     58                     59                     60
                      A                      A                      A
 Frequencies --   1401.0590              1418.4803              1425.7743
 Red. masses --      1.4679                 1.3747                 1.3572
 Frc consts  --      1.6977                 1.6297                 1.6255
 IR Inten    --      8.6472                 4.3579                 2.6056

                     61                     62                     63
                      A                      A                      A
 Frequencies --   1430.7761              1439.8652              1443.7672
 Red. masses --      1.3373                 1.2680                 1.2336
 Frc consts  --      1.6130                 1.5489                 1.5150
 IR Inten    --      6.0455                 3.2341                 6.1405

                     64                     65                     66
                      A                      A                      A
 Frequencies --   1450.4290              1507.0806              1514.6773
 Red. masses --      1.2503                 1.0729                 1.0665
 Frc consts  --      1.5498                 1.4357                 1.4416
 IR Inten    --      4.0474                 1.3913                 1.8467

                     67                     68                     69
                      A                      A                      A
 Frequencies --   1518.5587              1521.5570              1524.7477
 Red. masses --      1.0628                 1.0555                 1.0496
 Frc consts  --      1.4440                 1.4397                 1.4377
 IR Inten    --      1.7192                 1.5142                 3.6766

                     70                     71                     72
                      A                      A                      A
 Frequencies --   1530.2493              1533.6771              1535.1034
 Red. masses --      1.0590                 1.0700                 1.0766
 Frc consts  --      1.4611                 1.4828                 1.4947
 IR Inten    --     10.6523                 7.9637                11.0090

                     73                     74                     75
                      A                      A                      A
 Frequencies --   1537.4178              1541.8009              1545.3001
 Red. masses --      1.0668                 1.0464                 1.0520
 Frc consts  --      1.4856                 1.4656                 1.4801
 IR Inten    --      0.4072                 7.3112                 9.1204

                     76                     77                     78
                      A                      A                      A
 Frequencies --   1545.7083              1822.0441              3023.3828
 Red. masses --      1.0580                 9.5213                 1.0703
 Frc consts  --      1.4893                18.6236                 5.7642
 IR Inten    --      1.9087               200.4590                16.3746

                     79                     80                     81
                      A                      A                      A
 Frequencies --   3034.4914              3036.7404              3039.3480
 Red. masses --      1.0367                 1.0599                 1.0470
 Frc consts  --      5.6246                 5.7585                 5.6983
 IR Inten    --     29.0570                 8.8731                27.6116

                     82                     83                     84
                      A                      A                      A
 Frequencies --   3042.8497              3051.2055              3052.1796
 Red. masses --      1.0671                 1.0650                 1.0759
 Frc consts  --      5.8214                 5.8417                 5.9056
 IR Inten    --      8.6427                49.2588                39.2401

                     85                     86                     87
                      A                      A                      A
 Frequencies --   3058.1841              3062.2552              3071.4942
 Red. masses --      1.0367                 1.0381                 1.0999
 Frc consts  --      5.7127                 5.7355                 6.1136
 IR Inten    --     17.6644                37.7470                13.8259

                     88                     89                     90
                      A                      A                      A
 Frequencies --   3095.6700              3096.8694              3102.5100
 Red. masses --      1.0964                 1.1015                 1.0942
 Frc consts  --      6.1904                 6.2239                 6.2053
 IR Inten    --     22.1833                 5.0414                30.9883

                     91                     92                     93
                      A                      A                      A
 Frequencies --   3106.1768              3106.7375              3111.9351
 Red. masses --      1.0988                 1.0973                 1.1007
 Frc consts  --      6.2464                 6.2400                 6.2801
 IR Inten    --     53.5260                20.6901                32.8564

                     94                     95                     96
                      A                      A                      A
 Frequencies --   3112.8032              3122.4364              3129.7283
 Red. masses --      1.1011                 1.0988                 1.1005
 Frc consts  --      6.2859                 6.3116                 6.3512
 IR Inten    --     55.6718                40.2463                32.0239

                     97                     98                     99
                      A                      A                      A
 Frequencies --   3141.9323              3147.3909              3685.0556
 Red. masses --      1.1022                 1.1023                 1.0641
 Frc consts  --      6.4107                 6.4334                 8.5136
 IR Inten    --     22.5246                22.4837                45.8558

 - Thermochemistry -
 -------------------
 Temperature   298.150 Kelvin.  Pressure   1.00000 Atm.
 Atom     1 has atomic number  6 and mass  12.00000

 Molecular mass:   186.16198 amu.
 Principal axes and moments of inertia in atomic units:
                           1         2         3
     Eigenvalues --  1517.260763630.136083881.17273
           X            0.99994   0.01059   0.00160
           Y           -0.01054   0.99954  -0.02848
           Z           -0.00190   0.02846   0.99959
 This molecule is an asymmetric top.
 Rotational symmetry number  1.
 Warning -- assumption of classical behavior for rotation
           may cause significant error
 Rotational temperatures (Kelvin)      0.05709     0.02386     0.02232
 Rotational constants (GHZ):           1.18947     0.49716     0.46500
 Zero-point vibrational energy     841791.2 (Joules/Mol)
                                  201.19293 (Kcal/Mol)
 Warning -- explicit consideration of  24 degrees of freedom as
           vibrations may cause significant error
 Vibrational temperatures:     55.96    63.70    97.31   129.89   190.35
          (Kelvin)            206.13   237.41   290.83   323.99   350.21
                              370.50   388.49   410.63   418.72   466.05
                              474.51   520.18   537.03   590.22   624.04
                              662.53   748.70   771.75   812.64   904.09
                             1015.51  1065.18  1137.40  1140.04  1196.67
                             1231.85  1283.58  1320.94  1356.04  1389.91
                             1407.80  1440.57  1464.94  1475.85  1493.74
                             1557.54  1587.38  1622.41  1646.64  1674.26
                             1710.43  1737.15  1745.54  1755.51  1826.70
                             1864.62  1913.49  1926.77  1960.83  1984.72
                             2007.45  2009.76  2015.81  2040.88  2051.37
                             2058.57  2071.64  2077.26  2086.84  2168.35
                             2179.28  2184.87  2189.18  2193.77  2201.69
                             2206.62  2208.67  2212.00  2218.31  2223.34
                             2223.93  2621.52  4349.97  4365.96  4369.19
                             4372.94  4377.98  4390.00  4391.41  4400.04
                             4405.90  4419.20  4453.98  4455.70  4463.82
                             4469.10  4469.90  4477.38  4478.63  4492.49
                             4502.98  4520.54  4528.39  5301.97

 Zero-point correction=                           0.320621 (Hartree/Particle)
 Thermal correction to Energy=                    0.336293
 Thermal correction to Enthalpy=                  0.337237
 Thermal correction to Gibbs Free Energy=         0.278324
 Sum of electronic and zero-point Energies=           -582.638854
 Sum of electronic and thermal Energies=              -582.623182
 Sum of electronic and thermal Enthalpies=            -582.622238
 Sum of electronic and thermal Free Energies=         -582.681151

                     E (Thermal)             CV                S
                      KCal/Mol        Cal/Mol-Kelvin    Cal/Mol-Kelvin
 Total                  211.027             59.176            123.992
 Electronic               0.000              0.000              0.000
 Translational            0.889              2.981             41.570
 Rotational               0.889              2.981             31.436
 Vibrational            209.249             53.215             50.985
 Vibration     1          0.594              1.981              5.315
 Vibration     2          0.595              1.980              5.058
 Vibration     3          0.598              1.970              4.221
 Vibration     4          0.602              1.956              3.654
 Vibration     5          0.612              1.921              2.912
 Vibration     6          0.616              1.910              2.760
 Vibration     7          0.623              1.885              2.492
 Vibration     8          0.639              1.837              2.114
 Vibration     9          0.650              1.803              1.917
 Vibration    10          0.659              1.774              1.778
 Vibration    11          0.667              1.750              1.679
 Vibration    12          0.674              1.728              1.596
 Vibration    13          0.683              1.701              1.501
 Vibration    14          0.687              1.690              1.468
 Vibration    15          0.708              1.628              1.290
 Vibration    16          0.713              1.616              1.261
 Vibration    17          0.736              1.551              1.115
 Vibration    18          0.745              1.527              1.066
 Vibration    19          0.774              1.448              0.926
 Vibration    20          0.794              1.397              0.847
 Vibration    21          0.818              1.338              0.765
 Vibration    22          0.875              1.205              0.609
 Vibration    23          0.891              1.170              0.573
 Vibration    24          0.921              1.107              0.514

 Optimization completed.
    -- Stationary point found.
 Normal termination of Gaussian 16 at Wed Dec  9 23:11:24 2020.

 ----------------------------------------------------------------------
 # B3LYP/6-311++G(d,p) empiricaldispersion=gd3bj scf=xqc pop=npa geom=c
 heck
 ----------------------------------------------------------------------

 --------------------------------------
 CID_14953600_JID_3308_Energie_neutraal
 --------------------------------------
 Structure from the checkpoint file:  "JID_3308.chk"
 Charge =  0 Multiplicity = 1

 SCF Done:  E(RB3LYP) =  -583.133988915     A.U. after   13 cycles
 Normal termination of Gaussian 16 at Wed Dec  9 23:16:44 2020.

 ----------------------------------------------------------------------
 # B3LYP/6-311++G(d,p) empiricaldispersion=gd3bj scf=xqc pop=npa geom=c
 heck
 ----------------------------------------------------------------------

 ------------------------------------
 CID_14953600_JID_3308_Energie_kation
 ------------------------------------
 Structure from the checkpoint file:  "JID_3308.chk"
 Charge =  1 Multiplicity = 2

 SCF Done:  E(UB3LYP) =  -582.778378735     A.U. after   31 cycles
 Normal termination of Gaussian 16 at Wed Dec  9 23:34:23 2020.
 Gaussian 16:  ES64L-G16RevA.03 25-Dec-2016

 ----------------------------------------------------------------------
 # B3LYP/6-311++G(d,p) empiricaldispersion=gd3bj scf=xqc pop=npa geom=c
 heck
 ----------------------------------------------------------------------

 -----------------------------------
 CID_14953600_JID_3308_Energie_anion
 -----------------------------------
 Structure from the checkpoint file:  "JID_3308.chk"
 Charge = -1 Multiplicity = 2

                         Standard orientation:
 ---------------------------------------------------------------------
 Center     Atomic      Atomic             Coordinates (Angstroms)
 Number     Number       Type             X           Y           Z
 ---------------------------------------------------------------------
      1          6           0       -3.378750    0.057285   -1.292667
      2          6           0       -2.112266   -0.726334   -0.934925
      3          6           0       -1.424576   -0.319282    0.385232
      4          6           0       -2.431106   -0.315120    1.558124
      5          6           0       -0.293413   -1.330949    0.752480
      6          6           0        0.688688   -1.763222   -0.349804
      7          6           0        1.558084   -0.661980   -0.975761
      8          6           0        2.455496    0.122716   -0.000761
      9          6           0        3.538959   -0.764235    0.624453
     10          6           0        3.075154    1.328926   -0.717054
     11          6           0       -0.837305    1.083513    0.248898
     12          8           0       -0.733630    1.732201   -0.771418
     13          8           0       -0.408679    1.580195    1.440875
     14          1           0       -4.178761   -0.097685   -0.561233
     15          1           0       -3.758763   -0.267310   -2.267418
     16          1           0       -3.170893    1.129114   -1.357086
     17          1           0       -2.354088   -1.795029   -0.860165
     18          1           0       -1.393562   -0.622632   -1.752752
     19          1           0       -2.960254   -1.274162    1.585623
     20          1           0       -1.917043   -0.175465    2.512282
     21          1           0       -3.175308    0.480279    1.458025
     22          1           0        0.256945   -0.932675    1.611985
     23          1           0       -0.802392   -2.234437    1.113465
     24          1           0        1.335555   -2.536741    0.084033
     25          1           0        0.133219   -2.264047   -1.151752
     26          1           0        2.201872   -1.125119   -1.737887
     27          1           0        0.917731    0.045780   -1.511917
     28          1           0        1.831098    0.511306    0.814010
     29          1           0        4.188456   -1.188651   -0.152343
     30          1           0        4.171980   -0.188880    1.310061
     31          1           0        3.109785   -1.597455    1.191830
     32          1           0        2.294816    1.991661   -1.108738
     33          1           0        3.712749    1.911165   -0.040902
     34          1           0        3.696124    1.005644   -1.562624
     35          1           0       -0.034590    2.458268    1.238564
 ---------------------------------------------------------------------

 SCF Done:  E(UB3LYP) =  -583.118376227     A.U. after   33 cycles
 SCF Done:  E(UB3LYP) =  -583.118376227     a.u. after    1 cycles

 The electronic state is 2-A.
 Alpha  occ. eigenvalues --  -19.06720 -19.01591 -10.20452 -10.09996 -10.07191
 Alpha  occ. eigenvalues --  -10.06929 -10.06847 -10.06622 -10.06381 -10.05902
 Alpha  occ. eigenvalues --  -10.05901 -10.05641 -10.05381  -1.00987  -0.91952
 Alpha  occ. eigenvalues --   -0.73936  -0.70927  -0.65812  -0.63601  -0.58346
 Alpha  occ. eigenvalues --   -0.57954  -0.56276  -0.53360  -0.50373  -0.45872
 Alpha  occ. eigenvalues --   -0.44570  -0.39581  -0.38692  -0.37999  -0.35945
 Alpha  occ. eigenvalues --   -0.35111  -0.34127  -0.33365  -0.32786  -0.32427
 Alpha  occ. eigenvalues --   -0.31516  -0.29780  -0.29039  -0.28508  -0.27879
 Alpha  occ. eigenvalues --   -0.27326  -0.27178  -0.25584  -0.24957  -0.24616
 Alpha  occ. eigenvalues --   -0.23406  -0.22950  -0.22492  -0.21629  -0.20717
 Alpha  occ. eigenvalues --   -0.20646  -0.17901   0.04546
 Alpha virt. eigenvalues --    0.06382   0.06907   0.07722   0.08416   0.08777
 Alpha virt. eigenvalues --    0.09005   0.09343   0.10274   0.10407   0.11055
 Alpha virt. eigenvalues --    0.11654   0.11900   0.12203   0.12275   0.13579

  Beta  occ. eigenvalues --  -19.06677 -19.01573 -10.20448 -10.09992 -10.07174
  Beta  occ. eigenvalues --  -10.06914 -10.06838 -10.06611 -10.06348 -10.05895
  Beta  occ. eigenvalues --  -10.05882 -10.05615 -10.05359  -1.00934  -0.91901
  Beta  occ. eigenvalues --   -0.73910  -0.70904  -0.65780  -0.63565  -0.58297
  Beta  occ. eigenvalues --   -0.57907  -0.56206  -0.53295  -0.50326  -0.45805
  Beta  occ. eigenvalues --   -0.44516  -0.39551  -0.38644  -0.37963  -0.35916
  Beta  occ. eigenvalues --   -0.35079  -0.34093  -0.33333  -0.32754  -0.32385
  Beta  occ. eigenvalues --   -0.31475  -0.29746  -0.29009  -0.28484  -0.27843
  Beta  occ. eigenvalues --   -0.27294  -0.27153  -0.25549  -0.24923  -0.24589
  Beta  occ. eigenvalues --   -0.23363  -0.22926  -0.22460  -0.21594  -0.20695
  Beta  occ. eigenvalues --   -0.20614  -0.17846
  Beta virt. eigenvalues --    0.06662   0.07279   0.07679   0.08185   0.08937
  Beta virt. eigenvalues --    0.09044   0.09410   0.09669   0.10629   0.10733
  Beta virt. eigenvalues --    0.11465   0.11889   0.12134   0.12540   0.12595

 Mulliken charges and spin densities:
               1          2
     1  C    0.673465  -1.333840
     2  C   -0.919794   0.531152
     3  C    0.136241   1.047791
     4  C    1.156722  -1.641372
     5  C   -0.548039   0.018029
     6  C   -0.112508  -0.241499
     7  C    0.410905  -0.698484
     8  C   -0.737214   1.051010
     9  C   -0.166319  -0.468907
    10  C    0.360510  -1.001900
    11  C    0.540434  -1.460812
    12  O   -0.226256   0.060395
    13  O   -0.149638   0.104183
    14  H   -0.163084   0.302324
    15  H   -0.087397   0.219151
    16  H    0.057085   0.117986
    17  H   -0.157036   0.324356
    18  H    0.230819  -0.067372
    19  H   -0.332821   0.493192
    20  H   -0.049875   0.240331
    21  H   -0.036061   0.189613
    22  H    0.002383   0.179421
    23  H   -0.213543   0.387084
    24  H   -0.094032   0.258312
    25  H   -0.008792   0.173244
    26  H    0.006873   0.153396
    27  H    0.028993   0.142905
    28  H    0.278072  -0.097638
    29  H   -0.019839   0.149399
    30  H   -0.217069   0.359898
    31  H   -0.124880   0.260328
    32  H    0.026002   0.133821
    33  H   -0.231106   0.365431
    34  H    0.017196   0.106918
    35  H   -0.330398   0.642156
 Sum of Mulliken charges =  -1.00000   1.00000

 Dipole moment (field-independent basis, Debye):
    X=              0.1567    Y=             -1.0039    Z=             -2.4784  Tot=              2.6786
 Quadrupole moment (field-independent basis, Debye-Ang):
   XX=           -151.7049   YY=           -130.8754   ZZ=           -121.6749
   XY=             -6.6411   XZ=             -2.3654   YZ=             -0.2408

 Summary of Natural Population Analysis:

                                       Natural Population
                Natural  -----------------------------------------------
    Atom  No    Charge         Core      Valence    Rydberg      Total
 -----------------------------------------------------------------------
      C    1   -0.28749      0.99966     2.28275    0.00508     3.28749
      C    2   -0.19030      0.99961     2.18031    0.01038     3.19030
      C    3   -0.08270      0.99951     2.06871    0.01449     3.08270
      C    4   -0.28267      0.99963     2.27501    0.00803     3.28267
      C    5   -0.18348      0.99959     2.17344    0.01045     3.18348
      C    6   -0.19005      0.99962     2.18187    0.00856     3.19005
      C    7   -0.19303      0.99960     2.18566    0.00777     3.19303
      C    8   -0.12318      0.99961     2.11384    0.00973     3.12318
      C    9   -0.28429      0.99965     2.27864    0.00599     3.28429
      C   10   -0.28274      0.99965     2.27656    0.00652     3.28274
      C   11    0.41862      0.99962     1.55450    0.02725     2.58138
      O   12   -0.31029      0.99987     3.30455    0.00587     4.31029
      O   13   -0.34731      0.99988     3.33974    0.00770     4.34731
      H   14    0.09629      0.00000     0.40275    0.00096     0.40371
      H   15    0.09791      0.00000     0.40137    0.00072     0.40209
      H   16    0.10366      0.00000     0.39538    0.00096     0.39634
      H   17    0.09748      0.00000     0.40133    0.00118     0.40252
      H   18    0.10422      0.00000     0.39444    0.00134     0.39578
      H   19    0.10164      0.00000     0.39693    0.00143     0.39836
      H   20    0.10871      0.00000     0.38990    0.00139     0.39129
      H   21    0.10230      0.00000     0.39646    0.00125     0.39770
      H   22    0.10409      0.00000     0.39404    0.00187     0.39591
      H   23    0.10168      0.00000     0.39696    0.00135     0.39832
      H   24    0.09827      0.00000     0.40064    0.00109     0.40173
      H   25    0.09692      0.00000     0.40193    0.00115     0.40308
      H   26    0.09411      0.00000     0.40488    0.00101     0.40589
      H   27    0.10439      0.00000     0.39394    0.00168     0.39561
      H   28    0.09724      0.00000     0.39995    0.00281     0.40276
      H   29    0.09360      0.00000     0.40548    0.00092     0.40640
      H   30    0.09962      0.00000     0.39948    0.00090     0.40038
      H   31    0.09879      0.00000     0.40017    0.00104     0.40121
      H   32    0.10348      0.00000     0.39556    0.00097     0.39652
      H   33    0.09851      0.00000     0.40055    0.00094     0.40149
      H   34    0.09256      0.00000     0.40657    0.00087     0.40744
      H   35    0.24343      0.00000     0.24865    0.00792     0.25657
 =======================================================================
   * Total *   -0.00000     12.99550    38.84294    0.16156    52.00000

 Normal termination of Gaussian 16 at Wed Dec  9 23:53:20 2020.
