 Gaussian 16, Revision A.03,

 -----------------------------------------------------------
 # opt freq B3LYP/6-31G(d) empiricaldispersion=gd3bj scf=xqc
 -----------------------------------------------------------

 -------------------------------
 CID_146909856_JID_4625_neutraal
 -------------------------------
 Symbolic Z-matrix:
 Charge =  0 Multiplicity = 1

 SCF Done:  E(RB3LYP) =  -973.651317970     A.U. after   15 cycles
 SCF Done:  E(RB3LYP) =  -973.655633109     A.U. after   12 cycles
 SCF Done:  E(RB3LYP) =  -973.656551325     A.U. after   13 cycles
 SCF Done:  E(RB3LYP) =  -973.656640138     A.U. after   13 cycles
 SCF Done:  E(RB3LYP) =  -973.656881305     A.U. after   12 cycles
 SCF Done:  E(RB3LYP) =  -973.657159306     A.U. after   12 cycles
 SCF Done:  E(RB3LYP) =  -973.657237293     A.U. after   11 cycles
 SCF Done:  E(RB3LYP) =  -973.657273524     A.U. after   11 cycles
 SCF Done:  E(RB3LYP) =  -973.657299944     A.U. after   10 cycles
 SCF Done:  E(RB3LYP) =  -973.657342724     A.U. after   11 cycles
 SCF Done:  E(RB3LYP) =  -973.657352563     A.U. after   10 cycles
 SCF Done:  E(RB3LYP) =  -973.657354742     A.U. after   10 cycles
 SCF Done:  E(RB3LYP) =  -973.657355488     A.U. after   10 cycles
 SCF Done:  E(RB3LYP) =  -973.657355631     A.U. after    8 cycles
 SCF Done:  E(RB3LYP) =  -973.657355694     A.U. after    7 cycles
 Optimization completed.
    -- Stationary point found.
 Normal termination of Gaussian 16 at Thu Dec 10 10:17:47 2020.

 --------------------------------------------------------------------
 #N Geom=AllCheck Guess=TCheck SCRF=Check GenChk RB3LYP/6-31G(d) Freq
 --------------------------------------------------------------------

 Structure from the checkpoint file:  "JID_4625.chk"
 -------------------------------
 CID_146909856_JID_4625_neutraal
 -------------------------------
 Charge =  0 Multiplicity = 1

 SCF Done:  E(RB3LYP) =  -973.657355694     A.U. after    1 cycles

  Exact polarizability: 184.648 -15.759 129.746   6.698  11.484 101.443
 Approx polarizability: 245.503 -31.730 224.933  14.159  37.981 166.558

                      1                      2                      3
                      A                      A                      A
 Frequencies --     21.6569                31.0298                47.1372
 Red. masses --      4.1485                 4.5700                 3.3920
 Frc consts  --      0.0011                 0.0026                 0.0044
 IR Inten    --      0.6439                 0.0865                 0.8531

                      4                      5                      6
                      A                      A                      A
 Frequencies --     69.6800                95.0445               108.1803
 Red. masses --      2.8203                 2.5306                 3.5093
 Frc consts  --      0.0081                 0.0135                 0.0242
 IR Inten    --      1.9779                 1.8195                 0.2593

                      7                      8                      9
                      A                      A                      A
 Frequencies --    122.3329               127.1045               216.2627
 Red. masses --      1.4382                 2.5327                 1.5327
 Frc consts  --      0.0127                 0.0241                 0.0422
 IR Inten    --      0.0394                 0.1193                 2.7136

                     10                     11                     12
                      A                      A                      A
 Frequencies --    228.1346               238.1798               269.9047
 Red. masses --      1.4928                 1.4042                 4.1587
 Frc consts  --      0.0458                 0.0469                 0.1785
 IR Inten    --      1.8849                 1.6382                 1.9774

                     13                     14                     15
                      A                      A                      A
 Frequencies --    281.3857               288.3622               341.2708
 Red. masses --      3.3082                 2.3611                 4.5295
 Frc consts  --      0.1543                 0.1157                 0.3108
 IR Inten    --      3.2337                 3.4077                 4.5204

                     16                     17                     18
                      A                      A                      A
 Frequencies --    346.8689               400.4695               421.4158
 Red. masses --      2.6027                 3.0131                 3.8038
 Frc consts  --      0.1845                 0.2847                 0.3980
 IR Inten    --      4.3725                 3.8972                 4.9672

                     19                     20                     21
                      A                      A                      A
 Frequencies --    466.7865               480.9983               511.2630
 Red. masses --      2.7721                 4.5361                 3.3396
 Frc consts  --      0.3559                 0.6183                 0.5143
 IR Inten    --     11.0172                 5.3664                 7.6086

                     22                     23                     24
                      A                      A                      A
 Frequencies --    564.5070               589.3973               633.8214
 Red. masses --      3.1417                 5.2684                 5.2272
 Frc consts  --      0.5899                 1.0783                 1.2372
 IR Inten    --     11.6752                 3.3148                 2.1779

                     25                     26                     27
                      A                      A                      A
 Frequencies --    682.6080               729.0511               764.9061
 Red. masses --      6.6890                 3.3876                 4.3157
 Frc consts  --      1.8363                 1.0609                 1.4877
 IR Inten    --      1.8631                 8.6952                21.0277

                     28                     29                     30
                      A                      A                      A
 Frequencies --    777.9976               828.7840               834.4013
 Red. masses --      1.3947                 1.9733                 2.0662
 Frc consts  --      0.4974                 0.7986                 0.8475
 IR Inten    --      1.7802                52.5688                45.2597

                     31                     32                     33
                      A                      A                      A
 Frequencies --    876.5251               933.6775               987.0060
 Red. masses --      1.3309                 1.9255                 1.2471
 Frc consts  --      0.6025                 0.9890                 0.7158
 IR Inten    --      9.9988                32.4402                 6.2320

                     34                     35                     36
                      A                      A                      A
 Frequencies --    997.2222              1006.0680              1014.9074
 Red. masses --      4.2685                 1.6807                 1.7198
 Frc consts  --      2.5010                 1.0023                 1.0437
 IR Inten    --     97.9316                 3.5104                 3.4098

                     37                     38                     39
                      A                      A                      A
 Frequencies --   1021.3109              1059.4827              1070.4418
 Red. masses --      1.9085                 2.8252                 1.4137
 Frc consts  --      1.1729                 1.8685                 0.9544
 IR Inten    --     24.0981                 1.2349                 1.4169

                     40                     41                     42
                      A                      A                      A
 Frequencies --   1113.3137              1138.0973              1165.4388
 Red. masses --      4.5139                 2.1429                 2.0352
 Frc consts  --      3.2964                 1.6354                 1.6287
 IR Inten    --     89.3667                 2.1580                38.2948

                     43                     44                     45
                      A                      A                      A
 Frequencies --   1192.4436              1202.5825              1210.3884
 Red. masses --      2.6624                 2.8397                 2.0486
 Frc consts  --      2.2305                 2.4197                 1.7683
 IR Inten    --      4.3921                12.4602                16.6351

                     46                     47                     48
                      A                      A                      A
 Frequencies --   1264.2901              1291.7802              1309.3118
 Red. masses --      2.3479                 1.2264                 1.2384
 Frc consts  --      2.2112                 1.2057                 1.2509
 IR Inten    --     64.4560                 3.2443                 3.5105

                     49                     50                     51
                      A                      A                      A
 Frequencies --   1341.4579              1352.3386              1372.9918
 Red. masses --      2.5090                 1.2549                 1.4752
 Frc consts  --      2.6601                 1.3521                 1.6385
 IR Inten    --      0.4594                 7.5170                13.9389

                     52                     53                     54
                      A                      A                      A
 Frequencies --   1397.7706              1412.5856              1438.8480
 Red. masses --      1.3436                 1.4526                 1.3297
 Frc consts  --      1.5467                 1.7078                 1.6220
 IR Inten    --      1.8174                12.6526                15.4241

                     55                     56                     57
                      A                      A                      A
 Frequencies --   1442.0094              1445.1667              1474.9006
 Red. masses --      1.2328                 1.2371                 4.7489
 Frc consts  --      1.5104                 1.5223                 6.0865
 IR Inten    --      3.7547                 3.8620               163.4452

                     58                     59                     60
                      A                      A                      A
 Frequencies --   1486.4914              1507.0251              1513.5787
 Red. masses --      1.1517                 1.0418                 1.0680
 Frc consts  --      1.4994                 1.3941                 1.4415
 IR Inten    --     39.9185                 8.9453                 2.6259

                     61                     62                     63
                      A                      A                      A
 Frequencies --   1519.4354              1521.3257              1528.3851
 Red. masses --      1.1433                 1.1101                 1.0454
 Frc consts  --      1.5551                 1.5138                 1.4388
 IR Inten    --     18.4592                12.2412                 4.3934

                     64                     65                     66
                      A                      A                      A
 Frequencies --   1538.3145              1539.3955              1552.2106
 Red. masses --      1.0823                 1.0740                 1.1632
 Frc consts  --      1.5090                 1.4995                 1.6512
 IR Inten    --      7.8456                 7.9476                 3.0365

                     67                     68                     69
                      A                      A                      A
 Frequencies --   1573.5722              1783.8588              2953.5827
 Red. masses --      4.3829                11.9597                 1.0817
 Frc consts  --      6.3941                22.4229                 5.5598
 IR Inten    --      5.7092               141.5449                39.5999

                     70                     71                     72
                      A                      A                      A
 Frequencies --   3020.7259              3038.6483              3046.3943
 Red. masses --      1.0692                 1.0617                 1.0372
 Frc consts  --      5.7482                 5.7759                 5.6712
 IR Inten    --     35.3870                38.2019                27.8710

                     73                     74                     75
                      A                      A                      A
 Frequencies --   3051.0188              3052.9358              3073.3188
 Red. masses --      1.0377                 1.0360                 1.0999
 Frc consts  --      5.6914                 5.6889                 6.1211
 IR Inten    --     13.6760                23.3587                17.0385

                     76                     77                     78
                      A                      A                      A
 Frequencies --   3087.8810              3108.8241              3110.6798
 Red. masses --      1.0913                 1.1019                 1.1011
 Frc consts  --      6.1308                 6.2746                 6.2776
 IR Inten    --     15.4961                10.2904                38.7917

                     79                     80                     81
                      A                      A                      A
 Frequencies --   3115.2099              3118.7236              3135.5575
 Red. masses --      1.1027                 1.1023                 1.1017
 Frc consts  --      6.3050                 6.3170                 6.3817
 IR Inten    --     44.4719                42.6053                 9.3807

                     82                     83                     84
                      A                      A                      A
 Frequencies --   3138.1247              3224.5680              3490.2442
 Red. masses --      1.0996                 1.0935                 1.0729
 Frc consts  --      6.3800                 6.6992                 7.7003
 IR Inten    --     29.7954                12.0121                 1.3396

 - Thermochemistry -
 -------------------
 Temperature   298.150 Kelvin.  Pressure   1.00000 Atm.
 Atom     1 has atomic number  6 and mass  12.00000

 Molecular mass:   212.09834 amu.
 Principal axes and moments of inertia in atomic units:
                           1         2         3
     Eigenvalues --  1430.401946710.858917436.29939
           X            0.99999   0.00057  -0.00469
           Y           -0.00070   0.99960  -0.02834
           Z            0.00467   0.02835   0.99959
 This molecule is an asymmetric top.
 Rotational symmetry number  1.
 Warning -- assumption of classical behavior for rotation
           may cause significant error
 Rotational temperatures (Kelvin)      0.06055     0.01291     0.01165
 Rotational constants (GHZ):           1.26170     0.26893     0.24269
 Zero-point vibrational energy     663217.6 (Joules/Mol)
                                  158.51282 (Kcal/Mol)
 Warning -- explicit consideration of  23 degrees of freedom as
           vibrations may cause significant error
 Vibrational temperatures:     31.16    44.64    67.82   100.25   136.75
          (Kelvin)            155.65   176.01   182.88   311.15   328.23
                              342.69   388.33   404.85   414.89   491.01
                              499.07   576.19   606.32   671.60   692.05
                              735.59   812.20   848.01   911.93   982.12
                             1048.94  1100.53  1119.36  1192.44  1200.52
                             1261.12  1343.35  1420.08  1434.78  1447.51
                             1460.23  1469.44  1524.36  1540.13  1601.81
                             1637.47  1676.81  1715.66  1730.25  1741.48
                             1819.03  1858.58  1883.81  1930.06  1945.71
                             1975.43  2011.08  2032.40  2070.18  2074.73
                             2079.27  2122.05  2138.73  2168.27  2177.70
                             2186.13  2188.85  2199.01  2213.29  2214.85
                             2233.28  2264.02  2566.57  4249.55  4346.15
                             4371.94  4383.08  4389.74  4392.49  4421.82
                             4442.77  4472.90  4475.57  4482.09  4487.15
                             4511.37  4515.06  4639.43  5021.68

 Zero-point correction=                           0.252606 (Hartree/Particle)
 Thermal correction to Energy=                    0.268247
 Thermal correction to Enthalpy=                  0.269191
 Thermal correction to Gibbs Free Energy=         0.207526
 Sum of electronic and zero-point Energies=           -973.404749
 Sum of electronic and thermal Energies=              -973.389109
 Sum of electronic and thermal Enthalpies=            -973.388165
 Sum of electronic and thermal Free Energies=         -973.449829

                     E (Thermal)             CV                S
                      KCal/Mol        Cal/Mol-Kelvin    Cal/Mol-Kelvin
 Total                  168.327             56.359            129.784
 Electronic               0.000              0.000              0.000
 Translational            0.889              2.981             41.959
 Rotational               0.889              2.981             32.634
 Vibrational            166.550             50.397             55.190
 Vibration     1          0.593              1.985              6.476
 Vibration     2          0.594              1.983              5.762
 Vibration     3          0.595              1.979              4.934
 Vibration     4          0.598              1.969              4.162
 Vibration     5          0.603              1.953              3.553
 Vibration     6          0.606              1.943              3.301
 Vibration     7          0.610              1.930              3.063
 Vibration     8          0.611              1.926              2.989
 Vibration     9          0.645              1.816              1.990
 Vibration    10          0.651              1.798              1.894
 Vibration    11          0.656              1.782              1.816
 Vibration    12          0.674              1.729              1.597
 Vibration    13          0.681              1.708              1.525
 Vibration    14          0.685              1.695              1.484
 Vibration    15          0.721              1.593              1.206
 Vibration    16          0.725              1.582              1.180
 Vibration    17          0.766              1.469              0.961
 Vibration    18          0.784              1.424              0.887
 Vibration    19          0.824              1.324              0.747
 Vibration    20          0.837              1.292              0.707
 Vibration    21          0.866              1.225              0.631
 Vibration    22          0.920              1.108              0.515
 Vibration    23          0.947              1.054              0.468

 Optimization completed.
    -- Stationary point found.
 Normal termination of Gaussian 16 at Thu Dec 10 10:24:47 2020.

 ----------------------------------------------------------------------
 # B3LYP/6-311++G(d,p) empiricaldispersion=gd3bj scf=xqc pop=npa geom=c
 heck
 ----------------------------------------------------------------------

 ---------------------------------------
 CID_146909856_JID_4625_Energie_neutraal
 ---------------------------------------
 Structure from the checkpoint file:  "JID_4625.chk"
 Charge =  0 Multiplicity = 1

 SCF Done:  E(RB3LYP) =  -973.846829654     A.U. after   15 cycles
 Normal termination of Gaussian 16 at Thu Dec 10 10:27:56 2020.

 ----------------------------------------------------------------------
 # B3LYP/6-311++G(d,p) empiricaldispersion=gd3bj scf=xqc pop=npa geom=c
 heck
 ----------------------------------------------------------------------

 -------------------------------------
 CID_146909856_JID_4625_Energie_kation
 -------------------------------------
 Structure from the checkpoint file:  "JID_4625.chk"
 Charge =  1 Multiplicity = 2

 SCF Done:  E(UB3LYP) =  -973.540606965     A.U. after   27 cycles
 Normal termination of Gaussian 16 at Thu Dec 10 10:36:18 2020.
 Gaussian 16:  ES64L-G16RevA.03 25-Dec-2016

 ----------------------------------------------------------------------
 # B3LYP/6-311++G(d,p) empiricaldispersion=gd3bj scf=xqc pop=npa geom=c
 heck
 ----------------------------------------------------------------------

 ------------------------------------
 CID_146909856_JID_4625_Energie_anion
 ------------------------------------
 Structure from the checkpoint file:  "JID_4625.chk"
 Charge = -1 Multiplicity = 2

                         Standard orientation:
 ---------------------------------------------------------------------
 Center     Atomic      Atomic             Coordinates (Angstroms)
 Number     Number       Type             X           Y           Z
 ---------------------------------------------------------------------
      1          6           0        3.945880    2.057444   -1.094438
      2          6           0        3.382077    1.377073    0.155670
      3          6           0        2.965328   -0.085909   -0.063725
      4          6           0        4.165454   -1.000225   -0.304465
      5          7           0        2.241536   -0.573432    1.128541
      6          6           0        0.834855   -0.231680    1.134085
      7          6           0       -0.010659   -1.086706    0.177584
      8          8           0        0.442495   -2.096095   -0.330433
      9          6           0       -1.420108   -0.674072   -0.070635
     10          7           0       -2.280908   -1.375401   -0.759667
     11          6           0       -3.494282   -0.755000   -0.818641
     12          6           0       -3.608355    0.453189   -0.171400
     13         16           0       -2.083946    0.839542    0.564196
     14          6           0       -4.807138    1.343053   -0.075548
     15          1           0        4.874786    1.585925   -1.432782
     16          1           0        4.165660    3.113080   -0.901297
     17          1           0        3.230347    2.012722   -1.924934
     18          1           0        4.111179    1.407870    0.975285
     19          1           0        2.511004    1.947302    0.504833
     20          1           0        2.321745   -0.131230   -0.961046
     21          1           0        4.811309   -1.017998    0.581529
     22          1           0        3.831837   -2.023335   -0.512401
     23          1           0        4.759778   -0.664001   -1.158619
     24          1           0        2.298306   -1.590892    1.134180
     25          1           0        0.417684   -0.366044    2.144093
     26          1           0        0.709226    0.831719    0.899672
     27          1           0       -4.305853   -1.226687   -1.362481
     28          1           0       -5.643841    0.892122   -0.617274
     29          1           0       -5.118158    1.493714    0.964515
     30          1           0       -4.614542    2.330659   -0.509977
 ---------------------------------------------------------------------

 SCF Done:  E(UB3LYP) =  -973.873103512     A.U. after   21 cycles

 The electronic state is 2-A.
 Alpha  occ. eigenvalues --  -88.71442 -18.92223 -14.17130 -14.13739 -10.08452
 Alpha  occ. eigenvalues --  -10.06946 -10.06726 -10.06196 -10.06004 -10.05734
 Alpha  occ. eigenvalues --  -10.05732 -10.05239 -10.04817 -10.04755  -7.80163
 Alpha  occ. eigenvalues --   -5.76428  -5.76102  -5.75798  -0.86748  -0.79695
 Alpha  occ. eigenvalues --   -0.78433  -0.68064  -0.66342  -0.62685  -0.60990
 Alpha  occ. eigenvalues --   -0.56838  -0.54807  -0.53554  -0.46511  -0.44871
 Alpha  occ. eigenvalues --   -0.41317  -0.37446  -0.36503  -0.36136  -0.34509
 Alpha  occ. eigenvalues --   -0.33273  -0.32653  -0.31007  -0.29903  -0.29688
 Alpha  occ. eigenvalues --   -0.28344  -0.28006  -0.27448  -0.26568  -0.25946
 Alpha  occ. eigenvalues --   -0.25253  -0.24088  -0.23659  -0.22254  -0.21898
 Alpha  occ. eigenvalues --   -0.20544  -0.19945  -0.13111  -0.11650  -0.11278
 Alpha  occ. eigenvalues --   -0.09582  -0.08216   0.03682
 Alpha virt. eigenvalues --    0.07120   0.08082   0.08993   0.09622   0.10640
 Alpha virt. eigenvalues --    0.10845   0.11462   0.11937   0.12262   0.12822
 Alpha virt. eigenvalues --    0.12862   0.13412   0.14641   0.15207   0.15393

  Beta  occ. eigenvalues --  -88.71381 -18.91662 -14.17129 -14.13372 -10.08452
  Beta  occ. eigenvalues --  -10.06946 -10.06431 -10.06195 -10.06032 -10.05762
  Beta  occ. eigenvalues --  -10.05734 -10.05030 -10.04919 -10.04433  -7.80108
  Beta  occ. eigenvalues --   -5.76404  -5.76078  -5.75590  -0.85783  -0.79195
  Beta  occ. eigenvalues --   -0.78367  -0.68047  -0.65840  -0.62604  -0.60641
  Beta  occ. eigenvalues --   -0.56498  -0.54768  -0.53502  -0.46248  -0.44365
  Beta  occ. eigenvalues --   -0.40978  -0.37297  -0.36489  -0.35924  -0.34352
  Beta  occ. eigenvalues --   -0.33047  -0.32592  -0.30609  -0.29701  -0.29580
  Beta  occ. eigenvalues --   -0.28063  -0.27862  -0.27186  -0.26257  -0.25829
  Beta  occ. eigenvalues --   -0.24681  -0.23687  -0.23193  -0.22127  -0.21808
  Beta  occ. eigenvalues --   -0.20158  -0.17792  -0.11748  -0.11447  -0.10802
  Beta  occ. eigenvalues --   -0.07840  -0.07725
  Beta virt. eigenvalues --    0.07092   0.08027   0.08950   0.09574   0.10042
  Beta virt. eigenvalues --    0.10609   0.10824   0.11939   0.12061   0.12291
  Beta virt. eigenvalues --    0.12776   0.12846   0.13393   0.14639   0.15188

 Mulliken charges and spin densities:
               1          2
     1  C   -0.653261  -0.003385
     2  C    0.050735   0.003636
     3  C   -0.303218  -0.013374
     4  C   -0.603585   0.003789
     5  N    0.067060  -0.003842
     6  C   -0.113704  -0.058513
     7  C   -0.121026   0.216098
     8  O   -0.355834   0.199475
     9  C   -0.096151   0.104650
    10  N   -0.048925   0.180470
    11  C   -0.040474  -0.069786
    12  C    0.344409   0.187243
    13  S   -0.551583   0.133574
    14  C   -0.557843  -0.036238
    15  H    0.116696  -0.000977
    16  H    0.118874   0.004729
    17  H    0.141501  -0.000134
    18  H    0.129533  -0.000049
    19  H    0.130927   0.006376
    20  H    0.158266  -0.004020
    21  H    0.136128   0.000275
    22  H    0.155566  -0.000325
    23  H    0.111530  -0.000251
    24  H    0.221539  -0.002234
    25  H    0.106469   0.078992
    26  H   -0.007629   0.000076
    27  H    0.116874   0.005128
    28  H    0.133417   0.000282
    29  H    0.106080   0.039226
    30  H    0.107630   0.029110
 Sum of Mulliken charges =  -1.00000   1.00000

 Dipole moment (field-independent basis, Debye):
    X=              3.2591    Y=              4.5419    Z=              0.3294  Tot=              5.5999
 Quadrupole moment (field-independent basis, Debye-Ang):
   XX=           -124.1462   YY=           -116.2977   ZZ=           -106.3301
   XY=             -1.5940   XZ=             -3.0111   YZ=             -5.0944

 Summary of Natural Population Analysis:

                                       Natural Population
                Natural  -----------------------------------------------
    Atom  No    Charge         Core      Valence    Rydberg      Total
 -----------------------------------------------------------------------
      C    1   -0.28723      0.99967     2.28348    0.00408     3.28723
      C    2   -0.19213      0.99962     2.18458    0.00793     3.19213
      C    3   -0.01294      0.99960     2.00206    0.01128     3.01294
      C    4   -0.28967      0.99965     2.28524    0.00478     3.28967
      N    5   -0.34689      0.99973     2.83279    0.01437     3.84689
      C    6   -0.13100      0.99960     2.12190    0.00949     3.13100
      C    7    0.27610      0.99960     1.70279    0.02151     2.72390
      O    8   -0.24048      0.99988     3.23333    0.00728     4.24048
      C    9    0.02644      0.99957     1.95651    0.01748     2.97356
      N   10   -0.17365      0.99964     2.66116    0.01285     3.67365
      C   11   -0.05879      0.99948     2.04387    0.01545     3.05879
      C   12   -0.06273      0.99953     2.05200    0.01120     3.06273
      S   13    0.17495      4.99941     2.80509    0.02055     7.82505
      C   14   -0.29723      0.99963     2.29256    0.00504     3.29723
      H   15    0.09179      0.00000     0.40726    0.00096     0.40821
      H   16    0.09416      0.00000     0.40494    0.00090     0.40584
      H   17    0.09742      0.00000     0.40160    0.00098     0.40258
      H   18    0.09201      0.00000     0.40672    0.00127     0.40799
      H   19    0.09854      0.00000     0.40032    0.00114     0.40146
      H   20    0.08668      0.00000     0.41085    0.00247     0.41332
      H   21    0.09434      0.00000     0.40458    0.00108     0.40566
      H   22    0.10441      0.00000     0.39456    0.00103     0.39559
      H   23    0.09471      0.00000     0.40455    0.00075     0.40529
      H   24    0.17920      0.00000     0.31827    0.00253     0.32080
      H   25    0.09991      0.00000     0.39727    0.00282     0.40009
      H   26    0.09670      0.00000     0.40205    0.00124     0.40330
      H   27    0.08670      0.00000     0.41210    0.00120     0.41330
      H   28    0.09862      0.00000     0.40038    0.00100     0.40138
      H   29    0.10015      0.00000     0.39868    0.00116     0.39985
      H   30    0.09992      0.00000     0.39892    0.00116     0.40008
 =======================================================================
   * Total *    0.00000     17.99460    38.82043    0.18496    57.00000

 Normal termination of Gaussian 16 at Thu Dec 10 10:41:57 2020.
