 Gaussian 16, Revision A.03,

 -----------------------------------------------------------
 # opt freq B3LYP/6-31G(d) empiricaldispersion=gd3bj scf=xqc
 -----------------------------------------------------------

 ------------------------------
 CID_65635786_JID_4283_neutraal
 ------------------------------
 Symbolic Z-matrix:
 Charge =  0 Multiplicity = 1

 SCF Done:  E(RB3LYP) =  -651.886457292     A.U. after   14 cycles
 SCF Done:  E(RB3LYP) =  -651.891463685     A.U. after   12 cycles
 SCF Done:  E(RB3LYP) =  -651.891052142     A.U. after   13 cycles
 SCF Done:  E(RB3LYP) =  -651.892293094     A.U. after   12 cycles
 SCF Done:  E(RB3LYP) =  -651.892632868     A.U. after   11 cycles
 SCF Done:  E(RB3LYP) =  -651.892684277     A.U. after   10 cycles
 SCF Done:  E(RB3LYP) =  -651.892718651     A.U. after   10 cycles
 SCF Done:  E(RB3LYP) =  -651.892740433     A.U. after   10 cycles
 SCF Done:  E(RB3LYP) =  -651.892772276     A.U. after   10 cycles
 SCF Done:  E(RB3LYP) =  -651.892836318     A.U. after   11 cycles
 SCF Done:  E(RB3LYP) =  -651.892890709     A.U. after   10 cycles
 SCF Done:  E(RB3LYP) =  -651.892892600     A.U. after   10 cycles
 SCF Done:  E(RB3LYP) =  -651.892894336     A.U. after    9 cycles
 SCF Done:  E(RB3LYP) =  -651.892894910     A.U. after    9 cycles
 SCF Done:  E(RB3LYP) =  -651.892894988     A.U. after    8 cycles
 Optimization completed.
    -- Stationary point found.
 Normal termination of Gaussian 16 at Thu Dec 10 09:29:29 2020.

 --------------------------------------------------------------------
 #N Geom=AllCheck Guess=TCheck SCRF=Check GenChk RB3LYP/6-31G(d) Freq
 --------------------------------------------------------------------

 Structure from the checkpoint file:  "JID_4283.chk"
 ------------------------------
 CID_65635786_JID_4283_neutraal
 ------------------------------
 Charge =  0 Multiplicity = 1

 SCF Done:  E(RB3LYP) =  -651.892894988     A.U. after    1 cycles

  Exact polarizability: 126.106   2.445 120.597  -1.816  -2.949 105.640
 Approx polarizability: 161.329   0.345 171.985  -3.269  -0.066 166.248

                      1                      2                      3
                      A                      A                      A
 Frequencies --     22.0091                41.8516                51.3771
 Red. masses --      4.6452                 2.5016                 3.6768
 Frc consts  --      0.0013                 0.0026                 0.0057
 IR Inten    --      1.1936                 0.2802                 0.2428

                      4                      5                      6
                      A                      A                      A
 Frequencies --     82.5584               131.1038               157.5497
 Red. masses --      3.5304                 3.3398                 3.7584
 Frc consts  --      0.0142                 0.0338                 0.0550
 IR Inten    --      0.2381                 0.1916                 1.1132

                      7                      8                      9
                      A                      A                      A
 Frequencies --    195.2136               224.5920               258.7556
 Red. masses --      2.3478                 2.5755                 3.3583
 Frc consts  --      0.0527                 0.0765                 0.1325
 IR Inten    --      0.2753                 0.7767                 3.3394

                     10                     11                     12
                      A                      A                      A
 Frequencies --    291.1669               331.5616               356.1395
 Red. masses --      3.2295                 3.6257                 1.9679
 Frc consts  --      0.1613                 0.2348                 0.1471
 IR Inten    --      0.3221                 7.8906                 2.2886

                     13                     14                     15
                      A                      A                      A
 Frequencies --    401.1700               464.6863               482.6907
 Red. masses --      3.5619                 4.3946                 2.4893
 Frc consts  --      0.3377                 0.5591                 0.3417
 IR Inten    --      3.2969                 3.9490                 0.9601

                     16                     17                     18
                      A                      A                      A
 Frequencies --    514.9690               542.4004               587.3469
 Red. masses --      3.6567                 2.3269                 2.2945
 Frc consts  --      0.5713                 0.4033                 0.4664
 IR Inten    --      1.0725                 5.8431                18.2755

                     19                     20                     21
                      A                      A                      A
 Frequencies --    612.4012               628.0677               667.6679
 Red. masses --      2.5250                 1.7317                 1.9453
 Frc consts  --      0.5579                 0.4025                 0.5109
 IR Inten    --      5.0130                49.7993                33.1076

                     22                     23                     24
                      A                      A                      A
 Frequencies --    752.9752               785.7803               806.7959
 Red. masses --      3.1301                 1.2310                 2.3296
 Frc consts  --      1.0456                 0.4478                 0.8934
 IR Inten    --     65.3044                 3.4956                14.5890

                     25                     26                     27
                      A                      A                      A
 Frequencies --    813.2156               836.9299               859.6090
 Red. masses --      2.1933                 1.7990                 2.3317
 Frc consts  --      0.8546                 0.7424                 1.0151
 IR Inten    --    144.6451                37.1589                 5.7424

                     28                     29                     30
                      A                      A                      A
 Frequencies --    887.8040               901.2535               915.6583
 Red. masses --      2.7506                 2.3680                 2.2326
 Frc consts  --      1.2774                 1.1333                 1.1029
 IR Inten    --      4.9517                 0.0966                 7.7802

                     31                     32                     33
                      A                      A                      A
 Frequencies --    952.8138               963.1953               985.6080
 Red. masses --      2.5509                 1.9311                 1.5329
 Frc consts  --      1.3644                 1.0556                 0.8773
 IR Inten    --      6.3883                 5.3949                 1.2065

                     34                     35                     36
                      A                      A                      A
 Frequencies --    995.7271              1007.0566              1037.8815
 Red. masses --      2.2716                 1.4753                 2.6563
 Frc consts  --      1.3269                 0.8815                 1.6859
 IR Inten    --      0.3244                 0.6542                13.3721

                     37                     38                     39
                      A                      A                      A
 Frequencies --   1045.2883              1053.0868              1104.8723
 Red. masses --      1.9399                 2.2107                 3.4330
 Frc consts  --      1.2488                 1.4445                 2.4692
 IR Inten    --     27.1574                 2.4267                 4.2168

                     40                     41                     42
                      A                      A                      A
 Frequencies --   1126.1253              1144.6612              1152.3741
 Red. masses --      2.4058                 3.0803                 3.0995
 Frc consts  --      1.7976                 2.3779                 2.4251
 IR Inten    --     24.9782                42.2815                23.4910

                     43                     44                     45
                      A                      A                      A
 Frequencies --   1204.8997              1206.1391              1213.6689
 Red. masses --      1.8696                 2.2046                 1.3948
 Frc consts  --      1.5992                 1.8897                 1.2105
 IR Inten    --     37.8146               180.9807                 7.3144

                     46                     47                     48
                      A                      A                      A
 Frequencies --   1224.9536              1235.1465              1249.0426
 Red. masses --      1.6126                 1.3892                 1.6846
 Frc consts  --      1.4257                 1.2487                 1.5485
 IR Inten    --      5.3138                33.2109                 0.2949

                     49                     50                     51
                      A                      A                      A
 Frequencies --   1296.3329              1301.5256              1313.3677
 Red. masses --      1.1530                 1.3762                 1.2716
 Frc consts  --      1.1416                 1.3735                 1.2923
 IR Inten    --      2.8223                 0.2247                 8.3584

                     52                     53                     54
                      A                      A                      A
 Frequencies --   1328.4581              1335.6906              1346.9261
 Red. masses --      1.3709                 1.2406                 1.2818
 Frc consts  --      1.4255                 1.3041                 1.3701
 IR Inten    --     11.8782                 1.7315                 3.9554

                     55                     56                     57
                      A                      A                      A
 Frequencies --   1355.4171              1361.9873              1364.0033
 Red. masses --      1.4344                 1.4162                 1.3519
 Frc consts  --      1.5526                 1.5478                 1.4819
 IR Inten    --      2.4953                 4.1344                 2.2878

                     58                     59                     60
                      A                      A                      A
 Frequencies --   1372.0220              1389.7676              1404.7408
 Red. masses --      2.0015                 1.2643                 1.3701
 Frc consts  --      2.2198                 1.4387                 1.5930
 IR Inten    --     25.1054                10.2036                17.7942

                     61                     62                     63
                      A                      A                      A
 Frequencies --   1415.1148              1419.3784              1461.7656
 Red. masses --      1.6161                 1.2439                 1.3034
 Frc consts  --      1.9067                 1.4765                 1.6409
 IR Inten    --      0.4781                 0.4192                11.7463

                     64                     65                     66
                      A                      A                      A
 Frequencies --   1495.6934              1502.6267              1508.9127
 Red. masses --      1.0958                 1.0917                 1.1349
 Frc consts  --      1.4443                 1.4523                 1.5225
 IR Inten    --      2.2122                 5.8525                 8.6664

                     67                     68                     69
                      A                      A                      A
 Frequencies --   1513.0808              1517.3742              1521.3040
 Red. masses --      1.1346                 1.0841                 1.0977
 Frc consts  --      1.5305                 1.4707                 1.4968
 IR Inten    --      4.9532                 0.9353                 0.0353

                     70                     71                     72
                      A                      A                      A
 Frequencies --   1527.2477              1548.9219              1852.3200
 Red. masses --      1.0892                 1.1062                 9.8669
 Frc consts  --      1.4969                 1.5636                19.9464
 IR Inten    --      3.9556                 3.1927               249.2914

                     73                     74                     75
                      A                      A                      A
 Frequencies --   2995.4412              3000.8363              3045.2618
 Red. masses --      1.0740                 1.0813                 1.0693
 Frc consts  --      5.6779                 5.7370                 5.8425
 IR Inten    --     27.5177                60.1609                21.4958

                     76                     77                     78
                      A                      A                      A
 Frequencies --   3049.9232              3056.2360              3060.2978
 Red. masses --      1.0619                 1.0619                 1.0646
 Frc consts  --      5.8198                 5.8437                 5.8746
 IR Inten    --     20.2795                58.6924                39.1916

                     79                     80                     81
                      A                      A                      A
 Frequencies --   3063.2894              3072.2763              3077.9413
 Red. masses --      1.0622                 1.0801                 1.0661
 Frc consts  --      5.8728                 6.0067                 5.9506
 IR Inten    --     25.8944                23.1244                35.2761

                     82                     83                     84
                      A                      A                      A
 Frequencies --   3095.2353              3098.6886              3103.9317
 Red. masses --      1.0962                 1.0951                 1.0982
 Frc consts  --      6.1875                 6.1951                 6.2337
 IR Inten    --     19.9210                39.9099                23.9544

                     85                     86                     87
                      A                      A                      A
 Frequencies --   3106.2037              3110.8359              3116.3076
 Red. masses --      1.1014                 1.1042                 1.1032
 Frc consts  --      6.2613                 6.2956                 6.3124
 IR Inten    --     11.2681                64.5541                18.7119

                     88                     89                     90
                      A                      A                      A
 Frequencies --   3125.1195              3453.0760              3677.8402
 Red. masses --      1.1038                 1.0735                 1.0639
 Frc consts  --      6.3512                 7.5415                 8.4790
 IR Inten    --     77.9440                 4.4128                50.5857

 - Thermochemistry -
 -------------------
 Temperature   298.150 Kelvin.  Pressure   1.00000 Atm.
 Atom     1 has atomic number  6 and mass  12.00000

 Molecular mass:   198.13683 amu.
 Principal axes and moments of inertia in atomic units:
                           1         2         3
     Eigenvalues --  2126.297103052.022614054.63153
           X            0.99940   0.03449  -0.00155
           Y           -0.03452   0.99913  -0.02330
           Z            0.00075   0.02334   0.99973
 This molecule is an asymmetric top.
 Rotational symmetry number  1.
 Warning -- assumption of classical behavior for rotation
           may cause significant error
 Rotational temperatures (Kelvin)      0.04073     0.02838     0.02136
 Rotational constants (GHZ):           0.84877     0.59133     0.44511
 Zero-point vibrational energy     749284.4 (Joules/Mol)
                                  179.08326 (Kcal/Mol)
 Warning -- explicit consideration of  19 degrees of freedom as
           vibrations may cause significant error
 Vibrational temperatures:     31.67    60.22    73.92   118.78   188.63
          (Kelvin)            226.68   280.87   323.14   372.29   418.92
                              477.04   512.41   577.19   668.58   694.48
                              740.93   780.39   845.06   881.11   903.65
                              960.63  1083.36  1130.56  1160.80  1170.04
                             1204.16  1236.79  1277.35  1296.70  1317.43
                             1370.89  1385.82  1418.07  1432.63  1448.93
                             1493.28  1503.94  1515.16  1589.66  1620.24
                             1646.91  1658.01  1733.58  1735.37  1746.20
                             1762.44  1777.10  1797.09  1865.13  1872.61
                             1889.64  1911.35  1921.76  1937.93  1950.14
                             1959.60  1962.50  1974.03  1999.57  2021.11
                             2036.03  2042.17  2103.15  2151.97  2161.94
                             2170.99  2176.99  2183.16  2188.82  2197.37
                             2228.55  2665.08  4309.77  4317.53  4381.45
                             4388.16  4397.24  4403.09  4407.39  4420.32
                             4428.47  4453.35  4458.32  4465.87  4469.13
                             4475.80  4483.67  4496.35  4968.21  5291.59

 Zero-point correction=                           0.285387 (Hartree/Particle)
 Thermal correction to Energy=                    0.298665
 Thermal correction to Enthalpy=                  0.299609
 Thermal correction to Gibbs Free Energy=         0.243918
 Sum of electronic and zero-point Energies=           -651.607508
 Sum of electronic and thermal Energies=              -651.594230
 Sum of electronic and thermal Enthalpies=            -651.593286
 Sum of electronic and thermal Free Energies=         -651.648977

                     E (Thermal)             CV                S
                      KCal/Mol        Cal/Mol-Kelvin    Cal/Mol-Kelvin
 Total                  187.415             51.198            117.212
 Electronic               0.000              0.000              0.000
 Translational            0.889              2.981             41.756
 Rotational               0.889              2.981             31.643
 Vibrational            185.638             45.236             43.813
 Vibration     1          0.593              1.985              6.444
 Vibration     2          0.594              1.980              5.169
 Vibration     3          0.596              1.977              4.764
 Vibration     4          0.600              1.961              3.829
 Vibration     5          0.612              1.922              2.930
 Vibration     6          0.621              1.894              2.579
 Vibration     7          0.636              1.847              2.178
 Vibration     8          0.649              1.804              1.922
 Vibration     9          0.668              1.748              1.670
 Vibration    10          0.687              1.690              1.467
 Vibration    11          0.714              1.612              1.252
 Vibration    12          0.732              1.563              1.139
 Vibration    13          0.767              1.468              0.958
 Vibration    14          0.822              1.328              0.753
 Vibration    15          0.839              1.288              0.703
 Vibration    16          0.870              1.217              0.622
 Vibration    17          0.898              1.156              0.560
 Vibration    18          0.944              1.059              0.472
 Vibration    19          0.972              1.006              0.429

 Optimization completed.
    -- Stationary point found.
 Normal termination of Gaussian 16 at Thu Dec 10 09:40:50 2020.

 ----------------------------------------------------------------------
 # B3LYP/6-311++G(d,p) empiricaldispersion=gd3bj scf=xqc pop=npa geom=c
 heck
 ----------------------------------------------------------------------

 --------------------------------------
 CID_65635786_JID_4283_Energie_neutraal
 --------------------------------------
 Structure from the checkpoint file:  "JID_4283.chk"
 Charge =  0 Multiplicity = 1

 SCF Done:  E(RB3LYP) =  -652.087114089     A.U. after   14 cycles
 Normal termination of Gaussian 16 at Thu Dec 10 09:45:51 2020.

 ----------------------------------------------------------------------
 # B3LYP/6-311++G(d,p) empiricaldispersion=gd3bj scf=xqc pop=npa geom=c
 heck
 ----------------------------------------------------------------------

 ------------------------------------
 CID_65635786_JID_4283_Energie_kation
 ------------------------------------
 Structure from the checkpoint file:  "JID_4283.chk"
 Charge =  1 Multiplicity = 2

 SCF Done:  E(UB3LYP) =  -651.819610657     A.U. after   20 cycles
 Normal termination of Gaussian 16 at Thu Dec 10 09:55:55 2020.
 Gaussian 16:  ES64L-G16RevA.03 25-Dec-2016

 ----------------------------------------------------------------------
 # B3LYP/6-311++G(d,p) empiricaldispersion=gd3bj scf=xqc pop=npa geom=c
 heck
 ----------------------------------------------------------------------

 -----------------------------------
 CID_65635786_JID_4283_Energie_anion
 -----------------------------------
 Structure from the checkpoint file:  "JID_4283.chk"
 Charge = -1 Multiplicity = 2

                         Standard orientation:
 ---------------------------------------------------------------------
 Center     Atomic      Atomic             Coordinates (Angstroms)
 Number     Number       Type             X           Y           Z
 ---------------------------------------------------------------------
      1          6           0       -2.941281   -0.161581    1.218760
      2          6           0       -3.488204   -0.112643   -0.231267
      3          6           0       -2.240316   -0.123254   -1.154240
      4          6           0       -1.015804   -0.204010   -0.207744
      5          6           0       -1.530586    0.427376    1.106893
      6          7           0        0.214954    0.274725   -0.832586
      7          6           0        0.344285    1.710919   -1.074193
      8          6           0        1.005226    2.485852    0.080903
      9          7           0        2.271449    1.894856    0.527552
     10          6           0        2.115853    0.465290    0.807130
     11          6           0        1.496242   -0.288334   -0.389029
     12          6           0        1.384610   -1.794467   -0.187700
     13          8           0        1.371290   -2.615782   -1.074582
     14          8           0        1.309730   -2.142018    1.124192
     15          1           0       -2.875041   -1.202098    1.562117
     16          1           0       -3.579239    0.371912    1.930601
     17          1           0       -4.165229   -0.947739   -0.436120
     18          1           0       -4.066530    0.805369   -0.383217
     19          1           0       -2.193823    0.792283   -1.752654
     20          1           0       -2.231901   -0.957599   -1.861164
     21          1           0       -0.858815   -1.266046    0.006579
     22          1           0       -1.590484    1.518208    1.005450
     23          1           0       -0.891339    0.202572    1.966662
     24          1           0        0.958397    1.846315   -1.979152
     25          1           0       -0.643926    2.125152   -1.297260
     26          1           0        0.334875    2.515595    0.947194
     27          1           0        1.192046    3.523382   -0.221673
     28          1           0        2.965458    2.008238   -0.212752
     29          1           0        1.477758    0.352838    1.689540
     30          1           0        3.096972    0.046259    1.058358
     31          1           0        2.187397   -0.173871   -1.239046
     32          1           0        1.250286   -3.116325    1.137814
 ---------------------------------------------------------------------

 SCF Done:  E(UB3LYP) =  -652.074655685     A.U. after   33 cycles
 SCF Done:  E(UB3LYP) =  -652.074655685     a.u. after    1 cycles

 The electronic state is 2-A.
 Alpha  occ. eigenvalues --  -19.07191 -19.01955 -14.20837 -14.20268 -10.20953
 Alpha  occ. eigenvalues --  -10.11504 -10.09966 -10.09471 -10.09387 -10.09184
 Alpha  occ. eigenvalues --  -10.06717 -10.06641 -10.06257 -10.06245  -1.01314
 Alpha  occ. eigenvalues --   -0.92417  -0.84674  -0.79646  -0.72990  -0.67895
 Alpha  occ. eigenvalues --   -0.62384  -0.61163  -0.57883  -0.55868  -0.51298
 Alpha  occ. eigenvalues --   -0.50188  -0.47412  -0.45410  -0.42101  -0.39827
 Alpha  occ. eigenvalues --   -0.39553  -0.38512  -0.37002  -0.36207  -0.35006
 Alpha  occ. eigenvalues --   -0.34502  -0.32743  -0.32401  -0.31971  -0.29981
 Alpha  occ. eigenvalues --   -0.29507  -0.27947  -0.26307  -0.26037  -0.25580
 Alpha  occ. eigenvalues --   -0.24548  -0.24083  -0.23682  -0.22821  -0.22601
 Alpha  occ. eigenvalues --   -0.21627  -0.18932  -0.15239  -0.09765   0.04327
 Alpha virt. eigenvalues --    0.06204   0.06518   0.07990   0.08306   0.08690
 Alpha virt. eigenvalues --    0.08852   0.09537   0.10143   0.10993   0.11231
 Alpha virt. eigenvalues --    0.11487   0.12160   0.12743   0.13206   0.13859

  Beta  occ. eigenvalues --  -19.07135 -19.01937 -14.20829 -14.20253 -10.20947
  Beta  occ. eigenvalues --  -10.11487 -10.09957 -10.09446 -10.09373 -10.09168
  Beta  occ. eigenvalues --  -10.06701 -10.06621 -10.06246 -10.06234  -1.01239
  Beta  occ. eigenvalues --   -0.92352  -0.84652  -0.79616  -0.72967  -0.67854
  Beta  occ. eigenvalues --   -0.62348  -0.61131  -0.57824  -0.55823  -0.51205
  Beta  occ. eigenvalues --   -0.50134  -0.47356  -0.45362  -0.42066  -0.39792
  Beta  occ. eigenvalues --   -0.39506  -0.38471  -0.36970  -0.36163  -0.34978
  Beta  occ. eigenvalues --   -0.34460  -0.32703  -0.32362  -0.31944  -0.29949
  Beta  occ. eigenvalues --   -0.29468  -0.27917  -0.26277  -0.25997  -0.25551
  Beta  occ. eigenvalues --   -0.24517  -0.24053  -0.23651  -0.22778  -0.22567
  Beta  occ. eigenvalues --   -0.21597  -0.18879  -0.15204  -0.09719
  Beta virt. eigenvalues --    0.06536   0.07156   0.07589   0.08388   0.08519
  Beta virt. eigenvalues --    0.09172   0.09368   0.09765   0.10348   0.11151
  Beta virt. eigenvalues --    0.11749   0.11951   0.12277   0.12985   0.13481

 Mulliken charges and spin densities:
               1          2
     1  C    0.911376  -1.528864
     2  C   -0.206222  -0.128828
     3  C    0.837071  -1.200502
     4  C   -1.768681   1.087516
     5  C   -0.324549   0.402716
     6  N    0.469728  -0.023753
     7  C    0.698720  -0.791938
     8  C   -0.158625  -0.303241
     9  N   -0.077959   0.021595
    10  C    0.507321  -1.153281
    11  C   -0.631430   0.874432
    12  C    0.440786  -0.852489
    13  O   -0.241947   0.025535
    14  O   -0.156152   0.078435
    15  H   -0.144893   0.294504
    16  H   -0.131233   0.295558
    17  H   -0.025910   0.163267
    18  H   -0.098226   0.230099
    19  H    0.018752   0.088799
    20  H    0.093429   0.085855
    21  H    0.122583   0.112096
    22  H    0.121212  -0.018694
    23  H   -0.019922   0.161750
    24  H   -0.096658   0.283429
    25  H   -0.187378   0.311243
    26  H    0.031683   0.143484
    27  H   -0.512064   0.693983
    28  H    0.071478   0.157051
    29  H    0.220214   0.018541
    30  H   -0.201018   0.378949
    31  H   -0.142258   0.373578
    32  H   -0.419227   0.719176
 Sum of Mulliken charges =  -1.00000   1.00000

 Dipole moment (field-independent basis, Debye):
    X=             -1.1182    Y=              1.5141    Z=             -0.5488  Tot=              1.9606
 Quadrupole moment (field-independent basis, Debye-Ang):
   XX=           -137.0739   YY=           -146.1743   ZZ=           -123.1090
   XY=              0.2775   XZ=              1.0591   YZ=              5.5174

 Summary of Natural Population Analysis:

                                       Natural Population
                Natural  -----------------------------------------------
    Atom  No    Charge         Core      Valence    Rydberg      Total
 -----------------------------------------------------------------------
      C    1   -0.18932      0.99964     2.18297    0.00672     3.18932
      C    2   -0.19248      0.99965     2.18615    0.00669     3.19248
      C    3   -0.19109      0.99962     2.18366    0.00782     3.19109
      C    4   -0.00306      0.99955     1.98951    0.01400     3.00306
      C    5   -0.20226      0.99961     2.19353    0.00913     3.20226
      N    6   -0.27664      0.99970     2.76215    0.01479     3.77664
      C    7   -0.09498      0.99960     2.08297    0.01241     3.09498
      C    8   -0.09860      0.99962     2.08781    0.01117     3.09860
      N    9   -0.33428      0.99976     2.82169    0.01283     3.83428
      C   10   -0.09725      0.99960     2.08552    0.01212     3.09725
      C   11   -0.05323      0.99952     2.03897    0.01474     3.05323
      C   12    0.40812      0.99968     1.56593    0.02628     2.59188
      O   13   -0.29770      0.99987     3.29157    0.00626     4.29770
      O   14   -0.34486      0.99988     3.33772    0.00727     4.34486
      H   15    0.09588      0.00000     0.40257    0.00155     0.40412
      H   16    0.09831      0.00000     0.40053    0.00116     0.40169
      H   17    0.09736      0.00000     0.40151    0.00112     0.40264
      H   18    0.09484      0.00000     0.40382    0.00134     0.40516
      H   19    0.09686      0.00000     0.40166    0.00148     0.40314
      H   20    0.10133      0.00000     0.39747    0.00120     0.39867
      H   21    0.09686      0.00000     0.40047    0.00267     0.40314
      H   22    0.09317      0.00000     0.40527    0.00157     0.40683
      H   23    0.10282      0.00000     0.39591    0.00127     0.39718
      H   24    0.09160      0.00000     0.40689    0.00151     0.40840
      H   25    0.10062      0.00000     0.39804    0.00135     0.39938
      H   26    0.09004      0.00000     0.40827    0.00169     0.40996
      H   27    0.09562      0.00000     0.40310    0.00129     0.40438
      H   28    0.16800      0.00000     0.32903    0.00297     0.33200
      H   29    0.09732      0.00000     0.40076    0.00192     0.40268
      H   30    0.09801      0.00000     0.40094    0.00105     0.40199
      H   31    0.10367      0.00000     0.39477    0.00156     0.39633
      H   32    0.24533      0.00000     0.23651    0.01816     0.25467
 =======================================================================
   * Total *   -0.00000     13.99528    39.79765    0.20707    54.00000

 Normal termination of Gaussian 16 at Thu Dec 10 10:12:45 2020.
