 Gaussian 16, Revision A.03,

 -----------------------------------------------------------
 # opt freq B3LYP/6-31G(d) empiricaldispersion=gd3bj scf=xqc
 -----------------------------------------------------------

 ------------------------------
 CID_61480769_JID_3111_neutraal
 ------------------------------
 Symbolic Z-matrix:
 Charge =  0 Multiplicity = 1

 SCF Done:  E(RB3LYP) =  -541.879262366     A.U. after   13 cycles
 SCF Done:  E(RB3LYP) =  -541.883736085     A.U. after   11 cycles
 SCF Done:  E(RB3LYP) =  -541.884030220     A.U. after   11 cycles
 SCF Done:  E(RB3LYP) =  -541.884539179     A.U. after   11 cycles
 SCF Done:  E(RB3LYP) =  -541.885558019     A.U. after   11 cycles
 SCF Done:  E(RB3LYP) =  -541.886410703     A.U. after   10 cycles
 SCF Done:  E(RB3LYP) =  -541.886778128     A.U. after   10 cycles
 SCF Done:  E(RB3LYP) =  -541.886906319     A.U. after   10 cycles
 SCF Done:  E(RB3LYP) =  -541.886982679     A.U. after    9 cycles
 SCF Done:  E(RB3LYP) =  -541.887023655     A.U. after    9 cycles
 SCF Done:  E(RB3LYP) =  -541.887033331     A.U. after    8 cycles
 SCF Done:  E(RB3LYP) =  -541.887034755     A.U. after    7 cycles
 SCF Done:  E(RB3LYP) =  -541.887035053     A.U. after    7 cycles
 Optimization completed.
    -- Stationary point found.
 Normal termination of Gaussian 16 at Wed Dec  9 22:28:49 2020.

 --------------------------------------------------------------------
 #N Geom=AllCheck Guess=TCheck SCRF=Check GenChk RB3LYP/6-31G(d) Freq
 --------------------------------------------------------------------

 Structure from the checkpoint file:  "JID_3111.chk"
 ------------------------------
 CID_61480769_JID_3111_neutraal
 ------------------------------
 Charge =  0 Multiplicity = 1

 SCF Done:  E(RB3LYP) =  -541.887035053     A.U. after    1 cycles

  Exact polarizability: 142.008   0.325 123.452  -0.262   0.800 109.919
 Approx polarizability: 176.390   0.830 170.275   0.170  -0.908 165.434

                      1                      2                      3
                      A                      A                      A
 Frequencies --     30.0892                48.3760                73.7413
 Red. masses --      3.5033                 3.1139                 3.4846
 Frc consts  --      0.0019                 0.0043                 0.0112
 IR Inten    --      1.0223                 0.1475                 0.3378

                      4                      5                      6
                      A                      A                      A
 Frequencies --    100.7011               139.6488               159.9833
 Red. masses --      2.8328                 3.2820                 2.6132
 Frc consts  --      0.0169                 0.0377                 0.0394
 IR Inten    --      1.1368                 0.2915                 1.9274

                      7                      8                      9
                      A                      A                      A
 Frequencies --    188.4192               199.4206               225.4889
 Red. masses --      3.2037                 2.2374                 2.5207
 Frc consts  --      0.0670                 0.0524                 0.0755
 IR Inten    --      0.4313                 0.5817                 0.7638

                     10                     11                     12
                      A                      A                      A
 Frequencies --    249.3085               253.6878               293.4137
 Red. masses --      1.6636                 1.2386                 2.2531
 Frc consts  --      0.0609                 0.0470                 0.1143
 IR Inten    --     17.3594                 2.2310                 6.6283

                     13                     14                     15
                      A                      A                      A
 Frequencies --    307.3188               311.6929               341.5259
 Red. masses --      1.9847                 2.5066                 2.2453
 Frc consts  --      0.1104                 0.1435                 0.1543
 IR Inten    --     14.1081                 2.2943                10.0681

                     16                     17                     18
                      A                      A                      A
 Frequencies --    383.9260               414.0435               429.8557
 Red. masses --      2.0916                 3.0069                 2.4416
 Frc consts  --      0.1816                 0.3037                 0.2658
 IR Inten    --      0.7180                 3.4153                 3.9713

                     19                     20                     21
                      A                      A                      A
 Frequencies --    531.1658               607.3202               622.3205
 Red. masses --      3.1282                 2.0392                 1.9017
 Frc consts  --      0.5200                 0.4431                 0.4339
 IR Inten    --      1.5114                 0.9503                 0.2508

                     22                     23                     24
                      A                      A                      A
 Frequencies --    707.4675               766.3963               792.9843
 Red. masses --      2.4425                 2.6171                 1.2296
 Frc consts  --      0.7203                 0.9057                 0.4556
 IR Inten    --     21.5563                23.2730                 0.9212

                     25                     26                     27
                      A                      A                      A
 Frequencies --    810.5625               819.7944               837.6367
 Red. masses --      1.3912                 1.2128                 1.2912
 Frc consts  --      0.5385                 0.4802                 0.5338
 IR Inten    --     16.7410                 6.8592                 2.4402

                     28                     29                     30
                      A                      A                      A
 Frequencies --    846.9189               861.5493               868.1301
 Red. masses --      1.4008                 1.7024                 2.0052
 Frc consts  --      0.5920                 0.7445                 0.8904
 IR Inten    --      2.1434                12.5770                18.6287

                     31                     32                     33
                      A                      A                      A
 Frequencies --    922.2672               933.9831               945.8427
 Red. masses --      2.1072                 3.2422                 2.8166
 Frc consts  --      1.0560                 1.6664                 1.4846
 IR Inten    --     21.8727                 7.7329                29.2668

                     34                     35                     36
                      A                      A                      A
 Frequencies --    951.2749               977.7682               996.7672
 Red. masses --      1.8568                 2.6575                 1.7736
 Frc consts  --      0.9900                 1.4969                 1.0383
 IR Inten    --     95.9718                11.7142                 5.3008

                     37                     38                     39
                      A                      A                      A
 Frequencies --   1009.8515              1019.3895              1040.2398
 Red. masses --      1.6337                 1.8545                 1.6418
 Frc consts  --      0.9816                 1.1354                 1.0467
 IR Inten    --     29.0769                 8.9732                22.8389

                     40                     41                     42
                      A                      A                      A
 Frequencies --   1066.1111              1067.0441              1084.1770
 Red. masses --      1.3281                 1.3551                 1.3643
 Frc consts  --      0.8893                 0.9091                 0.9448
 IR Inten    --      2.7405                 6.9974                 3.2110

                     43                     44                     45
                      A                      A                      A
 Frequencies --   1093.6185              1108.0805              1127.2451
 Red. masses --      1.3741                 1.5757                 2.3365
 Frc consts  --      0.9683                 1.1399                 1.7492
 IR Inten    --      0.3555                10.9801                47.0244

                     46                     47                     48
                      A                      A                      A
 Frequencies --   1148.6438              1152.6547              1155.8541
 Red. masses --      1.3683                 1.3666                 1.6356
 Frc consts  --      1.0637                 1.0698                 1.2875
 IR Inten    --      4.9324                23.0729                10.3641

                     49                     50                     51
                      A                      A                      A
 Frequencies --   1163.1789              1168.2905              1183.7366
 Red. masses --      1.5327                 1.3507                 2.0830
 Frc consts  --      1.2218                 1.0862                 1.7197
 IR Inten    --     21.8702                 2.7550                 9.2546

                     52                     53                     54
                      A                      A                      A
 Frequencies --   1212.8921              1218.2057              1257.3781
 Red. masses --      1.4220                 1.3920                 1.6178
 Frc consts  --      1.2325                 1.2171                 1.5069
 IR Inten    --      1.2670                 0.0021                 2.4379

                     55                     56                     57
                      A                      A                      A
 Frequencies --   1259.7903              1272.9520              1287.2799
 Red. masses --      1.8131                 1.2332                 1.5152
 Frc consts  --      1.6954                 1.1774                 1.4794
 IR Inten    --      3.5212                 1.8080                 1.4899

                     58                     59                     60
                      A                      A                      A
 Frequencies --   1320.2459              1358.6917              1370.3291
 Red. masses --      1.3867                 1.4461                 1.2128
 Frc consts  --      1.4241                 1.5728                 1.3418
 IR Inten    --      7.0905                12.3396                18.7526

                     61                     62                     63
                      A                      A                      A
 Frequencies --   1383.1930              1401.2395              1416.1108
 Red. masses --      2.1220                 1.3272                 1.3156
 Frc consts  --      2.3920                 1.5353                 1.5544
 IR Inten    --     11.2581                 4.0675                 3.5428

                     64                     65                     66
                      A                      A                      A
 Frequencies --   1431.2552              1433.1230              1453.1905
 Red. masses --      1.2250                 1.3135                 1.3479
 Frc consts  --      1.4785                 1.5894                 1.6770
 IR Inten    --      9.3156                 9.5990                 9.9500

                     67                     68                     69
                      A                      A                      A
 Frequencies --   1458.4843              1499.5042              1502.7153
 Red. masses --      1.4555                 1.1236                 1.1087
 Frc consts  --      1.8242                 1.4885                 1.4751
 IR Inten    --      0.9912                 6.8432                 0.8733

                     70                     71                     72
                      A                      A                      A
 Frequencies --   1503.7118              1505.3918              1518.7643
 Red. masses --      1.0982                 1.1276                 1.0710
 Frc consts  --      1.4630                 1.5056                 1.4555
 IR Inten    --      1.3427                20.4601                17.1801

                     73                     74                     75
                      A                      A                      A
 Frequencies --   1529.6818              1534.3666              1538.6654
 Red. masses --      1.0797                 1.3476                 1.0719
 Frc consts  --      1.4886                 1.8692                 1.4952
 IR Inten    --      2.7859                 5.8864                16.1225

                     76                     77                     78
                      A                      A                      A
 Frequencies --   1553.7754              1727.0858              2983.0812
 Red. masses --      1.3256                 1.0818                 1.0706
 Frc consts  --      1.8856                 1.9012                 5.6129
 IR Inten    --      1.8403                10.0166                43.0719

                     79                     80                     81
                      A                      A                      A
 Frequencies --   3012.6221              3020.0916              3038.5959
 Red. masses --      1.0838                 1.0664                 1.0810
 Frc consts  --      5.7953                 5.7308                 5.8808
 IR Inten    --     29.4664                18.8520                65.5502

                     82                     83                     84
                      A                      A                      A
 Frequencies --   3046.2171              3063.1662              3073.3895
 Red. masses --      1.0380                 1.0940                 1.0986
 Frc consts  --      5.6748                 6.0477                 6.1139
 IR Inten    --     24.4031                29.5981                54.1409

                     85                     86                     87
                      A                      A                      A
 Frequencies --   3103.7737              3137.3193              3147.2796
 Red. masses --      1.1007                 1.1005                 1.0813
 Frc consts  --      6.2476                 6.3822                 6.3107
 IR Inten    --     64.8266                30.3414                16.5126

                     88                     89                     90
                      A                      A                      A
 Frequencies --   3151.7470              3153.0333              3154.8405
 Red. masses --      1.0564                 1.0600                 1.0793
 Frc consts  --      6.1828                 6.2091                 6.3293
 IR Inten    --      2.1785                28.5316                17.7838

                     91                     92                     93
                      A                      A                      A
 Frequencies --   3160.8624              3164.9957              3227.3026
 Red. masses --      1.0629                 1.0658                 1.1171
 Frc consts  --      6.2568                 6.2904                 6.8550
 IR Inten    --     20.4495                12.3245                 4.6984

                     94                     95                     96
                      A                      A                      A
 Frequencies --   3231.5583              3248.0263              3256.0364
 Red. masses --      1.1155                 1.1119                 1.1094
 Frc consts  --      6.8632                 6.9113                 6.9298
 IR Inten    --     18.0202                25.4068                 5.6858

                     97                     98                     99
                      A                      A                      A
 Frequencies --   3448.1184              3493.4315              3525.9477
 Red. masses --      1.0503                 1.0735                 1.0906
 Frc consts  --      7.3574                 7.7186                 7.9886
 IR Inten    --     25.3381                 0.1259                16.1005

 - Thermochemistry -
 -------------------
 Temperature   298.150 Kelvin.  Pressure   1.00000 Atm.
 Atom     1 has atomic number  6 and mass  12.00000

 Molecular mass:   182.17830 amu.
 Principal axes and moments of inertia in atomic units:
                           1         2         3
     Eigenvalues --  1469.901744264.752584882.47844
           X            0.99998   0.00646   0.00004
           Y           -0.00646   0.99995   0.00731
           Z            0.00001  -0.00731   0.99997
 This molecule is an asymmetric top.
 Rotational symmetry number  1.
 Warning -- assumption of classical behavior for rotation
           may cause significant error
 Rotational temperatures (Kelvin)      0.05892     0.02031     0.01774
 Rotational constants (GHZ):           1.22780     0.42318     0.36964
 Zero-point vibrational energy     851312.7 (Joules/Mol)
                                  203.46861 (Kcal/Mol)
 Warning -- explicit consideration of  20 degrees of freedom as
           vibrations may cause significant error
 Vibrational temperatures:     43.29    69.60   106.10   144.89   200.92
          (Kelvin)            230.18   271.09   286.92   324.43   358.70
                              365.00   422.16   442.16   448.46   491.38
                              552.38   595.72   618.47   764.23   873.80
                              895.38  1017.89  1102.67  1140.93  1166.22
                             1179.50  1205.17  1218.53  1239.58  1249.05
                             1326.94  1343.79  1360.86  1368.67  1406.79
                             1434.13  1452.95  1466.67  1496.67  1533.90
                             1535.24  1559.89  1573.47  1594.28  1621.85
                             1652.64  1658.41  1663.02  1673.56  1680.91
                             1703.13  1745.08  1752.73  1809.09  1812.56
                             1831.49  1852.11  1899.54  1954.85  1971.60
                             1990.11  2016.07  2037.47  2059.26  2061.94
                             2090.82  2098.43  2157.45  2162.07  2163.51
                             2165.92  2185.16  2200.87  2207.61  2213.80
                             2235.54  2484.89  4291.99  4334.49  4345.24
                             4371.86  4382.83  4407.21  4421.92  4465.64
                             4513.90  4528.23  4534.66  4536.51  4539.11
                             4547.78  4553.72  4643.37  4649.49  4673.19
                             4684.71  4961.07  5026.27  5073.05

 Zero-point correction=                           0.324248 (Hartree/Particle)
 Thermal correction to Energy=                    0.338781
 Thermal correction to Enthalpy=                  0.339726
 Thermal correction to Gibbs Free Energy=         0.282654
 Sum of electronic and zero-point Energies=           -541.562787
 Sum of electronic and thermal Energies=              -541.548254
 Sum of electronic and thermal Enthalpies=            -541.547309
 Sum of electronic and thermal Free Energies=         -541.604381

                     E (Thermal)             CV                S
                      KCal/Mol        Cal/Mol-Kelvin    Cal/Mol-Kelvin
 Total                  212.589             56.013            120.118
 Electronic               0.000              0.000              0.000
 Translational            0.889              2.981             41.506
 Rotational               0.889              2.981             31.793
 Vibrational            210.811             50.052             46.819
 Vibration     1          0.594              1.984              5.824
 Vibration     2          0.595              1.978              4.883
 Vibration     3          0.599              1.966              4.051
 Vibration     4          0.604              1.949              3.441
 Vibration     5          0.615              1.914              2.809
 Vibration     6          0.622              1.891              2.550
 Vibration     7          0.633              1.856              2.243
 Vibration     8          0.638              1.841              2.138
 Vibration     9          0.650              1.802              1.915
 Vibration    10          0.662              1.764              1.735
 Vibration    11          0.665              1.757              1.705
 Vibration    12          0.688              1.686              1.454
 Vibration    13          0.697              1.660              1.377
 Vibration    14          0.700              1.651              1.353
 Vibration    15          0.721              1.592              1.205
 Vibration    16          0.753              1.504              1.024
 Vibration    17          0.778              1.440              0.912
 Vibration    18          0.791              1.405              0.859
 Vibration    19          0.886              1.181              0.585
 Vibration    20          0.966              1.016              0.437

                           ! Non-Optimized Parameters !
 Normal termination of Gaussian 16 at Wed Dec  9 22:38:33 2020.

 ----------------------------------------------------------------------
 # B3LYP/6-311++G(d,p) empiricaldispersion=gd3bj scf=xqc pop=npa geom=c
 heck
 ----------------------------------------------------------------------

 --------------------------------------
 CID_61480769_JID_3111_Energie_neutraal
 --------------------------------------
 Structure from the checkpoint file:  "JID_3111.chk"
 Charge =  0 Multiplicity = 1

 SCF Done:  E(RB3LYP) =  -542.047304144     A.U. after   13 cycles
 Normal termination of Gaussian 16 at Wed Dec  9 22:43:12 2020.

 ----------------------------------------------------------------------
 # B3LYP/6-311++G(d,p) empiricaldispersion=gd3bj scf=xqc pop=npa geom=c
 heck
 ----------------------------------------------------------------------

 ------------------------------------
 CID_61480769_JID_3111_Energie_kation
 ------------------------------------
 Structure from the checkpoint file:  "JID_3111.chk"
 Charge =  1 Multiplicity = 2

 SCF Done:  E(UB3LYP) =  -541.757567745     A.U. after   21 cycles
 Normal termination of Gaussian 16 at Wed Dec  9 22:53:47 2020.
 Gaussian 16:  ES64L-G16RevA.03 25-Dec-2016

 ----------------------------------------------------------------------
 # B3LYP/6-311++G(d,p) empiricaldispersion=gd3bj scf=xqc pop=npa geom=c
 heck
 ----------------------------------------------------------------------

 -----------------------------------
 CID_61480769_JID_3111_Energie_anion
 -----------------------------------
 Structure from the checkpoint file:  "JID_3111.chk"
 Charge = -1 Multiplicity = 2

                         Standard orientation:
 ---------------------------------------------------------------------
 Center     Atomic      Atomic             Coordinates (Angstroms)
 Number     Number       Type             X           Y           Z
 ---------------------------------------------------------------------
      1          6           0       -3.176287   -0.447708   -1.512921
      2          6           0       -3.386257    0.111210   -0.101299
      3          6           0       -2.709186   -0.753835    0.989140
      4          6           0       -1.244881   -1.140638    0.732952
      5          7           0       -0.394674    0.016789    0.428447
      6          6           0        1.038273   -0.113999    0.757770
      7          6           0        1.700482   -1.296083    0.045801
      8          6           0        2.547977   -1.266282   -1.205279
      9          6           0        3.167260   -1.633813    0.124100
     10          6           0        1.606338    1.296298    0.623242
     11          6           0        2.970104    1.728880    0.144144
     12          6           0        1.749461    2.013602   -0.699232
     13          7           0       -2.995392    1.534010   -0.072030
     14          1           0       -2.126005   -0.384619   -1.823016
     15          1           0       -3.761845    0.131168   -2.232276
     16          1           0       -3.477531   -1.500497   -1.573639
     17          1           0       -4.466260    0.086315    0.096177
     18          1           0       -2.771293   -0.208276    1.939818
     19          1           0       -3.277487   -1.686303    1.119120
     20          1           0       -0.851701   -1.610890    1.642731
     21          1           0       -1.202797   -1.912250   -0.053176
     22          1           0       -0.460078    0.238767   -0.563414
     23          1           0        1.071248   -0.360875    1.829145
     24          1           0        1.059708   -2.173512    0.107467
     25          1           0        2.395057   -2.057219   -1.934705
     26          1           0        2.821945   -0.317224   -1.650312
     27          1           0        3.833469   -0.917222    0.593444
     28          1           0        3.445712   -2.670178    0.295576
     29          1           0        1.194589    1.926695    1.408251
     30          1           0        3.436883    2.559054    0.667231
     31          1           0        3.679776    0.997391   -0.221233
     32          1           0        1.625114    1.441007   -1.613607
     33          1           0        1.387774    3.035317   -0.769564
     34          1           0       -3.415697    1.964482    0.751410
     35          1           0       -1.989820    1.577484    0.099149
 ---------------------------------------------------------------------

 SCF Done:  E(UB3LYP) =  -542.031536868     A.U. after   30 cycles

 The electronic state is 2-A.
 Alpha  occ. eigenvalues --  -14.19723 -14.18101 -10.10830 -10.09514 -10.08869
 Alpha  occ. eigenvalues --  -10.08413 -10.08027 -10.07990 -10.07804 -10.07708
 Alpha  occ. eigenvalues --  -10.07475 -10.05908 -10.05618  -0.81615  -0.78042
 Alpha  occ. eigenvalues --   -0.76208  -0.75387  -0.66339  -0.62204  -0.58826
 Alpha  occ. eigenvalues --   -0.52898  -0.51328  -0.50665  -0.50510  -0.46062
 Alpha  occ. eigenvalues --   -0.45976  -0.42299  -0.39535  -0.38725  -0.38319
 Alpha  occ. eigenvalues --   -0.37220  -0.35365  -0.34907  -0.32783  -0.31774
 Alpha  occ. eigenvalues --   -0.30174  -0.29233  -0.28195  -0.27926  -0.27203
 Alpha  occ. eigenvalues --   -0.26672  -0.26048  -0.24094  -0.23180  -0.22360
 Alpha  occ. eigenvalues --   -0.20966  -0.20464  -0.19888  -0.18564  -0.14438
 Alpha  occ. eigenvalues --   -0.12372   0.04454
 Alpha virt. eigenvalues --    0.06308   0.06541   0.07296   0.08219   0.08393
 Alpha virt. eigenvalues --    0.09123   0.09299   0.09644   0.10727   0.10825
 Alpha virt. eigenvalues --    0.11669   0.11856   0.12274   0.12407   0.13137

  Beta  occ. eigenvalues --  -14.19713 -14.18091 -10.10823 -10.09505 -10.08846
  Beta  occ. eigenvalues --  -10.08407 -10.08011 -10.07980 -10.07795 -10.07690
  Beta  occ. eigenvalues --  -10.07458 -10.05886 -10.05594  -0.81594  -0.78019
  Beta  occ. eigenvalues --   -0.76189  -0.75368  -0.66303  -0.62170  -0.58786
  Beta  occ. eigenvalues --   -0.52846  -0.51284  -0.50625  -0.50461  -0.46019
  Beta  occ. eigenvalues --   -0.45948  -0.42262  -0.39487  -0.38675  -0.38280
  Beta  occ. eigenvalues --   -0.37200  -0.35333  -0.34881  -0.32759  -0.31743
  Beta  occ. eigenvalues --   -0.30140  -0.29190  -0.28173  -0.27892  -0.27175
  Beta  occ. eigenvalues --   -0.26650  -0.26014  -0.24065  -0.23150  -0.22329
  Beta  occ. eigenvalues --   -0.20938  -0.20444  -0.19866  -0.18540  -0.14417
  Beta  occ. eigenvalues --   -0.12336
  Beta virt. eigenvalues --    0.06532   0.07063   0.07363   0.07734   0.08569
  Beta virt. eigenvalues --    0.08904   0.09466   0.09759   0.10021   0.11062
  Beta virt. eigenvalues --    0.11301   0.11945   0.11979   0.12592   0.12826

 Mulliken charges and spin densities:
               1          2
     1  C    1.013032  -1.586257
     2  C   -1.435114   1.397889
     3  C    1.708442  -2.428057
     4  C   -0.525628   0.407962
     5  N    0.035705   0.143801
     6  C    1.694494  -2.347881
     7  C   -0.764795   1.036686
     8  C    0.589057  -0.927741
     9  C   -0.330649  -0.162301
    10  C   -1.711955   1.576798
    11  C    0.859039  -1.204813
    12  C   -0.429595  -0.034984
    13  N   -0.215643  -0.100350
    14  H   -0.001770   0.134520
    15  H    0.026883   0.129688
    16  H   -0.267020   0.399260
    17  H   -0.183844   0.376909
    18  H    0.019831   0.154533
    19  H   -0.396052   0.547236
    20  H   -0.375801   0.542517
    21  H    0.224722  -0.070793
    22  H    0.156686   0.037700
    23  H   -0.012328   0.194034
    24  H   -0.393225   0.659927
    25  H   -0.196525   0.367187
    26  H    0.059771   0.068565
    27  H   -0.066919   0.184535
    28  H   -0.325437   0.489339
    29  H   -0.138677   0.373877
    30  H   -0.226470   0.387429
    31  H    0.207553  -0.093531
    32  H    0.088495   0.053690
    33  H   -0.057022   0.218603
    34  H    0.035372   0.185205
    35  H    0.335387  -0.111182
 Sum of Mulliken charges =  -1.00000   1.00000

 Dipole moment (field-independent basis, Debye):
    X=              2.0965    Y=              2.6192    Z=             -1.0251  Tot=              3.5081
 Quadrupole moment (field-independent basis, Debye-Ang):
   XX=           -153.6140   YY=           -139.8581   ZZ=           -120.0920
   XY=             -0.5371   XZ=             -2.3989   YZ=             -0.8344

 Summary of Natural Population Analysis:

                                       Natural Population
                Natural  -----------------------------------------------
    Atom  No    Charge         Core      Valence    Rydberg      Total
 -----------------------------------------------------------------------
      C    1   -0.28796      0.99964     2.28151    0.00680     3.28796
      C    2   -0.01664      0.99962     2.00506    0.01197     3.01664
      C    3   -0.19487      0.99961     2.18552    0.00974     3.19487
      C    4   -0.09172      0.99962     2.08060    0.01150     3.09172
      N    5   -0.34923      0.99973     2.83857    0.01093     3.84923
      C    6   -0.00364      0.99955     1.99058    0.01350     3.00364
      C    7   -0.12299      0.99958     2.11130    0.01211     3.12299
      C    8   -0.20108      0.99962     2.19236    0.00910     3.20108
      C    9   -0.19727      0.99962     2.18906    0.00859     3.19727
      C   10   -0.11177      0.99958     2.09893    0.01325     3.11177
      C   11   -0.19987      0.99962     2.19261    0.00765     3.19987
      C   12   -0.20131      0.99962     2.19449    0.00721     3.20131
      N   13   -0.43099      0.99977     2.92066    0.01056     3.93099
      H   14    0.09148      0.00000     0.40728    0.00124     0.40852
      H   15    0.10238      0.00000     0.39656    0.00106     0.39762
      H   16    0.09950      0.00000     0.39944    0.00106     0.40050
      H   17    0.08800      0.00000     0.41023    0.00178     0.41200
      H   18    0.09613      0.00000     0.40225    0.00161     0.40387
      H   19    0.09982      0.00000     0.39858    0.00159     0.40018
      H   20    0.09705      0.00000     0.40135    0.00160     0.40295
      H   21    0.08481      0.00000     0.41344    0.00175     0.41519
      H   22    0.17196      0.00000     0.32435    0.00369     0.32804
      H   23    0.09720      0.00000     0.40082    0.00198     0.40280
      H   24    0.10751      0.00000     0.39036    0.00213     0.39249
      H   25    0.10405      0.00000     0.39493    0.00103     0.39595
      H   26    0.09935      0.00000     0.39929    0.00137     0.40065
      H   27    0.10031      0.00000     0.39867    0.00103     0.39969
      H   28    0.10276      0.00000     0.39616    0.00108     0.39724
      H   29    0.10756      0.00000     0.39101    0.00143     0.39244
      H   30    0.10275      0.00000     0.39621    0.00104     0.39725
      H   31    0.10125      0.00000     0.39735    0.00140     0.39875
      H   32    0.10011      0.00000     0.39879    0.00110     0.39989
      H   33    0.10246      0.00000     0.39666    0.00088     0.39754
      H   34    0.17063      0.00000     0.32745    0.00192     0.32937
      H   35    0.18226      0.00000     0.31506    0.00268     0.31774
 =======================================================================
   * Total *   -0.00000     12.99516    37.83749    0.16735    51.00000

 Normal termination of Gaussian 16 at Wed Dec  9 23:08:34 2020.
