 Gaussian 16, Revision A.03,

 -----------------------------------------------------------
 # opt freq B3LYP/6-31G(d) empiricaldispersion=gd3bj scf=xqc
 -----------------------------------------------------------

 -------------------------------
 CID_104289135_JID_9203_neutraal
 -------------------------------
 Symbolic Z-matrix:
 Charge =  0 Multiplicity = 1

 SCF Done:  E(RB3LYP) =  -1253.23863190     A.U. after   15 cycles
 SCF Done:  E(RB3LYP) =  -1253.24600538     A.U. after   13 cycles
 SCF Done:  E(RB3LYP) =  -1253.24641792     A.U. after   13 cycles
 SCF Done:  E(RB3LYP) =  -1253.24743140     A.U. after   13 cycles
 SCF Done:  E(RB3LYP) =  -1253.24789772     A.U. after   11 cycles
 SCF Done:  E(RB3LYP) =  -1253.24800333     A.U. after   12 cycles
 SCF Done:  E(RB3LYP) =  -1253.24804839     A.U. after   11 cycles
 SCF Done:  E(RB3LYP) =  -1253.24807055     A.U. after   10 cycles
 SCF Done:  E(RB3LYP) =  -1253.24808731     A.U. after   11 cycles
 SCF Done:  E(RB3LYP) =  -1253.24809859     A.U. after   10 cycles
 SCF Done:  E(RB3LYP) =  -1253.24992516     A.U. after    9 cycles
 SCF Done:  E(RB3LYP) =  -1253.24992696     A.U. after   10 cycles
 SCF Done:  E(RB3LYP) =  -1253.24992720     A.U. after    8 cycles
 SCF Done:  E(RB3LYP) =  -1253.24992733     A.U. after    8 cycles
 SCF Done:  E(RB3LYP) =  -1253.24992739     A.U. after    8 cycles
 Optimization completed.
    -- Stationary point found.
 Normal termination of Gaussian 16 at Sun Dec 13 16:33:32 2020.

 --------------------------------------------------------------------
 #N Geom=AllCheck Guess=TCheck SCRF=Check GenChk RB3LYP/6-31G(d) Freq
 --------------------------------------------------------------------

 Structure from the checkpoint file:  "JID_9203.chk"
 -------------------------------
 CID_104289135_JID_9203_neutraal
 -------------------------------
 Charge =  0 Multiplicity = 1

 SCF Done:  E(RB3LYP) =  -1253.24992739     A.U. after    1 cycles

  Exact polarizability: 199.831  -3.834 152.822   8.008   3.620 124.917
 Approx polarizability: 285.753 -14.333 248.295   8.551  19.048 220.380

                      1                      2                      3
                      A                      A                      A
 Frequencies --     19.6349                28.8428                35.0078
 Red. masses --      8.4368                 5.9219                 7.7718
 Frc consts  --      0.0019                 0.0029                 0.0056
 IR Inten    --      1.1915                 0.1935                 4.7384

                      4                      5                      6
                      A                      A                      A
 Frequencies --     42.8817                70.4628                87.4149
 Red. masses --      6.1387                 5.1048                 9.4435
 Frc consts  --      0.0067                 0.0149                 0.0425
 IR Inten    --      1.7458                 0.4075                 0.2055

                      7                      8                      9
                      A                      A                      A
 Frequencies --    135.0202               145.9849               185.9863
 Red. masses --      4.3658                 5.0127                 3.2393
 Frc consts  --      0.0469                 0.0629                 0.0660
 IR Inten    --      2.7933                 0.5446                 0.1101

                     10                     11                     12
                      A                      A                      A
 Frequencies --    200.9541               255.3489               270.2598
 Red. masses --      4.9356                 4.9524                 4.6225
 Frc consts  --      0.1174                 0.1903                 0.1989
 IR Inten    --      2.9131                 1.0284                 5.1228

                     13                     14                     15
                      A                      A                      A
 Frequencies --    310.4714               322.6726               340.7663
 Red. masses --      3.1431                 2.7318                 2.6518
 Frc consts  --      0.1785                 0.1676                 0.1814
 IR Inten    --      1.1620                 2.5372                 1.3775

                     16                     17                     18
                      A                      A                      A
 Frequencies --    362.3294               399.2654               442.2917
 Red. masses --      5.9798                 6.1724                 4.4161
 Frc consts  --      0.4625                 0.5797                 0.5090
 IR Inten    --      2.3633                 1.9990                 3.3005

                     19                     20                     21
                      A                      A                      A
 Frequencies --    479.2118               491.5288               539.9024
 Red. masses --      3.5773                 4.5688                 3.1934
 Frc consts  --      0.4840                 0.6504                 0.5484
 IR Inten    --     10.1419                12.2222                10.8888

                     22                     23                     24
                      A                      A                      A
 Frequencies --    570.1784               609.6850               613.2239
 Red. masses --      3.8110                 4.0179                 3.9531
 Frc consts  --      0.7300                 0.8799                 0.8758
 IR Inten    --     40.2322                12.7286                17.8191

                     25                     26                     27
                      A                      A                      A
 Frequencies --    641.9442               647.5303               657.9571
 Red. masses --      1.8453                 3.4282                 4.7591
 Frc consts  --      0.4480                 0.8469                 1.2139
 IR Inten    --     41.6498                 4.8545                30.7665

                     28                     29                     30
                      A                      A                      A
 Frequencies --    670.2056               714.1378               732.5155
 Red. masses --      4.0588                 3.4575                 3.1989
 Frc consts  --      1.0742                 1.0389                 1.0113
 IR Inten    --     57.0627                 0.7768                13.2054

                     31                     32                     33
                      A                      A                      A
 Frequencies --    756.1060               765.3661               779.9203
 Red. masses --      4.7026                 3.6686                 2.4795
 Frc consts  --      1.5840                 1.2662                 0.8886
 IR Inten    --     51.2091                34.0150               100.3418

                     34                     35                     36
                      A                      A                      A
 Frequencies --    803.0234               831.0616               866.4712
 Red. masses --      1.2766                 2.5447                 2.9973
 Frc consts  --      0.4850                 1.0355                 1.3258
 IR Inten    --     21.4246                 5.0609                 5.0262

                     37                     38                     39
                      A                      A                      A
 Frequencies --    881.1766               906.1446               907.1243
 Red. masses --      1.3203                 4.9558                 1.8581
 Frc consts  --      0.6040                 2.3975                 0.9008
 IR Inten    --      0.0938                48.5103                 3.5120

                     40                     41                     42
                      A                      A                      A
 Frequencies --    918.6641               944.8835               975.7445
 Red. masses --      2.5730                 7.4115                 2.6568
 Frc consts  --      1.2794                 3.8986                 1.4903
 IR Inten    --      3.5793                 2.8907                10.8226

                     43                     44                     45
                      A                      A                      A
 Frequencies --    987.4659              1013.1006              1043.1560
 Red. masses --      2.5145                 3.4051                 3.0684
 Frc consts  --      1.4446                 2.0591                 1.9672
 IR Inten    --     10.9771                 9.1874                 2.0143

                     46                     47                     48
                      A                      A                      A
 Frequencies --   1074.4434              1101.1022              1110.6649
 Red. masses --      1.9578                 1.9029                 2.3754
 Frc consts  --      1.3317                 1.3593                 1.7264
 IR Inten    --     14.4601                12.9516                 5.5274

                     49                     50                     51
                      A                      A                      A
 Frequencies --   1121.5042              1160.4700              1165.6701
 Red. masses --      2.3717                 1.8179                 1.5742
 Frc consts  --      1.7575                 1.4424                 1.2603
 IR Inten    --     39.8584                35.3599                50.7146

                     52                     53                     54
                      A                      A                      A
 Frequencies --   1191.6234              1204.1834              1224.1932
 Red. masses --      2.3442                 1.7199                 1.6214
 Frc consts  --      1.9612                 1.4694                 1.4317
 IR Inten    --     33.4679                39.3147                40.8496

                     55                     56                     57
                      A                      A                      A
 Frequencies --   1236.6964              1280.1693              1301.6763
 Red. masses --      1.8884                 1.4731                 1.3405
 Frc consts  --      1.7016                 1.4224                 1.3382
 IR Inten    --     64.3273                 3.5781                 5.0697

                     58                     59                     60
                      A                      A                      A
 Frequencies --   1307.3617              1328.4495              1340.6976
 Red. masses --      2.1996                 1.5077                 2.0380
 Frc consts  --      2.2151                 1.5677                 2.1583
 IR Inten    --      8.5111                 6.7442                83.9080

                     61                     62                     63
                      A                      A                      A
 Frequencies --   1367.9775              1379.2041              1380.5060
 Red. masses --      1.7752                 1.5692                 1.8463
 Frc consts  --      1.9573                 1.7587                 2.0732
 IR Inten    --     25.6906                 2.6341                13.0242

                     64                     65                     66
                      A                      A                      A
 Frequencies --   1388.3463              1403.4619              1409.9223
 Red. masses --      1.5707                 1.7482                 1.8256
 Frc consts  --      1.7837                 2.0289                 2.1381
 IR Inten    --     19.7233                16.4074                 3.3275

                     67                     68                     69
                      A                      A                      A
 Frequencies --   1461.5700              1468.7718              1487.9650
 Red. masses --      4.1879                 1.5527                 4.8910
 Frc consts  --      5.2709                 1.9735                 6.3802
 IR Inten    --     35.5893                16.2270                 5.8968

                     70                     71                     72
                      A                      A                      A
 Frequencies --   1511.2563              1511.8963              1519.7098
 Red. masses --      1.0969                 1.0970                 1.0857
 Frc consts  --      1.4760                 1.4774                 1.4774
 IR Inten    --      2.4687                 8.8029                 6.0803

                     73                     74                     75
                      A                      A                      A
 Frequencies --   1528.9413              1608.6621              1620.6927
 Red. masses --      1.0972                 5.2254                 5.4399
 Frc consts  --      1.5112                 7.9671                 8.4187
 IR Inten    --      1.8811               214.5019               129.7619

                     76                     77                     78
                      A                      A                      A
 Frequencies --   1630.4684              1846.1078              3020.3517
 Red. masses --      7.8941                 9.6446                 1.0687
 Frc consts  --     12.3645                19.3664                 5.7441
 IR Inten    --      8.5583               322.0260                38.4571

                     79                     80                     81
                      A                      A                      A
 Frequencies --   3055.1600              3059.7743              3072.6067
 Red. masses --      1.0658                 1.0663                 1.0867
 Frc consts  --      5.8611                 5.8820                 6.0449
 IR Inten    --     21.6123                12.1736                36.4426

                     82                     83                     84
                      A                      A                      A
 Frequencies --   3082.4836              3089.1633              3102.9116
 Red. masses --      1.0643                 1.0837                 1.1007
 Frc consts  --      5.9582                 6.0934                 6.2442
 IR Inten    --     10.1117                10.4230                39.5334

                     85                     86                     87
                      A                      A                      A
 Frequencies --   3109.6551              3135.3007              3282.7699
 Red. masses --      1.1045                 1.1010                 1.0917
 Frc consts  --      6.2926                 6.3769                 6.9315
 IR Inten    --     28.3636                12.2110                 0.7911

                     88                     89                     90
                      A                      A                      A
 Frequencies --   3303.9893              3544.1377              3678.6649
 Red. masses --      1.1074                 1.0744                 1.0639
 Frc consts  --      7.1228                 7.9514                 8.4823
 IR Inten    --      4.2150                23.0968                44.8284

 - Thermochemistry -
 -------------------
 Temperature   298.150 Kelvin.  Pressure   1.00000 Atm.
 Atom     1 has atomic number  6 and mass  12.00000

 Molecular mass:   279.06776 amu.
 Principal axes and moments of inertia in atomic units:
                           1         2         3
     Eigenvalues --  3066.957588203.991709671.57331
           X            0.99994   0.00388   0.01054
           Y           -0.00383   0.99998  -0.00479
           Z           -0.01056   0.00475   0.99993
 This molecule is an asymmetric top.
 Rotational symmetry number  1.
 Warning -- assumption of classical behavior for rotation
           may cause significant error
 Rotational temperatures (Kelvin)      0.02824     0.01056     0.00896
 Rotational constants (GHZ):           0.58845     0.21998     0.18660
 Zero-point vibrational energy     655639.5 (Joules/Mol)
                                  156.70159 (Kcal/Mol)
 Warning -- explicit consideration of  24 degrees of freedom as
           vibrations may cause significant error
 Vibrational temperatures:     28.25    41.50    50.37    61.70   101.38
          (Kelvin)            125.77   194.26   210.04   267.59   289.13
                              367.39   388.84   446.70   464.25   490.29
                              521.31   574.45   636.36   689.48   707.20
                              776.80   820.36   877.20   882.29   923.61
                              931.65   946.65   964.28  1027.48  1053.93
                             1087.87  1101.19  1122.13  1155.37  1195.71
                             1246.66  1267.82  1303.74  1305.15  1321.75
                             1359.48  1403.88  1420.74  1457.63  1500.87
                             1545.88  1584.24  1598.00  1613.59  1669.66
                             1677.14  1714.48  1732.55  1761.34  1779.33
                             1841.88  1872.82  1881.00  1911.34  1928.96
                             1968.21  1984.37  1986.24  1997.52  2019.27
                             2028.56  2102.87  2113.23  2140.85  2174.36
                             2175.28  2186.52  2199.81  2314.51  2331.82
                             2345.88  2656.14  4345.61  4395.69  4402.33
                             4420.80  4435.01  4444.62  4464.40  4474.10
                             4511.00  4723.17  4753.70  5099.22  5292.78

 Zero-point correction=                           0.249720 (Hartree/Particle)
 Thermal correction to Energy=                    0.266215
 Thermal correction to Enthalpy=                  0.267159
 Thermal correction to Gibbs Free Energy=         0.202428
 Sum of electronic and zero-point Energies=          -1253.000208
 Sum of electronic and thermal Energies=             -1252.983713
 Sum of electronic and thermal Enthalpies=           -1252.982769
 Sum of electronic and thermal Free Energies=        -1253.047499

                     E (Thermal)             CV                S
                      KCal/Mol        Cal/Mol-Kelvin    Cal/Mol-Kelvin
 Total                  167.052             62.450            136.237
 Electronic               0.000              0.000              0.000
 Translational            0.889              2.981             42.777
 Rotational               0.889              2.981             33.853
 Vibrational            165.275             56.488             59.607
 Vibration     1          0.593              1.986              6.671
 Vibration     2          0.593              1.984              5.907
 Vibration     3          0.594              1.982              5.523
 Vibration     4          0.595              1.980              5.121
 Vibration     5          0.598              1.968              4.140
 Vibration     6          0.601              1.958              3.717
 Vibration     7          0.613              1.918              2.873
 Vibration     8          0.617              1.907              2.724
 Vibration     9          0.632              1.859              2.267
 Vibration    10          0.638              1.839              2.124
 Vibration    11          0.666              1.754              1.693
 Vibration    12          0.674              1.728              1.595
 Vibration    13          0.699              1.654              1.360
 Vibration    14          0.708              1.630              1.297
 Vibration    15          0.720              1.594              1.209
 Vibration    16          0.736              1.550              1.112
 Vibration    17          0.765              1.472              0.965
 Vibration    18          0.802              1.378              0.819
 Vibration    19          0.836              1.296              0.712
 Vibration    20          0.847              1.269              0.680
 Vibration    21          0.895              1.162              0.565
 Vibration    22          0.926              1.096              0.504
 Vibration    23          0.969              1.011              0.433
 Vibration    24          0.973              1.004              0.427

                           ! Non-Optimized Parameters !
 Normal termination of Gaussian 16 at Sun Dec 13 16:49:50 2020.

 ----------------------------------------------------------------------
 # B3LYP/6-311++G(d,p) empiricaldispersion=gd3bj scf=xqc pop=npa geom=c
 heck
 ----------------------------------------------------------------------

 ---------------------------------------
 CID_104289135_JID_9203_Energie_neutraal
 ---------------------------------------
 Structure from the checkpoint file:  "JID_9203.chk"
 Charge =  0 Multiplicity = 1

 SCF Done:  E(RB3LYP) =  -1253.51885507     A.U. after   16 cycles
 Normal termination of Gaussian 16 at Sun Dec 13 16:57:35 2020.

 ----------------------------------------------------------------------
 # B3LYP/6-311++G(d,p) empiricaldispersion=gd3bj scf=xqc pop=npa geom=c
 heck
 ----------------------------------------------------------------------

 -------------------------------------
 CID_104289135_JID_9203_Energie_kation
 -------------------------------------
 Structure from the checkpoint file:  "JID_9203.chk"
 Charge =  1 Multiplicity = 2

 SCF Done:  E(UB3LYP) =  -1253.23491353     A.U. after   24 cycles
 Normal termination of Gaussian 16 at Sun Dec 13 17:14:17 2020.
 Gaussian 16:  ES64L-G16RevA.03 25-Dec-2016

 ----------------------------------------------------------------------
 # B3LYP/6-311++G(d,p) empiricaldispersion=gd3bj scf=xqc pop=npa geom=c
 heck
 ----------------------------------------------------------------------

 ------------------------------------
 CID_104289135_JID_9203_Energie_anion
 ------------------------------------
 Structure from the checkpoint file:  "JID_9203.chk"
 Charge = -1 Multiplicity = 2

                         Standard orientation:
 ---------------------------------------------------------------------
 Center     Atomic      Atomic             Coordinates (Angstroms)
 Number     Number       Type             X           Y           Z
 ---------------------------------------------------------------------
      1          6           0       -3.557159   -0.453486   -1.385129
      2          6           0       -3.920487   -0.056262    0.051612
      3          6           0       -2.687213    0.453565    0.842210
      4          6           0       -1.504518   -0.438234    0.601220
      5          6           0       -1.456159   -1.344984   -0.413018
      6          6           0       -2.544153   -1.612898   -1.409463
      7         16           0        0.115415   -2.132698   -0.412514
      8          6           0        0.567969   -1.109649    0.965559
      9          7           0       -0.364335   -0.299089    1.374443
     10          7           0        1.806089   -1.222391    1.564354
     11          6           0        2.997274   -1.320803    0.721260
     12          6           0        3.347596   -0.030563    0.022153
     13          7           0        4.611567    0.309367   -0.105052
     14          8           0        4.607234    1.526849   -0.792337
     15          6           0        3.331502    1.878195   -1.041176
     16          6           0        2.473222    0.943276   -0.556335
     17          6           0       -2.413994    1.910583    0.487377
     18          8           0       -2.978471    2.854425    0.992025
     19          8           0       -1.504545    2.063132   -0.511799
     20          1           0       -4.460862   -0.743225   -1.932623
     21          1           0       -3.125301    0.410030   -1.904012
     22          1           0       -4.699106    0.713195    0.061653
     23          1           0       -4.322081   -0.928789    0.581629
     24          1           0       -2.931827    0.469092    1.909088
     25          1           0       -3.051763   -2.559927   -1.173967
     26          1           0       -2.129849   -1.728252   -2.418383
     27          1           0        1.890004   -0.530643    2.304268
     28          1           0        3.842869   -1.635903    1.337159
     29          1           0        2.829225   -2.115511   -0.013094
     30          1           0        3.196472    2.814278   -1.563746
     31          1           0        1.394169    0.950309   -0.580169
     32          1           0       -1.448860    3.025623   -0.664510
 ---------------------------------------------------------------------

 SCF Done:  E(UB3LYP) =  -1253.51338347     A.U. after   33 cycles
 SCF Done:  E(UB3LYP) =  -1253.51338347     a.u. after    1 cycles

 The electronic state is 2-A.
 Alpha  occ. eigenvalues --  -88.77731 -19.11183 -19.07200 -19.01822 -14.26005
 Alpha  occ. eigenvalues --  -14.25016 -14.20615 -10.20808 -10.16594 -10.14092
 Alpha  occ. eigenvalues --  -10.13774 -10.11957 -10.10296 -10.09972 -10.09758
 Alpha  occ. eigenvalues --  -10.08578 -10.08467 -10.08367 -10.07628  -7.86362
 Alpha  occ. eigenvalues --   -5.82659  -5.82322  -5.81916  -1.04897  -1.01259
 Alpha  occ. eigenvalues --   -0.92364  -0.89157  -0.83281  -0.78014  -0.74325
 Alpha  occ. eigenvalues --   -0.70512  -0.69971  -0.66132  -0.64423  -0.61493
 Alpha  occ. eigenvalues --   -0.56487  -0.52857  -0.52009  -0.50385  -0.49497
 Alpha  occ. eigenvalues --   -0.48272  -0.45317  -0.43780  -0.41004  -0.39662
 Alpha  occ. eigenvalues --   -0.39456  -0.38070  -0.37637  -0.37230  -0.36205
 Alpha  occ. eigenvalues --   -0.35900  -0.34623  -0.33484  -0.33371  -0.32432
 Alpha  occ. eigenvalues --   -0.31414  -0.30290  -0.30037  -0.29388  -0.28335
 Alpha  occ. eigenvalues --   -0.28047  -0.24911  -0.24499  -0.23355  -0.22606
 Alpha  occ. eigenvalues --   -0.21990  -0.21318  -0.20260  -0.18941  -0.18338
 Alpha  occ. eigenvalues --   -0.17741  -0.17356  -0.11385   0.03979
 Alpha virt. eigenvalues --    0.05911   0.06022   0.07039   0.07536   0.08163
 Alpha virt. eigenvalues --    0.08356   0.08585   0.09167   0.09549   0.09947
 Alpha virt. eigenvalues --    0.10779   0.11149   0.11509   0.12168   0.12363

  Beta  occ. eigenvalues --  -88.77716 -19.11083 -19.07152 -19.01798 -14.25860
  Beta  occ. eigenvalues --  -14.25016 -14.20619 -10.20783 -10.16498 -10.14012
  Beta  occ. eigenvalues --  -10.13770 -10.11919 -10.10292 -10.09965 -10.09698
  Beta  occ. eigenvalues --  -10.08557 -10.08479 -10.08342 -10.07603  -7.86348
  Beta  occ. eigenvalues --   -5.82635  -5.82316  -5.81882  -1.04713  -1.01183
  Beta  occ. eigenvalues --   -0.92298  -0.89084  -0.83245  -0.77839  -0.74273
  Beta  occ. eigenvalues --   -0.70426  -0.69840  -0.66075  -0.64341  -0.61428
  Beta  occ. eigenvalues --   -0.56404  -0.52772  -0.51915  -0.50293  -0.49379
  Beta  occ. eigenvalues --   -0.48148  -0.45247  -0.43703  -0.40954  -0.39590
  Beta  occ. eigenvalues --   -0.39347  -0.37993  -0.37321  -0.37109  -0.36117
  Beta  occ. eigenvalues --   -0.35837  -0.34503  -0.33383  -0.33274  -0.32378
  Beta  occ. eigenvalues --   -0.31363  -0.30201  -0.29962  -0.29305  -0.28220
  Beta  occ. eigenvalues --   -0.27971  -0.24847  -0.24434  -0.23289  -0.22509
  Beta  occ. eigenvalues --   -0.21794  -0.21155  -0.19896  -0.18831  -0.18309
  Beta  occ. eigenvalues --   -0.17527  -0.16995  -0.11183
  Beta virt. eigenvalues --    0.06453   0.06918   0.07227   0.07275   0.07844
  Beta virt. eigenvalues --    0.08473   0.08635   0.09000   0.09323   0.09826
  Beta virt. eigenvalues --    0.10334   0.10865   0.11234   0.11785   0.12328

 Mulliken charges and spin densities:
               1          2
     1  C   -0.197157  -0.025188
     2  C   -0.034407  -0.444904
     3  C   -0.863255   0.883385
     4  C   -1.762838  -0.176876
     5  C    1.392131  -0.032761
     6  C    1.043070  -1.544265
     7  S   -0.233825   0.077499
     8  C    0.380446  -0.012673
     9  N    0.218573  -0.051920
    10  N    0.092802   0.011455
    11  C   -0.342246  -0.199806
    12  C    0.340818  -0.202788
    13  N   -0.369908   0.098649
    14  O    0.131961   0.009484
    15  C   -0.343060   0.149525
    16  C    0.157849  -0.103662
    17  C    0.166241  -0.405563
    18  O   -0.296793   0.032097
    19  O   -0.191407   0.053554
    20  H   -0.468561   0.652364
    21  H    0.103484   0.049821
    22  H    0.049983   0.156719
    23  H   -0.141999   0.294158
    24  H    0.102625   0.168813
    25  H   -0.248254   0.432526
    26  H   -0.055126   0.208336
    27  H    0.243629   0.028958
    28  H    0.177106   0.022434
    29  H    0.160607   0.001147
    30  H   -0.424635   0.623370
    31  H    0.345590  -0.202228
    32  H   -0.133443   0.448343
 Sum of Mulliken charges =  -1.00000   1.00000

 Dipole moment (field-independent basis, Debye):
    X=              3.0628    Y=             -3.0459    Z=              1.1428  Tot=              4.4681
 Quadrupole moment (field-independent basis, Debye-Ang):
   XX=           -204.6663   YY=           -166.6099   ZZ=           -142.2369
   XY=             -9.2543   XZ=             -0.0898   YZ=             -2.6388

 Summary of Natural Population Analysis:

                                       Natural Population
                Natural  -----------------------------------------------
    Atom  No    Charge         Core      Valence    Rydberg      Total
 -----------------------------------------------------------------------
      C    1   -0.18760      0.99963     2.17972    0.00825     3.18760
      C    2   -0.18069      0.99962     2.17277    0.00831     3.18069
      C    3   -0.16169      0.99950     2.15002    0.01217     3.16169
      C    4    0.06238      0.99938     1.92236    0.01589     2.93762
      C    5   -0.09451      0.99937     2.08361    0.01153     3.09451
      C    6   -0.20135      0.99958     2.19166    0.01010     3.20135
      S    7    0.16863      4.99940     2.81407    0.01790     7.83137
      C    8    0.15175      0.99960     1.82803    0.02062     2.84825
      N    9   -0.27245      0.99962     2.76207    0.01076     3.77245
      N   10   -0.32183      0.99966     2.81062    0.01155     3.82183
      C   11   -0.09751      0.99957     2.08764    0.01031     3.09751
      C   12    0.06819      0.99961     1.91574    0.01647     2.93181
      N   13   -0.06882      0.99966     2.55738    0.01179     3.56882
      O   14   -0.15844      0.99987     3.14976    0.00881     4.15844
      C   15    0.09489      0.99956     1.89007    0.01548     2.90511
      C   16   -0.17864      0.99951     2.17031    0.00882     3.17864
      C   17    0.41945      0.99969     1.55433    0.02653     2.58055
      O   18   -0.30842      0.99987     3.30257    0.00598     4.30842
      O   19   -0.34314      0.99988     3.33606    0.00721     4.34314
      H   20    0.10251      0.00000     0.39587    0.00162     0.39749
      H   21    0.10022      0.00000     0.39792    0.00187     0.39978
      H   22    0.10479      0.00000     0.39421    0.00101     0.39521
      H   23    0.10136      0.00000     0.39726    0.00138     0.39864
      H   24    0.11946      0.00000     0.37882    0.00172     0.38054
      H   25    0.10522      0.00000     0.39248    0.00230     0.39478
      H   26    0.10417      0.00000     0.39489    0.00094     0.39583
      H   27    0.19115      0.00000     0.30621    0.00264     0.30885
      H   28    0.10706      0.00000     0.39181    0.00113     0.39294
      H   29    0.10596      0.00000     0.39288    0.00116     0.39404
      H   30    0.09984      0.00000     0.39880    0.00136     0.40016
      H   31    0.12653      0.00000     0.37210    0.00137     0.37347
      H   32    0.24155      0.00000     0.25031    0.00814     0.25845
 =======================================================================
   * Total *    0.00000     22.99255    49.74231    0.26513    73.00000

 Normal termination of Gaussian 16 at Sun Dec 13 17:37:46 2020.
