 Gaussian 16, Revision A.03,

 -----------------------------------------------------------
 # opt freq B3LYP/6-31G(d) empiricaldispersion=gd3bj scf=xqc
 -----------------------------------------------------------

 -------------------------------
 CID_143524446_JID_5535_neutraal
 -------------------------------
 Symbolic Z-matrix:
 Charge =  0 Multiplicity = 1

 SCF Done:  E(RB3LYP) =  -652.893909684     A.U. after   15 cycles
 SCF Done:  E(RB3LYP) =  -652.897835615     A.U. after   14 cycles
 SCF Done:  E(RB3LYP) =  -652.895498481     A.U. after   14 cycles
 SCF Done:  E(RB3LYP) =  -652.898185316     A.U. after   12 cycles
 SCF Done:  E(RB3LYP) =  -652.898810683     A.U. after   12 cycles
 SCF Done:  E(RB3LYP) =  -652.899077805     A.U. after   12 cycles
 SCF Done:  E(RB3LYP) =  -652.898879577     A.U. after   13 cycles
 SCF Done:  E(RB3LYP) =  -652.899252156     A.U. after   12 cycles
 SCF Done:  E(RB3LYP) =  -652.899339629     A.U. after   11 cycles
 SCF Done:  E(RB3LYP) =  -652.899408041     A.U. after   12 cycles
 SCF Done:  E(RB3LYP) =  -652.899420124     A.U. after   10 cycles
 SCF Done:  E(RB3LYP) =  -652.899424485     A.U. after    9 cycles
 SCF Done:  E(RB3LYP) =  -652.899426512     A.U. after    9 cycles
 SCF Done:  E(RB3LYP) =  -652.899426710     A.U. after    7 cycles
 SCF Done:  E(RB3LYP) =  -652.899426759     A.U. after    7 cycles
 Optimization completed.
    -- Stationary point found.
 Normal termination of Gaussian 16 at Thu Dec 10 16:36:22 2020.

 --------------------------------------------------------------------
 #N Geom=AllCheck Guess=TCheck SCRF=Check GenChk RB3LYP/6-31G(d) Freq
 --------------------------------------------------------------------

 Structure from the checkpoint file:  "JID_5535.chk"
 -------------------------------
 CID_143524446_JID_5535_neutraal
 -------------------------------
 Charge =  0 Multiplicity = 1

 SCF Done:  E(RB3LYP) =  -652.899426759     A.U. after    1 cycles

  Exact polarizability: 147.034  18.092 119.402  -3.929   4.498 129.601
 Approx polarizability: 195.629  37.713 180.443 -12.894  14.423 232.903

                      1                      2                      3
                      A                      A                      A
 Frequencies --     36.2301                55.5389                66.5728
 Red. masses --      4.0202                 3.5696                 4.5991
 Frc consts  --      0.0031                 0.0065                 0.0120
 IR Inten    --      0.4979                 0.0534                 0.3746

                      4                      5                      6
                      A                      A                      A
 Frequencies --     73.5030               101.9901               122.0734
 Red. masses --      2.9497                 2.7699                 4.3227
 Frc consts  --      0.0094                 0.0170                 0.0380
 IR Inten    --      0.8211                 5.6896                 2.5897

                      7                      8                      9
                      A                      A                      A
 Frequencies --    126.3691               174.2072               193.2315
 Red. masses --      1.4324                 3.2856                 2.7029
 Frc consts  --      0.0135                 0.0587                 0.0595
 IR Inten    --      4.2181                 0.4662                 1.2113

                     10                     11                     12
                      A                      A                      A
 Frequencies --    235.0914               242.6245               284.5044
 Red. masses --      2.2308                 1.3845                 1.1918
 Frc consts  --      0.0726                 0.0480                 0.0568
 IR Inten    --      1.0253                 0.3824                 0.3672

                     13                     14                     15
                      A                      A                      A
 Frequencies --    304.1025               333.8126               340.4132
 Red. masses --      2.8613                 4.0027                 2.0164
 Frc consts  --      0.1559                 0.2628                 0.1377
 IR Inten    --      3.5298                 5.8578                 0.1453

                     16                     17                     18
                      A                      A                      A
 Frequencies --    380.9146               388.3947               408.8143
 Red. masses --      2.1857                 2.5922                 2.7341
 Frc consts  --      0.1869                 0.2304                 0.2692
 IR Inten    --      2.8291                 0.2142                 1.3630

                     19                     20                     21
                      A                      A                      A
 Frequencies --    439.6859               466.6544               508.9164
 Red. masses --      3.2392                 3.3859                 4.4085
 Frc consts  --      0.3690                 0.4344                 0.6727
 IR Inten    --      2.8902                 3.4423                 8.9176

                     22                     23                     24
                      A                      A                      A
 Frequencies --    594.3079               618.0590               634.3112
 Red. masses --      2.7721                 3.5636                 2.9683
 Frc consts  --      0.5769                 0.8020                 0.7037
 IR Inten    --      2.6361                 3.9874                13.6480

                     25                     26                     27
                      A                      A                      A
 Frequencies --    687.4131               756.9564               773.3403
 Red. masses --      6.8697                 2.9981                 2.4816
 Frc consts  --      1.9126                 1.0121                 0.8744
 IR Inten    --      0.4668                13.2866                83.9755

                     28                     29                     30
                      A                      A                      A
 Frequencies --    813.7592               848.7714               856.2027
 Red. masses --      1.5779                 1.9636                 2.7149
 Frc consts  --      0.6156                 0.8335                 1.1726
 IR Inten    --     32.1862                 2.3612                 4.5752

                     31                     32                     33
                      A                      A                      A
 Frequencies --    891.3833               897.4809               928.3107
 Red. masses --      1.3281                 2.5485                 1.9433
 Frc consts  --      0.6217                 1.2094                 0.9867
 IR Inten    --      2.0872                26.8904                 1.1724

                     34                     35                     36
                      A                      A                      A
 Frequencies --    948.1174               967.6686               974.9287
 Red. masses --      1.2907                 1.6888                 1.6634
 Frc consts  --      0.6836                 0.9317                 0.9315
 IR Inten    --      3.5602                 4.8604                 6.2383

                     37                     38                     39
                      A                      A                      A
 Frequencies --    981.2841               987.7527               993.1929
 Red. masses --      1.5426                 1.4860                 1.4628
 Frc consts  --      0.8752                 0.8542                 0.8502
 IR Inten    --     10.3368                 0.7978                 0.2532

                     40                     41                     42
                      A                      A                      A
 Frequencies --   1016.0260              1037.7646              1090.9311
 Red. masses --      7.2586                 1.6009                 2.1607
 Frc consts  --      4.4148                 1.0158                 1.5151
 IR Inten    --      5.4317                 5.5857                10.9596

                     43                     44                     45
                      A                      A                      A
 Frequencies --   1102.9792              1127.6459              1143.9617
 Red. masses --      2.0092                 1.5883                 4.1277
 Frc consts  --      1.4401                 1.1900                 3.1826
 IR Inten    --      1.4054                 1.7357                47.8497

                     46                     47                     48
                      A                      A                      A
 Frequencies --   1158.5021              1168.1979              1194.4953
 Red. masses --      2.3122                 1.8148                 1.8173
 Frc consts  --      1.8284                 1.4592                 1.5277
 IR Inten    --      1.1646                 2.8672                41.5435

                     49                     50                     51
                      A                      A                      A
 Frequencies --   1211.7731              1233.5809              1257.3254
 Red. masses --      1.8968                 3.2511                 1.2915
 Frc consts  --      1.6410                 2.9148                 1.2029
 IR Inten    --     10.6976                10.4645                 8.2895

                     52                     53                     54
                      A                      A                      A
 Frequencies --   1268.7138              1308.1640              1317.1937
 Red. masses --      1.6751                 1.9320                 2.5085
 Frc consts  --      1.5886                 1.9480                 2.5643
 IR Inten    --      8.3525                 8.3485                 3.6303

                     55                     56                     57
                      A                      A                      A
 Frequencies --   1360.9196              1368.8085              1374.3964
 Red. masses --      1.3508                 1.4144                 1.3266
 Frc consts  --      1.4740                 1.5614                 1.4764
 IR Inten    --      1.9666                 2.9750                11.8155

                     58                     59                     60
                      A                      A                      A
 Frequencies --   1391.7098              1406.1020              1415.2327
 Red. masses --      1.3028                 1.2270                 1.3321
 Frc consts  --      1.4867                 1.4294                 1.5720
 IR Inten    --      2.2269                11.4893                22.5453

                     61                     62                     63
                      A                      A                      A
 Frequencies --   1422.6869              1445.7108              1462.4413
 Red. masses --      1.2704                 1.2316                 2.0347
 Frc consts  --      1.5150                 1.5167                 2.5639
 IR Inten    --     10.7626                 3.9008                24.2793

                     64                     65                     66
                      A                      A                      A
 Frequencies --   1491.0501              1501.6938              1503.7151
 Red. masses --      1.0552                 1.0602                 1.0926
 Frc consts  --      1.3821                 1.4086                 1.4556
 IR Inten    --      6.6175                 4.3990                 3.1756

                     67                     68                     69
                      A                      A                      A
 Frequencies --   1518.2805              1523.6332              1526.8607
 Red. masses --      1.0530                 1.1045                 1.1474
 Frc consts  --      1.4301                 1.5107                 1.5761
 IR Inten    --      3.7319                17.5246                13.5304

                     70                     71                     72
                      A                      A                      A
 Frequencies --   1536.4987              1543.5137              1546.9339
 Red. masses --      1.0494                 2.0659                 1.0475
 Frc consts  --      1.4597                 2.8999                 1.4768
 IR Inten    --      3.9497                 1.5444                11.0873

                     73                     74                     75
                      A                      A                      A
 Frequencies --   1621.2767              1654.9089              1800.3013
 Red. masses --      6.5427                 5.3087                 9.8860
 Frc consts  --     10.1327                 8.5661                18.8783
 IR Inten    --     12.4491                40.0751                91.0395

                     76                     77                     78
                      A                      A                      A
 Frequencies --   3033.4898              3037.8503              3042.8685
 Red. masses --      1.0782                 1.0403                 1.0458
 Frc consts  --      5.8458                 5.6564                 5.7053
 IR Inten    --      0.9821                19.7803                23.9798

                     79                     80                     81
                      A                      A                      A
 Frequencies --   3048.2704              3057.1393              3061.4430
 Red. masses --      1.0606                 1.0570                 1.0604
 Frc consts  --      5.8066                 5.8203                 5.8555
 IR Inten    --     38.0085                10.5456                19.3449

                     82                     83                     84
                      A                      A                      A
 Frequencies --   3091.4362              3100.4407              3108.2162
 Red. masses --      1.1052                 1.0987                 1.0984
 Frc consts  --      6.2233                 6.2227                 6.2521
 IR Inten    --     18.0016                11.3581                61.3769

                     85                     86                     87
                      A                      A                      A
 Frequencies --   3119.1501              3123.8828              3147.8531
 Red. masses --      1.1021                 1.0980                 1.0992
 Frc consts  --      6.3174                 6.3129                 6.4171
 IR Inten    --     36.9420                 4.6335                14.4390

                     88                     89                     90
                      A                      A                      A
 Frequencies --   3165.7165              3167.8357              3177.4035
 Red. masses --      1.1042                 1.0877                 1.0890
 Frc consts  --      6.5198                 6.4311                 6.4775
 IR Inten    --      7.4806                21.3199                23.2099

                     91                     92                     93
                      A                      A                      A
 Frequencies --   3191.9426              3205.9839              3486.6876
 Red. masses --      1.0941                 1.0940                 1.0734
 Frc consts  --      6.5675                 6.6249                 7.6886
 IR Inten    --     20.2140                 8.3637                 6.7304

 - Thermochemistry -
 -------------------
 Temperature   298.150 Kelvin.  Pressure   1.00000 Atm.
 Atom     1 has atomic number  6 and mass  12.00000

 Molecular mass:   206.14191 amu.
 Principal axes and moments of inertia in atomic units:
                           1         2         3
     Eigenvalues --  1668.061174559.106745012.89491
           X            0.99991   0.00394   0.01266
           Y           -0.00345   0.99923  -0.03898
           Z           -0.01281   0.03894   0.99916
 This molecule is an asymmetric top.
 Rotational symmetry number  1.
 Warning -- assumption of classical behavior for rotation
           may cause significant error
 Rotational temperatures (Kelvin)      0.05192     0.01900     0.01728
 Rotational constants (GHZ):           1.08194     0.39585     0.36002
 Zero-point vibrational energy     752800.6 (Joules/Mol)
                                  179.92365 (Kcal/Mol)
 Warning -- explicit consideration of  23 degrees of freedom as
           vibrations may cause significant error
 Vibrational temperatures:     52.13    79.91    95.78   105.75   146.74
          (Kelvin)            175.64   181.82   250.65   278.02   338.24
                              349.08   409.34   437.54   480.28   489.78
                              548.05   558.81   588.19   632.61   671.41
                              732.22   855.08   889.25   912.63   989.03
                             1089.09  1112.66  1170.82  1221.19  1231.88
                             1282.50  1291.27  1335.63  1364.13  1392.26
                             1402.70  1411.85  1421.16  1428.98  1461.83
                             1493.11  1569.61  1586.94  1622.43  1645.91
                             1666.83  1680.78  1718.61  1743.47  1774.85
                             1809.01  1825.40  1882.16  1895.15  1958.06
                             1969.41  1977.45  2002.36  2023.07  2036.20
                             2046.93  2080.06  2104.13  2145.29  2160.60
                             2163.51  2184.47  2192.17  2196.81  2210.68
                             2220.77  2225.69  2332.66  2381.04  2590.23
                             4364.52  4370.79  4378.01  4385.78  4398.54
                             4404.73  4447.89  4460.84  4472.03  4487.76
                             4494.57  4529.06  4554.76  4557.81  4571.57
                             4592.49  4612.70  5016.57

 Zero-point correction=                           0.286727 (Hartree/Particle)
 Thermal correction to Energy=                    0.302183
 Thermal correction to Enthalpy=                  0.303127
 Thermal correction to Gibbs Free Energy=         0.243675
 Sum of electronic and zero-point Energies=           -652.612700
 Sum of electronic and thermal Energies=              -652.597243
 Sum of electronic and thermal Enthalpies=            -652.596299
 Sum of electronic and thermal Free Energies=         -652.655752

                     E (Thermal)             CV                S
                      KCal/Mol        Cal/Mol-Kelvin    Cal/Mol-Kelvin
 Total                  189.623             57.976            125.128
 Electronic               0.000              0.000              0.000
 Translational            0.889              2.981             41.874
 Rotational               0.889              2.981             32.011
 Vibrational            187.845             52.015             51.243
 Vibration     1          0.594              1.982              5.455
 Vibration     2          0.596              1.975              4.610
 Vibration     3          0.598              1.970              4.252
 Vibration     4          0.599              1.966              4.057
 Vibration     5          0.604              1.948              3.416
 Vibration     6          0.610              1.931              3.067
 Vibration     7          0.611              1.927              3.001
 Vibration     8          0.627              1.874              2.390
 Vibration     9          0.635              1.849              2.197
 Vibration    10          0.655              1.787              1.840
 Vibration    11          0.659              1.775              1.784
 Vibration    12          0.683              1.702              1.506
 Vibration    13          0.695              1.666              1.394
 Vibration    14          0.715              1.608              1.242
 Vibration    15          0.720              1.595              1.210
 Vibration    16          0.751              1.511              1.036
 Vibration    17          0.757              1.495              1.006
 Vibration    18          0.773              1.451              0.931
 Vibration    19          0.800              1.384              0.828
 Vibration    20          0.824              1.324              0.747
 Vibration    21          0.864              1.230              0.636
 Vibration    22          0.952              1.044              0.460
 Vibration    23          0.978              0.994              0.420

 Optimization completed.
    -- Stationary point found.
 Normal termination of Gaussian 16 at Thu Dec 10 16:47:55 2020.

 ----------------------------------------------------------------------
 # B3LYP/6-311++G(d,p) empiricaldispersion=gd3bj scf=xqc pop=npa geom=c
 heck
 ----------------------------------------------------------------------

 ---------------------------------------
 CID_143524446_JID_5535_Energie_neutraal
 ---------------------------------------
 Structure from the checkpoint file:  "JID_5535.chk"
 Charge =  0 Multiplicity = 1

 SCF Done:  E(RB3LYP) =  -653.081392256     A.U. after   15 cycles
 Normal termination of Gaussian 16 at Thu Dec 10 16:53:23 2020.

 ----------------------------------------------------------------------
 # B3LYP/6-311++G(d,p) empiricaldispersion=gd3bj scf=xqc pop=npa geom=c
 heck
 ----------------------------------------------------------------------

 -------------------------------------
 CID_143524446_JID_5535_Energie_kation
 -------------------------------------
 Structure from the checkpoint file:  "JID_5535.chk"
 Charge =  1 Multiplicity = 2

 SCF Done:  E(UB3LYP) =  -652.777653679     A.U. after   24 cycles
 Normal termination of Gaussian 16 at Thu Dec 10 17:10:52 2020.
 Gaussian 16:  ES64L-G16RevA.03 25-Dec-2016

 ----------------------------------------------------------------------
 # B3LYP/6-311++G(d,p) empiricaldispersion=gd3bj scf=xqc pop=npa geom=c
 heck
 ----------------------------------------------------------------------

 ------------------------------------
 CID_143524446_JID_5535_Energie_anion
 ------------------------------------
 Structure from the checkpoint file:  "JID_5535.chk"
 Charge = -1 Multiplicity = 2

                         Standard orientation:
 ---------------------------------------------------------------------
 Center     Atomic      Atomic             Coordinates (Angstroms)
 Number     Number       Type             X           Y           Z
 ---------------------------------------------------------------------
      1          6           0       -3.395544    1.168689   -0.756854
      2          6           0       -2.876463   -0.055156    0.008624
      3          6           0       -3.514683   -1.342757   -0.518749
      4          6           0       -1.329053   -0.176129   -0.023563
      5          6           0       -0.695452    1.154722    0.422427
      6          8           0       -0.657937    1.420586    1.612300
      7          6           0       -0.127933    2.079316   -0.627515
      8          7           0       -0.907805   -1.271289    0.856063
      9          6           0        0.315838   -1.966030    0.450429
     10          6           0        1.511856   -1.083402    0.134325
     11          6           0        2.099441   -0.269580    1.109078
     12          6           0        3.146368    0.575288    0.749292
     13          7           0        3.643889    0.662379   -0.493203
     14          6           0        3.087879   -0.126298   -1.419970
     15          6           0        2.032424   -1.002145   -1.159322
     16          1           0       -3.085035    1.138521   -1.809540
     17          1           0       -3.042699    2.110988   -0.324161
     18          1           0       -4.490485    1.189550   -0.739765
     19          1           0       -3.143871    0.064058    1.067787
     20          1           0       -3.308815   -1.466680   -1.590457
     21          1           0       -3.117545   -2.211335    0.011858
     22          1           0       -4.602870   -1.317349   -0.390907
     23          1           0       -1.018274   -0.407390   -1.050353
     24          1           0        0.811004    1.650014   -0.998713
     25          1           0       -0.801712    2.172258   -1.485419
     26          1           0        0.076189    3.061079   -0.195328
     27          1           0       -0.805033   -0.879014    1.791474
     28          1           0        0.571895   -2.662495    1.257478
     29          1           0        0.084447   -2.575016   -0.431890
     30          1           0        1.728729   -0.269599    2.129851
     31          1           0        3.607511    1.221499    1.493638
     32          1           0        3.502002   -0.050135   -2.424131
     33          1           0        1.617408   -1.610396   -1.959047
 ---------------------------------------------------------------------

 SCF Done:  E(UB3LYP) =  -653.076255170     A.U. after   33 cycles
 SCF Done:  E(UB3LYP) =  -653.076255170     a.u. after    1 cycles

 The electronic state is 2-A.
 Alpha  occ. eigenvalues --  -18.97906 -14.17784 -14.16098 -10.11865 -10.08362
 Alpha  occ. eigenvalues --  -10.07925 -10.07169 -10.06891 -10.06790 -10.06024
 Alpha  occ. eigenvalues --  -10.05159 -10.04839 -10.04715 -10.04520 -10.04254
 Alpha  occ. eigenvalues --   -0.91444  -0.80620  -0.79086  -0.69816  -0.67261
 Alpha  occ. eigenvalues --   -0.62937  -0.62721  -0.58808  -0.57916  -0.53557
 Alpha  occ. eigenvalues --   -0.49817  -0.47108  -0.46654  -0.42338  -0.38649
 Alpha  occ. eigenvalues --   -0.37141  -0.36155  -0.35027  -0.34665  -0.34002
 Alpha  occ. eigenvalues --   -0.33017  -0.31519  -0.30574  -0.29900  -0.29682
 Alpha  occ. eigenvalues --   -0.28549  -0.28188  -0.27447  -0.26737  -0.26117
 Alpha  occ. eigenvalues --   -0.25550  -0.24264  -0.23163  -0.22744  -0.22320
 Alpha  occ. eigenvalues --   -0.21218  -0.15641  -0.13837  -0.13530  -0.12596
 Alpha  occ. eigenvalues --   -0.10388   0.05009
 Alpha virt. eigenvalues --    0.06742   0.08114   0.08425   0.09006   0.09578
 Alpha virt. eigenvalues --    0.09865   0.10267   0.10790   0.10921   0.11223
 Alpha virt. eigenvalues --    0.11666   0.12393   0.12772   0.13302   0.13808

  Beta  occ. eigenvalues --  -18.97773 -14.17735 -14.15718 -10.11625 -10.08379
  Beta  occ. eigenvalues --  -10.07939 -10.07151 -10.06867 -10.06763 -10.06018
  Beta  occ. eigenvalues --  -10.05179 -10.04819 -10.04703 -10.04255 -10.04202
  Beta  occ. eigenvalues --   -0.91141  -0.80156  -0.78936  -0.69676  -0.66877
  Beta  occ. eigenvalues --   -0.62747  -0.62518  -0.58734  -0.57872  -0.53346
  Beta  occ. eigenvalues --   -0.49721  -0.46837  -0.46502  -0.42075  -0.38506
  Beta  occ. eigenvalues --   -0.36985  -0.36001  -0.34866  -0.34517  -0.33847
  Beta  occ. eigenvalues --   -0.32820  -0.31352  -0.30335  -0.29867  -0.29640
  Beta  occ. eigenvalues --   -0.28461  -0.28147  -0.27268  -0.26566  -0.25532
  Beta  occ. eigenvalues --   -0.25230  -0.23892  -0.23069  -0.22606  -0.22220
  Beta  occ. eigenvalues --   -0.20895  -0.14397  -0.13458  -0.12966  -0.12204
  Beta  occ. eigenvalues --   -0.10200
  Beta virt. eigenvalues --    0.07005   0.08268   0.08545   0.09005   0.09751
  Beta virt. eigenvalues --    0.10015   0.10324   0.10500   0.10855   0.11218
  Beta virt. eigenvalues --    0.11647   0.12042   0.12518   0.12794   0.13365

 Mulliken charges and spin densities:
               1          2
     1  C   -0.310223  -0.457410
     2  C   -0.429437   1.164182
     3  C    0.224657  -0.795856
     4  C   -0.057611  -0.801831
     5  C    0.132246   0.158566
     6  O   -0.287157   0.059088
     7  C   -0.611686  -0.013193
     8  N    0.111934   0.040324
     9  C   -0.159353  -0.611328
    10  C    0.438253   0.278492
    11  C   -0.086361   0.238420
    12  C   -0.437309  -0.042290
    13  N   -0.141357   0.161626
    14  C   -0.365078  -0.099866
    15  C   -0.266632   0.163728
    16  H    0.083177   0.057370
    17  H    0.103624   0.059042
    18  H   -0.044091   0.191805
    19  H    0.104955   0.058684
    20  H    0.023526   0.086511
    21  H    0.018716   0.160380
    22  H   -0.252393   0.391692
    23  H    0.285092  -0.081305
    24  H    0.152901   0.008507
    25  H    0.089291   0.030090
    26  H    0.141071   0.007659
    27  H    0.211854   0.053589
    28  H   -0.171640   0.357262
    29  H    0.089357   0.052131
    30  H    0.118248   0.049044
    31  H    0.130325  -0.001249
    32  H    0.124197  -0.004617
    33  H    0.036903   0.080756
 Sum of Mulliken charges =  -1.00000   1.00000

 Dipole moment (field-independent basis, Debye):
    X=             -0.9901    Y=              0.6836    Z=             -1.8641  Tot=              2.2186
 Quadrupole moment (field-independent basis, Debye-Ang):
   XX=           -160.4828   YY=           -121.0628   ZZ=           -109.6195
   XY=             -6.8267   XZ=              2.1983   YZ=              0.2361

 Summary of Natural Population Analysis:

                                       Natural Population
                Natural  -----------------------------------------------
    Atom  No    Charge         Core      Valence    Rydberg      Total
 -----------------------------------------------------------------------
      C    1   -0.28733      0.99965     2.28202    0.00566     3.28733
      C    2   -0.10863      0.99960     2.09865    0.01038     3.10863
      C    3   -0.28653      0.99965     2.28088    0.00601     3.28653
      C    4   -0.04932      0.99952     2.03635    0.01345     3.04932
      C    5    0.32454      0.99966     1.65398    0.02182     2.67546
      O    6   -0.29573      0.99987     3.28880    0.00706     4.29573
      C    7   -0.33654      0.99961     2.33220    0.00473     3.33654
      N    8   -0.33638      0.99975     2.82414    0.01250     3.83638
      C    9   -0.09340      0.99959     2.08121    0.01260     3.09340
      C   10    0.02686      0.99949     1.96393    0.00972     2.97314
      C   11   -0.11479      0.99950     2.10535    0.00994     3.11479
      C   12    0.02322      0.99960     1.96139    0.01580     2.97678
      N   13   -0.19743      0.99971     2.68562    0.01210     3.69743
      C   14    0.01752      0.99960     1.96663    0.01626     2.98248
      C   15   -0.12919      0.99950     2.12030    0.00938     3.12919
      H   16    0.09344      0.00000     0.40576    0.00080     0.40656
      H   17    0.10166      0.00000     0.39752    0.00081     0.39834
      H   18    0.09834      0.00000     0.40093    0.00073     0.40166
      H   19    0.09690      0.00000     0.40135    0.00175     0.40310
      H   20    0.09064      0.00000     0.40854    0.00082     0.40936
      H   21    0.11160      0.00000     0.38705    0.00135     0.38840
      H   22    0.09581      0.00000     0.40319    0.00100     0.40419
      H   23    0.09499      0.00000     0.40342    0.00159     0.40501
      H   24    0.12323      0.00000     0.37575    0.00102     0.37677
      H   25    0.10160      0.00000     0.39749    0.00091     0.39840
      H   26    0.10407      0.00000     0.39437    0.00156     0.39593
      H   27    0.18119      0.00000     0.31617    0.00264     0.31881
      H   28    0.10047      0.00000     0.39826    0.00127     0.39953
      H   29    0.08848      0.00000     0.41051    0.00101     0.41152
      H   30    0.10098      0.00000     0.39767    0.00135     0.39902
      H   31    0.08293      0.00000     0.41601    0.00106     0.41707
      H   32    0.08146      0.00000     0.41745    0.00109     0.41854
      H   33    0.09533      0.00000     0.40364    0.00103     0.40467
 =======================================================================
   * Total *    0.00000     14.99428    40.81652    0.18920    56.00000

 Normal termination of Gaussian 16 at Thu Dec 10 17:32:11 2020.
