 Gaussian 16, Revision A.03,

 -----------------------------------------------------------
 # opt freq B3LYP/6-31G(d) empiricaldispersion=gd3bj scf=xqc
 -----------------------------------------------------------

 -------------------------------
 CID_17780654_JID_10508_neutraal
 -------------------------------
 Symbolic Z-matrix:
 Charge =  0 Multiplicity = 1

 SCF Done:  E(RB3LYP) =  -826.010470846     A.U. after   14 cycles
 SCF Done:  E(RB3LYP) =  -826.013319160     A.U. after   13 cycles
 SCF Done:  E(RB3LYP) =  -826.012052975     A.U. after   13 cycles
 SCF Done:  E(RB3LYP) =  -826.012883684     A.U. after   12 cycles
 SCF Done:  E(RB3LYP) =  -826.014975868     A.U. after    9 cycles
 SCF Done:  E(RB3LYP) =  -826.015542997     A.U. after   12 cycles
 SCF Done:  E(RB3LYP) =  -826.016048412     A.U. after   13 cycles
 SCF Done:  E(RB3LYP) =  -826.016317500     A.U. after   11 cycles
 SCF Done:  E(RB3LYP) =  -826.016451592     A.U. after   12 cycles
 SCF Done:  E(RB3LYP) =  -826.016482866     A.U. after   10 cycles
 SCF Done:  E(RB3LYP) =  -826.016502786     A.U. after    9 cycles
 SCF Done:  E(RB3LYP) =  -826.016508494     A.U. after    9 cycles
 SCF Done:  E(RB3LYP) =  -826.016509742     A.U. after    8 cycles
 SCF Done:  E(RB3LYP) =  -826.016509974     A.U. after    7 cycles
 SCF Done:  E(RB3LYP) =  -826.016510009     A.U. after    7 cycles
 Optimization completed.
    -- Stationary point found.
 Normal termination of Gaussian 16 at Sat Dec 12 15:49:20 2020.

 --------------------------------------------------------------------
 #N Geom=AllCheck Guess=TCheck SCRF=Check GenChk RB3LYP/6-31G(d) Freq
 --------------------------------------------------------------------

 Structure from the checkpoint file:  "JID_10508.chk"
 -------------------------------
 CID_17780654_JID_10508_neutraal
 -------------------------------
 Charge =  0 Multiplicity = 1

 SCF Done:  E(RB3LYP) =  -826.016510009     A.U. after    1 cycles

  Exact polarizability: 271.214  -4.063 189.342   1.369  11.337 133.748
 Approx polarizability: 375.836  -8.687 297.755   4.279  28.573 212.604

                      1                      2                      3
                      A                      A                      A
 Frequencies --     32.3420                42.8483                50.2201
 Red. masses --      3.2039                 4.5666                 3.9709
 Frc consts  --      0.0020                 0.0049                 0.0059
 IR Inten    --      0.0479                 0.2363                 0.2341

                      4                      5                      6
                      A                      A                      A
 Frequencies --     78.1146                87.4007               109.7437
 Red. masses --      3.6398                 4.1211                 3.0588
 Frc consts  --      0.0131                 0.0185                 0.0217
 IR Inten    --      0.0559                 0.0977                 0.4310

                      7                      8                      9
                      A                      A                      A
 Frequencies --    136.4658               162.7898               192.8833
 Red. masses --      3.3735                 3.6536                 1.5043
 Frc consts  --      0.0370                 0.0570                 0.0330
 IR Inten    --      0.2067                 0.3047                 0.2001

                     10                     11                     12
                      A                      A                      A
 Frequencies --    226.7672               228.1797               241.2621
 Red. masses --      3.1636                 1.4305                 2.5655
 Frc consts  --      0.0959                 0.0439                 0.0880
 IR Inten    --      0.0191                 0.0820                 0.2696

                     13                     14                     15
                      A                      A                      A
 Frequencies --    249.0048               261.0704               269.8952
 Red. masses --      1.4905                 1.4348                 1.2483
 Frc consts  --      0.0545                 0.0576                 0.0536
 IR Inten    --      0.0728                 0.0291                 0.0776

                     16                     17                     18
                      A                      A                      A
 Frequencies --    293.4250               305.4801               328.5488
 Red. masses --      1.9180                 2.5932                 1.3462
 Frc consts  --      0.0973                 0.1426                 0.0856
 IR Inten    --      0.1807                 0.9569                 0.1155

                     19                     20                     21
                      A                      A                      A
 Frequencies --    330.8395               344.1488               356.4505
 Red. masses --      1.3708                 1.6771                 2.9790
 Frc consts  --      0.0884                 0.1170                 0.2230
 IR Inten    --      0.1118                 0.2894                 0.1218

                     22                     23                     24
                      A                      A                      A
 Frequencies --    362.3507               379.8092               388.6687
 Red. masses --      2.9802                 2.2601                 2.5553
 Frc consts  --      0.2305                 0.1921                 0.2274
 IR Inten    --      0.0717                 0.5655                 0.3898

                     25                     26                     27
                      A                      A                      A
 Frequencies --    400.4117               425.2811               456.9044
 Red. masses --      2.7034                 2.2810                 3.0225
 Frc consts  --      0.2554                 0.2431                 0.3718
 IR Inten    --      0.0803                 0.3134                 2.1284

                     28                     29                     30
                      A                      A                      A
 Frequencies --    465.1213               500.9938               548.9721
 Red. masses --      3.1779                 3.0702                 3.2733
 Frc consts  --      0.4051                 0.4540                 0.5812
 IR Inten    --      1.5043                 2.2179                 1.8631

                     31                     32                     33
                      A                      A                      A
 Frequencies --    558.8044               581.0036               606.1862
 Red. masses --      3.0931                 3.7871                 3.1265
 Frc consts  --      0.5691                 0.7532                 0.6769
 IR Inten    --      0.5832                 2.7450                 2.4179

                     34                     35                     36
                      A                      A                      A
 Frequencies --    669.0344               693.7603               715.0617
 Red. masses --      3.8522                 6.2608                 8.4755
 Frc consts  --      1.0159                 1.7754                 2.5533
 IR Inten    --      2.5655                 5.8697                15.4217

                     37                     38                     39
                      A                      A                      A
 Frequencies --    744.3391               775.2210               805.2055
 Red. masses --      6.2984                 3.8913                 4.3412
 Frc consts  --      2.0560                 1.3778                 1.6583
 IR Inten    --     21.4693                 2.4630                 5.8214

                     40                     41                     42
                      A                      A                      A
 Frequencies --    839.5975               842.8079               868.4897
 Red. masses --      1.9243                 2.4722                 3.4279
 Frc consts  --      0.7992                 1.0347                 1.5234
 IR Inten    --     28.4570                 4.4838                 6.4520

                     43                     44                     45
                      A                      A                      A
 Frequencies --    916.0133               919.7706               941.4105
 Red. masses --      2.8089                 1.5736                 1.7825
 Frc consts  --      1.3887                 0.7843                 0.9308
 IR Inten    --      9.9036                 3.3742                 1.0592

                     46                     47                     48
                      A                      A                      A
 Frequencies --    943.6614               950.6044               954.2325
 Red. masses --      1.6961                 1.7263                 1.6833
 Frc consts  --      0.8899                 0.9191                 0.9031
 IR Inten    --      3.1504                 1.6329                 2.3327

                     49                     50                     51
                      A                      A                      A
 Frequencies --    966.5662               973.4286               976.0165
 Red. masses --      1.3422                 1.5676                 1.1983
 Frc consts  --      0.7388                 0.8752                 0.6725
 IR Inten    --      0.8833                 0.1739                 0.2172

                     52                     53                     54
                      A                      A                      A
 Frequencies --    976.7942              1013.3845              1033.9581
 Red. masses --      1.2068                12.4991                 1.4921
 Frc consts  --      0.6784                 7.5627                 0.9398
 IR Inten    --      0.2176                 9.2610                 0.0454

                     55                     56                     57
                      A                      A                      A
 Frequencies --   1055.2063              1062.4673              1063.7216
 Red. masses --      1.5204                 1.4073                 1.3924
 Frc consts  --      0.9975                 0.9360                 0.9282
 IR Inten    --      0.8207                 1.9115                 0.0014

                     58                     59                     60
                      A                      A                      A
 Frequencies --   1067.0736              1082.5584              1146.3644
 Red. masses --      1.4470                 3.6130                 3.4167
 Frc consts  --      0.9708                 2.4947                 2.6455
 IR Inten    --      0.1185                 2.3998                22.9700

                     61                     62                     63
                      A                      A                      A
 Frequencies --   1171.9853              1184.0549              1195.9538
 Red. masses --      2.0398                 4.4456                 2.8116
 Frc consts  --      1.6507                 3.6722                 2.3694
 IR Inten    --      5.4245                 2.0809                 1.8684

                     64                     65                     66
                      A                      A                      A
 Frequencies --   1204.1467              1241.6480              1243.1785
 Red. masses --      1.8362                 2.7385                 2.7075
 Frc consts  --      1.5687                 2.4875                 2.4654
 IR Inten    --      0.6583                 4.5764                 1.4314

                     67                     68                     69
                      A                      A                      A
 Frequencies --   1246.2143              1250.0759              1280.7441
 Red. masses --      2.1694                 2.6196                 2.9700
 Frc consts  --      1.9851                 2.4119                 2.8703
 IR Inten    --      8.0436                 0.9946                17.2987

                     70                     71                     72
                      A                      A                      A
 Frequencies --   1286.7415              1311.0470              1333.8475
 Red. masses --      2.8395                 2.8211                 6.6899
 Frc consts  --      2.7700                 2.8570                 7.0127
 IR Inten    --     22.6862                10.6402                 2.1073

                     73                     74                     75
                      A                      A                      A
 Frequencies --   1343.3514              1371.8203              1422.8252
 Red. masses --      1.5553                 2.8725                 1.3644
 Frc consts  --      1.6536                 3.1850                 1.6275
 IR Inten    --      6.6507                 6.9570                 2.6052

                     76                     77                     78
                      A                      A                      A
 Frequencies --   1424.4273              1426.6874              1427.2275
 Red. masses --      1.2103                 1.2286                 1.2114
 Frc consts  --      1.4469                 1.4734                 1.4539
 IR Inten    --      4.0595                 1.4063                 4.8740

                     79                     80                     81
                      A                      A                      A
 Frequencies --   1434.9880              1447.8650              1458.9898
 Red. masses --      1.5085                 2.1265                 1.2406
 Frc consts  --      1.8302                 2.6265                 1.5560
 IR Inten    --     31.4954                16.1515                13.9113

                     82                     83                     84
                      A                      A                      A
 Frequencies --   1459.3583              1469.5123              1509.3539
 Red. masses --      1.2303                 2.4298                 1.0494
 Frc consts  --      1.5438                 3.0914                 1.4085
 IR Inten    --     10.9377               292.5636                 0.1304

                     85                     86                     87
                      A                      A                      A
 Frequencies --   1512.6784              1516.5560              1520.0773
 Red. masses --      1.0496                 1.0462                 1.0863
 Frc consts  --      1.4150                 1.4176                 1.4789
 IR Inten    --      0.0209                 0.1659                 4.5237

                     88                     89                     90
                      A                      A                      A
 Frequencies --   1521.0133              1525.6866              1532.5834
 Red. masses --      1.0498                 1.0761                 1.1432
 Frc consts  --      1.4310                 1.4759                 1.5820
 IR Inten    --      0.2796                 3.6244                 4.7349

                     91                     92                     93
                      A                      A                      A
 Frequencies --   1537.7906              1538.3780              1545.1455
 Red. masses --      1.0718                 1.0503                 1.4254
 Frc consts  --      1.4934                 1.4646                 2.0051
 IR Inten    --      2.1022                 5.5808                23.0888

                     94                     95                     96
                      A                      A                      A
 Frequencies --   1551.2971              1555.1951              1562.9926
 Red. masses --      1.0652                 1.3884                 1.0682
 Frc consts  --      1.5103                 1.9785                 1.5376
 IR Inten    --      6.5345                11.3712                 7.9352

                     97                     98                     99
                      A                      A                      A
 Frequencies --   1569.3779              1613.0361              1617.2514
 Red. masses --      5.7622                 5.8676                 5.0939
 Frc consts  --      8.3617                 8.9949                 7.8497
 IR Inten    --    119.5581                18.0039               422.1561

                    100                    101                    102
                      A                      A                      A
 Frequencies --   1665.0865              3043.1313              3046.0239
 Red. masses --      5.2921                 1.0398                 1.0350
 Frc consts  --      8.6448                 5.6733                 5.6578
 IR Inten    --     44.4057                34.8617                25.9272

                    103                    104                    105
                      A                      A                      A
 Frequencies --   3046.0835              3050.6442              3053.7381
 Red. masses --      1.0349                 1.0364                 1.0362
 Frc consts  --      5.6577                 5.6828                 5.6933
 IR Inten    --     24.2115                23.3130                28.8405

                    106                    107                    108
                      A                      A                      A
 Frequencies --   3060.8437              3102.8421              3112.4313
 Red. masses --      1.0421                 1.1015                 1.1022
 Frc consts  --      5.7521                 6.2484                 6.2908
 IR Inten    --     32.0140                20.1860                 3.4009

                    109                    110                    111
                      A                      A                      A
 Frequencies --   3112.9256              3113.0642              3118.6688
 Red. masses --      1.1024                 1.1024                 1.1029
 Frc consts  --      6.2942                 6.2948                 6.3199
 IR Inten    --      5.8284                 4.6046                21.6208

                    112                    113                    114
                      A                      A                      A
 Frequencies --   3120.6651              3120.9318              3123.3535
 Red. masses --      1.1015                 1.1015                 1.1024
 Frc consts  --      6.3203                 6.3215                 6.3364
 IR Inten    --     95.5997                59.2322                54.2983

                    115                    116                    117
                      A                      A                      A
 Frequencies --   3124.9592              3127.5956              3176.3301
 Red. masses --      1.1023                 1.1015                 1.0970
 Frc consts  --      6.3421                 6.3482                 6.5208
 IR Inten    --     20.4842                44.2720                 0.4577

                    118                    119                    120
                      A                      A                      A
 Frequencies --   3184.5956              3184.9040              3188.6579
 Red. masses --      1.0921                 1.0905                 1.0942
 Frc consts  --      6.5254                 6.5174                 6.5550
 IR Inten    --     26.3230                28.2498                31.7069

                    121                    122                    123
                      A                      A                      A
 Frequencies --   3209.9146              3231.3858              3251.7074
 Red. masses --      1.0878                 1.0925                 1.0865
 Frc consts  --      6.6037                 6.7215                 6.7686
 IR Inten    --      4.0524                12.2023                 9.5893

 - Thermochemistry -
 -------------------
 Temperature   298.150 Kelvin.  Pressure   1.00000 Atm.
 Atom     1 has atomic number  6 and mass  12.00000

 Molecular mass:   269.18920 amu.
 Principal axes and moments of inertia in atomic units:
                           1         2         3
     Eigenvalues --  2961.668178480.13553**********
           X            0.99985   0.01723  -0.00182
           Y           -0.01724   0.99985  -0.00274
           Z            0.00177   0.00277   0.99999
 This molecule is an asymmetric top.
 Rotational symmetry number  1.
 Warning -- assumption of classical behavior for rotation
           may cause significant error
 Rotational temperatures (Kelvin)      0.02924     0.01021     0.00842
 Rotational constants (GHZ):           0.60937     0.21282     0.17544
 Zero-point vibrational energy     980547.4 (Joules/Mol)
                                  234.35645 (Kcal/Mol)
 Warning -- explicit consideration of  33 degrees of freedom as
           vibrations may cause significant error
 Vibrational temperatures:     46.53    61.65    72.26   112.39   125.75
          (Kelvin)            157.90   196.34   234.22   277.52   326.27
                              328.30   347.12   358.26   375.62   388.32
                              422.17   439.52   472.71   476.00   495.15
                              512.85   521.34   546.46   559.21   576.10
                              611.88   657.38   669.21   720.82   789.85
                              803.99   835.93   872.17   962.59   998.17
                             1028.81  1070.94  1115.37  1158.51  1207.99
                             1212.61  1249.56  1317.94  1323.34  1354.48
                             1357.72  1367.71  1372.93  1390.67  1400.55
                             1404.27  1405.39  1458.03  1487.64  1518.21
                             1528.65  1530.46  1535.28  1557.56  1649.36
                             1686.23  1703.59  1720.71  1732.50  1786.45
                             1788.66  1793.02  1798.58  1842.71  1851.33
                             1886.30  1919.11  1932.78  1973.74  2047.13
                             2049.43  2052.68  2053.46  2064.63  2083.15
                             2099.16  2099.69  2114.30  2171.62  2176.41
                             2181.99  2187.05  2188.40  2195.12  2205.05
                             2212.54  2213.38  2223.12  2231.97  2237.58
                             2248.80  2257.98  2320.80  2326.86  2395.69
                             4378.39  4382.55  4382.63  4389.20  4393.65
                             4403.87  4464.30  4478.09  4478.81  4479.01
                             4487.07  4489.94  4490.32  4493.81  4496.12
                             4499.91  4570.03  4581.92  4582.37  4587.77
                             4618.35  4649.24  4678.48

 Zero-point correction=                           0.373471 (Hartree/Particle)
 Thermal correction to Energy=                    0.393077
 Thermal correction to Enthalpy=                  0.394021
 Thermal correction to Gibbs Free Energy=         0.326190
 Sum of electronic and zero-point Energies=           -825.643039
 Sum of electronic and thermal Energies=              -825.623433
 Sum of electronic and thermal Enthalpies=            -825.622489
 Sum of electronic and thermal Free Energies=         -825.690320

                     E (Thermal)             CV                S
                      KCal/Mol        Cal/Mol-Kelvin    Cal/Mol-Kelvin
 Total                  246.660             76.931            142.763
 Electronic               0.000              0.000              0.000
 Translational            0.889              2.981             42.670
 Rotational               0.889              2.981             33.912
 Vibrational            244.882             70.969             66.181
 Vibration     1          0.594              1.983              5.680
 Vibration     2          0.595              1.980              5.123
 Vibration     3          0.595              1.978              4.809
 Vibration     4          0.599              1.964              3.938
 Vibration     5          0.601              1.958              3.717
 Vibration     6          0.606              1.941              3.273
 Vibration     7          0.614              1.917              2.853
 Vibration     8          0.623              1.888              2.517
 Vibration     9          0.635              1.850              2.200
 Vibration    10          0.650              1.800              1.904
 Vibration    11          0.651              1.798              1.893
 Vibration    12          0.658              1.777              1.794
 Vibration    13          0.662              1.764              1.738
 Vibration    14          0.669              1.744              1.655
 Vibration    15          0.674              1.729              1.597
 Vibration    16          0.688              1.686              1.454
 Vibration    17          0.696              1.663              1.387
 Vibration    18          0.712              1.618              1.267
 Vibration    19          0.713              1.614              1.256
 Vibration    20          0.723              1.587              1.193
 Vibration    21          0.732              1.562              1.138
 Vibration    22          0.736              1.550              1.112
 Vibration    23          0.750              1.513              1.040
 Vibration    24          0.757              1.494              1.005
 Vibration    25          0.766              1.469              0.961
 Vibration    26          0.787              1.415              0.874
 Vibration    27          0.815              1.346              0.775
 Vibration    28          0.823              1.327              0.751
 Vibration    29          0.856              1.248              0.656
 Vibration    30          0.904              1.142              0.546
 Vibration    31          0.914              1.120              0.526
 Vibration    32          0.938              1.072              0.484
 Vibration    33          0.965              1.019              0.439

 Optimization completed.
    -- Stationary point found.
 Normal termination of Gaussian 16 at Sat Dec 12 16:12:52 2020.

 ----------------------------------------------------------------------
 # B3LYP/6-311++G(d,p) empiricaldispersion=gd3bj scf=xqc pop=npa geom=c
 heck
 ----------------------------------------------------------------------

 ---------------------------------------
 CID_17780654_JID_10508_Energie_neutraal
 ---------------------------------------
 Structure from the checkpoint file:  "JID_10508.chk"
 Charge =  0 Multiplicity = 1

 SCF Done:  E(RB3LYP) =  -826.227172034     A.U. after   15 cycles
 Normal termination of Gaussian 16 at Sat Dec 12 16:22:32 2020.

 ----------------------------------------------------------------------
 # B3LYP/6-311++G(d,p) empiricaldispersion=gd3bj scf=xqc pop=npa geom=c
 heck
 ----------------------------------------------------------------------

 -------------------------------------
 CID_17780654_JID_10508_Energie_kation
 -------------------------------------
 Structure from the checkpoint file:  "JID_10508.chk"
 Charge =  1 Multiplicity = 2

 SCF Done:  E(UB3LYP) =  -825.920721637     A.U. after   29 cycles
 Normal termination of Gaussian 16 at Sat Dec 12 16:47:36 2020.
 Gaussian 16:  ES64L-G16RevA.03 25-Dec-2016

 ----------------------------------------------------------------------
 # B3LYP/6-311++G(d,p) empiricaldispersion=gd3bj scf=xqc pop=npa geom=c
 heck
 ----------------------------------------------------------------------

 ------------------------------------
 CID_17780654_JID_10508_Energie_anion
 ------------------------------------
 Structure from the checkpoint file:  "JID_10508.chk"
 Charge = -1 Multiplicity = 2

                         Standard orientation:
 ---------------------------------------------------------------------
 Center     Atomic      Atomic             Coordinates (Angstroms)
 Number     Number       Type             X           Y           Z
 ---------------------------------------------------------------------
      1          6           0       -4.328865   -1.965853    0.130443
      2          6           0       -3.706797   -0.560496    0.092637
      3          6           0       -4.249163    0.175973   -1.151938
      4          6           0       -4.140206    0.195661    1.367464
      5          6           0       -2.175289   -0.607805    0.027907
      6          6           0       -1.449114    0.591177   -0.003601
      7          6           0       -0.053383    0.677604   -0.052476
      8          6           0        0.654640   -0.554738   -0.047817
      9          6           0       -0.061981   -1.759922   -0.070765
     10          6           0       -1.450090   -1.797880   -0.023767
     11          6           0        2.126874   -0.742910    0.015963
     12          7           0        2.664317   -1.635065   -0.840694
     13          6           0        3.974818   -1.833955   -0.708349
     14          7           0        4.781219   -1.243694    0.181401
     15          6           0        4.141364   -0.393686    0.991060
     16          7           0        2.840674   -0.106177    0.963777
     17          6           0        0.597971    2.075691   -0.164414
     18          6           0       -0.409498    3.128424   -0.680625
     19          6           0        1.083559    2.545133    1.225326
     20          6           0        1.764108    2.074069   -1.178174
     21          1           0       -5.419764   -1.884725    0.185783
     22          1           0       -3.992642   -2.534060    1.004691
     23          1           0       -4.084374   -2.541832   -0.768777
     24          1           0       -5.344365    0.217657   -1.121142
     25          1           0       -3.876218    1.203284   -1.210691
     26          1           0       -3.951707   -0.341937   -2.070315
     27          1           0       -3.768028   -0.309973    2.265196
     28          1           0       -3.760664    1.222181    1.379731
     29          1           0       -5.233963    0.241481    1.428207
     30          1           0       -2.015674    1.511358   -0.004977
     31          1           0        0.498523   -2.687867   -0.110378
     32          1           0       -1.949238   -2.759457   -0.025083
     33          1           0        4.434460   -2.544342   -1.393462
     34          1           0        4.738245    0.110433    1.749139
     35          1           0       -1.206760    3.335573    0.040010
     36          1           0        0.118921    4.072652   -0.848053
     37          1           0       -0.868393    2.824809   -1.628134
     38          1           0        1.819988    1.855916    1.638825
     39          1           0        1.532575    3.543267    1.146973
     40          1           0        0.237846    2.608572    1.919903
     41          1           0        2.620434    1.490141   -0.844208
     42          1           0        1.436894    1.682256   -2.147747
     43          1           0        2.116741    3.100239   -1.330120
 ---------------------------------------------------------------------

 SCF Done:  E(UB3LYP) =  -826.241966777     A.U. after   31 cycles

 The electronic state is 2-A.
 Alpha  occ. eigenvalues --  -14.15706 -14.15579 -14.14519 -10.08932 -10.08923
 Alpha  occ. eigenvalues --  -10.08852 -10.07224 -10.06795 -10.06610 -10.06594
 Alpha  occ. eigenvalues --  -10.06565 -10.05249 -10.04788 -10.04357 -10.03812
 Alpha  occ. eigenvalues --  -10.03795 -10.03629 -10.03533 -10.03322 -10.03184
 Alpha  occ. eigenvalues --   -0.85775  -0.74940  -0.73758  -0.73544  -0.71411
 Alpha  occ. eigenvalues --   -0.68662  -0.61794  -0.61142  -0.59349  -0.59161
 Alpha  occ. eigenvalues --   -0.57286  -0.56617  -0.53212  -0.52241  -0.48269
 Alpha  occ. eigenvalues --   -0.47818  -0.44683  -0.41408  -0.39804  -0.38452
 Alpha  occ. eigenvalues --   -0.37161  -0.35205  -0.34789  -0.34178  -0.32969
 Alpha  occ. eigenvalues --   -0.32753  -0.31859  -0.30513  -0.30424  -0.30170
 Alpha  occ. eigenvalues --   -0.29417  -0.28495  -0.27745  -0.27596  -0.27203
 Alpha  occ. eigenvalues --   -0.26508  -0.25476  -0.24916  -0.24787  -0.24644
 Alpha  occ. eigenvalues --   -0.23643  -0.22882  -0.22043  -0.21290  -0.20940
 Alpha  occ. eigenvalues --   -0.19807  -0.19434  -0.17250  -0.17006  -0.12155
 Alpha  occ. eigenvalues --   -0.11381  -0.11084  -0.10430   0.04168
 Alpha virt. eigenvalues --    0.06393   0.07884   0.08761   0.08882   0.09675
 Alpha virt. eigenvalues --    0.10027   0.10350   0.10458   0.10827   0.11060
 Alpha virt. eigenvalues --    0.11421   0.11533   0.11699   0.12247   0.12470

  Beta  occ. eigenvalues --  -14.15669 -14.15529 -14.14023 -10.08939 -10.08870
  Beta  occ. eigenvalues --  -10.08789 -10.07234 -10.06795 -10.06579 -10.06549
  Beta  occ. eigenvalues --  -10.06012 -10.05245 -10.04628 -10.04134 -10.03877
  Beta  occ. eigenvalues --  -10.03821 -10.03624 -10.03511 -10.03313 -10.03079
  Beta  occ. eigenvalues --   -0.85257  -0.74524  -0.73256  -0.73202  -0.71257
  Beta  occ. eigenvalues --   -0.68566  -0.61519  -0.60955  -0.59316  -0.59103
  Beta  occ. eigenvalues --   -0.57257  -0.56589  -0.52481  -0.52067  -0.48163
  Beta  occ. eigenvalues --   -0.47594  -0.44580  -0.41258  -0.39678  -0.38187
  Beta  occ. eigenvalues --   -0.37031  -0.35080  -0.34740  -0.34127  -0.32876
  Beta  occ. eigenvalues --   -0.32633  -0.31770  -0.30425  -0.30307  -0.30079
  Beta  occ. eigenvalues --   -0.28836  -0.28219  -0.27595  -0.27316  -0.27099
  Beta  occ. eigenvalues --   -0.26486  -0.25399  -0.24821  -0.24567  -0.24486
  Beta  occ. eigenvalues --   -0.23599  -0.22594  -0.21868  -0.21063  -0.20638
  Beta  occ. eigenvalues --   -0.19595  -0.19200  -0.16286  -0.14920  -0.11727
  Beta  occ. eigenvalues --   -0.10849  -0.10688  -0.09808
  Beta virt. eigenvalues --    0.06352   0.07845   0.08716   0.08831   0.09631
  Beta virt. eigenvalues --    0.09950   0.10063   0.10585   0.10656   0.10798
  Beta virt. eigenvalues --    0.11176   0.11447   0.11496   0.12074   0.12308

 Mulliken charges and spin densities:
               1          2
     1  C   -0.483260   0.002016
     2  C    0.576084  -0.009232
     3  C   -0.730315   0.000757
     4  C   -0.703638  -0.019671
     5  C    0.731361   0.154312
     6  C   -0.355230  -0.048944
     7  C    0.098194   0.123734
     8  C    0.618678  -0.018913
     9  C   -0.547740   0.089071
    10  C   -0.754030  -0.008730
    11  C   -0.882279   0.307826
    12  N    0.064185   0.037969
    13  C    0.015094   0.062409
    14  N   -0.185439   0.218737
    15  C   -0.047865   0.060998
    16  N   -0.033794   0.032703
    17  C    0.796816  -0.013691
    18  C   -0.598266  -0.005002
    19  C   -0.845397  -0.003137
    20  C   -0.759616   0.011971
    21  H    0.136948  -0.000232
    22  H    0.135680   0.000328
    23  H    0.135155  -0.000502
    24  H    0.124523   0.004324
    25  H    0.133952  -0.000274
    26  H    0.144877   0.000589
    27  H    0.142728   0.001938
    28  H    0.141546   0.002225
    29  H    0.114047   0.011543
    30  H    0.041042  -0.002659
    31  H    0.160178   0.007970
    32  H    0.097858  -0.000665
    33  H    0.131847  -0.006493
    34  H    0.133802  -0.006167
    35  H    0.100001   0.002869
    36  H    0.135242  -0.000104
    37  H    0.131550   0.001644
    38  H    0.200387   0.001483
    39  H    0.109622   0.001930
    40  H    0.124764  -0.001294
    41  H    0.201272  -0.003769
    42  H    0.127429   0.009265
    43  H    0.122006   0.000865
 Sum of Mulliken charges =  -1.00000   1.00000

 Dipole moment (field-independent basis, Debye):
    X=             -8.0865    Y=              2.7587    Z=             -0.1653  Tot=              8.5457
 Quadrupole moment (field-independent basis, Debye-Ang):
   XX=           -185.5915   YY=           -140.3404   ZZ=           -136.7846
   XY=             10.4212   XZ=             -1.0733   YZ=             -1.5989

 Summary of Natural Population Analysis:

                                       Natural Population
                Natural  -----------------------------------------------
    Atom  No    Charge         Core      Valence    Rydberg      Total
 -----------------------------------------------------------------------
      C    1   -0.28460      0.99964     2.27905    0.00590     3.28460
      C    2   -0.05122      0.99957     2.04294    0.00871     3.05122
      C    3   -0.27706      0.99964     2.27198    0.00544     3.27706
      C    4   -0.27719      0.99964     2.27213    0.00542     3.27719
      C    5    0.01460      0.99950     1.97135    0.01454     2.98540
      C    6   -0.14589      0.99954     2.13264    0.01371     3.14589
      C    7    0.09579      0.99945     1.89251    0.01225     2.90421
      C    8   -0.05541      0.99951     2.03662    0.01928     3.05541
      C    9   -0.06442      0.99956     2.05375    0.01111     3.06442
      C   10   -0.10323      0.99951     2.09897    0.00475     3.10323
      C   11    0.31211      0.99955     1.66868    0.01965     2.68789
      N   12   -0.26376      0.99969     2.75384    0.01024     3.76376
      C   13    0.15441      0.99968     1.82639    0.01952     2.84559
      N   14   -0.21492      0.99971     2.70405    0.01116     3.71492
      C   15    0.15488      0.99967     1.82629    0.01916     2.84512
      N   16   -0.27430      0.99968     2.76258    0.01203     3.77430
      C   17   -0.06323      0.99961     2.05110    0.01252     3.06323
      C   18   -0.28330      0.99965     2.27757    0.00608     3.28330
      C   19   -0.28592      0.99963     2.27947    0.00682     3.28592
      C   20   -0.28211      0.99963     2.27595    0.00653     3.28211
      H   21    0.09366      0.00000     0.40552    0.00082     0.40634
      H   22    0.10066      0.00000     0.39851    0.00083     0.39934
      H   23    0.10022      0.00000     0.39894    0.00084     0.39978
      H   24    0.09011      0.00000     0.40897    0.00092     0.40989
      H   25    0.09960      0.00000     0.39963    0.00077     0.40040
      H   26    0.10054      0.00000     0.39874    0.00071     0.39946
      H   27    0.10083      0.00000     0.39846    0.00071     0.39917
      H   28    0.09965      0.00000     0.39960    0.00075     0.40035
      H   29    0.09022      0.00000     0.40887    0.00091     0.40978
      H   30    0.09243      0.00000     0.40605    0.00152     0.40757
      H   31    0.10163      0.00000     0.39664    0.00173     0.39837
      H   32    0.09117      0.00000     0.40741    0.00142     0.40883
      H   33    0.07089      0.00000     0.42772    0.00139     0.42911
      H   34    0.07104      0.00000     0.42763    0.00133     0.42896
      H   35    0.09399      0.00000     0.40513    0.00089     0.40601
      H   36    0.09483      0.00000     0.40427    0.00090     0.40517
      H   37    0.09939      0.00000     0.39979    0.00082     0.40061
      H   38    0.12393      0.00000     0.37518    0.00089     0.37607
      H   39    0.08704      0.00000     0.41209    0.00087     0.41296
      H   40    0.09257      0.00000     0.40661    0.00081     0.40743
      H   41    0.11296      0.00000     0.38594    0.00110     0.38704
      H   42    0.09917      0.00000     0.40005    0.00079     0.40083
      H   43    0.08885      0.00000     0.41032    0.00084     0.41115
 =======================================================================
   * Total *    0.00059     19.99206    52.75997    0.24738    72.99941

 Normal termination of Gaussian 16 at Sat Dec 12 17:13:36 2020.
