 Gaussian 16, Revision A.03,

 ----------------------------------------------------------------------
 # opt=(cartesian,calcfc) freq B3LYP/6-31G(d) empiricaldispersion=gd3bj
  scf=xqc
 ----------------------------------------------------------------------

 -------------------------------
 CID_65260843_JID_10177_neutraal
 -------------------------------
 Symbolic Z-matrix:
 Charge =  0 Multiplicity = 1

 SCF Done:  E(RB3LYP) =  -880.552202315     A.U. after   15 cycles
 SCF Done:  E(RB3LYP) =  -880.553956385     A.U. after   11 cycles
 SCF Done:  E(RB3LYP) =  -880.554183317     A.U. after   11 cycles
 SCF Done:  E(RB3LYP) =  -880.554353288     A.U. after   11 cycles
 SCF Done:  E(RB3LYP) =  -880.554144666     A.U. after   12 cycles
 SCF Done:  E(RB3LYP) =  -880.554404901     A.U. after   11 cycles
 SCF Done:  E(RB3LYP) =  -880.554424117     A.U. after   11 cycles
 SCF Done:  E(RB3LYP) =  -880.554487706     A.U. after   10 cycles
 SCF Done:  E(RB3LYP) =  -880.554468112     A.U. after   11 cycles
 SCF Done:  E(RB3LYP) =  -880.554465807     A.U. after   11 cycles
 SCF Done:  E(RB3LYP) =  -880.551136170     A.U. after   12 cycles
 SCF Done:  E(RB3LYP) =  -880.554572226     A.U. after    8 cycles
 SCF Done:  E(RB3LYP) =  -880.554572240     A.U. after    8 cycles
 SCF Done:  E(RB3LYP) =  -880.554571710     A.U. after    9 cycles
 SCF Done:  E(RB3LYP) =  -880.554572255     A.U. after    6 cycles
 Optimization completed.
    -- Stationary point found.
 Normal termination of Gaussian 16 at Mon Jan  4 11:38:00 2021.

 --------------------------------------------------------------------
 #N Geom=AllCheck Guess=TCheck SCRF=Check GenChk RB3LYP/6-31G(d) Freq
 --------------------------------------------------------------------

 Structure from the checkpoint file:  "JID_10177.chk"
 -------------------------------
 CID_65260843_JID_10177_neutraal
 -------------------------------
 Charge =  0 Multiplicity = 1

 SCF Done:  E(RB3LYP) =  -880.554572255     A.U. after    1 cycles

  Exact polarizability: 186.771   8.356 189.953 -14.156   8.828 132.666
 Approx polarizability: 268.698   8.857 288.096 -31.169  16.454 234.102

                      1                      2                      3
                      A                      A                      A
 Frequencies --     25.6197                35.4829                51.6019
 Red. masses --      5.1229                 4.3505                 5.6449
 Frc consts  --      0.0020                 0.0032                 0.0089
 IR Inten    --      0.3580                 0.4705                 0.6759

                      4                      5                      6
                      A                      A                      A
 Frequencies --     66.2303                79.1000               108.5667
 Red. masses --      4.9555                 3.8694                 4.0687
 Frc consts  --      0.0128                 0.0143                 0.0283
 IR Inten    --      0.3171                 0.3463                 0.5411

                      7                      8                      9
                      A                      A                      A
 Frequencies --    133.0127               153.4973               164.2083
 Red. masses --      3.9372                 4.3263                 3.5664
 Frc consts  --      0.0410                 0.0601                 0.0567
 IR Inten    --      0.4547                 0.2821                 0.7803

                     10                     11                     12
                      A                      A                      A
 Frequencies --    202.3080               207.1842               256.7188
 Red. masses --      3.3780                 4.5951                 1.6760
 Frc consts  --      0.0815                 0.1162                 0.0651
 IR Inten    --      0.1020                 2.3974                 0.0801

                     13                     14                     15
                      A                      A                      A
 Frequencies --    280.9264               291.8148               329.6433
 Red. masses --      1.6995                 3.8469                 2.1483
 Frc consts  --      0.0790                 0.1930                 0.1375
 IR Inten    --      0.5730                 3.4863                12.8127

                     16                     17                     18
                      A                      A                      A
 Frequencies --    358.0361               365.8357               429.2963
 Red. masses --      3.9723                 4.9204                 5.1917
 Frc consts  --      0.3000                 0.3880                 0.5637
 IR Inten    --      0.7045                 0.7829                 3.2269

                     19                     20                     21
                      A                      A                      A
 Frequencies --    446.0314               452.7920               478.9578
 Red. masses --      3.9243                 3.0142                 4.2873
 Frc consts  --      0.4600                 0.3641                 0.5795
 IR Inten    --      2.7299                 4.1631                 0.7608

                     22                     23                     24
                      A                      A                      A
 Frequencies --    508.8764               522.5049               574.7429
 Red. masses --      3.6886                 2.8195                 1.5730
 Frc consts  --      0.5628                 0.4535                 0.3062
 IR Inten    --     15.1333                20.1309                56.9291

                     25                     26                     27
                      A                      A                      A
 Frequencies --    610.5222               617.0298               643.1813
 Red. masses --      3.3604                 4.5240                 2.6125
 Frc consts  --      0.7380                 1.0148                 0.6368
 IR Inten    --      5.0913                10.5763                18.7225

                     28                     29                     30
                      A                      A                      A
 Frequencies --    662.0503               690.4719               718.4283
 Red. masses --      4.1452                 3.1632                 4.0489
 Frc consts  --      1.0705                 0.8885                 1.2313
 IR Inten    --      7.2115                 4.4872                 2.1787

                     31                     32                     33
                      A                      A                      A
 Frequencies --    722.4581               735.5422               742.4898
 Red. masses --      2.6491                 5.9160                 1.6428
 Frc consts  --      0.8146                 1.8858                 0.5336
 IR Inten    --      6.6694                14.7449                47.1418

                     34                     35                     36
                      A                      A                      A
 Frequencies --    763.1221               807.8463               814.2210
 Red. masses --      1.2901                 2.6492                 1.2827
 Frc consts  --      0.4427                 1.0186                 0.5010
 IR Inten    --     35.4117                65.9081                19.4414

                     37                     38                     39
                      A                      A                      A
 Frequencies --    821.2173               847.3825               867.1332
 Red. masses --      2.9402                 2.3120                 1.3151
 Frc consts  --      1.1683                 0.9781                 0.5826
 IR Inten    --     16.5113                83.8800                 0.7136

                     40                     41                     42
                      A                      A                      A
 Frequencies --    883.6002               908.9615               918.2614
 Red. masses --      1.3723                 6.0033                 3.0747
 Frc consts  --      0.6313                 2.9223                 1.5275
 IR Inten    --      7.1012                 8.2884                 8.6359

                     43                     44                     45
                      A                      A                      A
 Frequencies --    942.1310               944.2057               967.2138
 Red. masses --      1.4542                 3.7369                 1.6044
 Frc consts  --      0.7605                 1.9629                 0.8843
 IR Inten    --      4.6033                 8.6430                 3.7034

                     46                     47                     48
                      A                      A                      A
 Frequencies --    981.4835               987.4333              1002.3072
 Red. masses --      1.6161                 1.4155                 2.5668
 Frc consts  --      0.9172                 0.8132                 1.5193
 IR Inten    --      5.9654                 1.4794                 9.2550

                     49                     50                     51
                      A                      A                      A
 Frequencies --   1028.0266              1029.3873              1046.6488
 Red. masses --      3.0235                 1.7133                 1.5149
 Frc consts  --      1.8826                 1.0696                 0.9778
 IR Inten    --      4.9246                21.3614                 7.9028

                     52                     53                     54
                      A                      A                      A
 Frequencies --   1078.8605              1095.1611              1109.7835
 Red. masses --      2.3037                 2.3102                 2.2743
 Frc consts  --      1.5798                 1.6325                 1.6503
 IR Inten    --      3.2822                 3.7385                12.2266

                     55                     56                     57
                      A                      A                      A
 Frequencies --   1119.3326              1148.0025              1157.4720
 Red. masses --      2.5433                 2.5679                 2.6661
 Frc consts  --      1.8774                 1.9939                 2.1045
 IR Inten    --     11.0954                 4.8322                32.6418

                     58                     59                     60
                      A                      A                      A
 Frequencies --   1180.4055              1195.4379              1197.1497
 Red. masses --      2.3432                 2.2342                 1.1193
 Frc consts  --      1.9237                 1.8811                 0.9451
 IR Inten    --      7.1693                28.8091                 2.0084

                     61                     62                     63
                      A                      A                      A
 Frequencies --   1211.1300              1216.7224              1236.4844
 Red. masses --      1.2860                 2.0779                 2.4390
 Frc consts  --      1.1114                 1.8124                 2.1970
 IR Inten    --      5.9744                12.1654                 0.1397

                     64                     65                     66
                      A                      A                      A
 Frequencies --   1252.0675              1268.8060              1278.5404
 Red. masses --      1.5342                 2.1826                 2.9700
 Frc consts  --      1.4171                 2.0702                 2.8605
 IR Inten    --      7.1011               102.3201                49.6278

                     67                     68                     69
                      A                      A                      A
 Frequencies --   1306.0662              1330.6744              1341.1678
 Red. masses --      1.4499                 1.7171                 1.3557
 Frc consts  --      1.4572                 1.7914                 1.4368
 IR Inten    --      8.6725                 6.3496                 3.6623

                     70                     71                     72
                      A                      A                      A
 Frequencies --   1345.7273              1366.9759              1369.9088
 Red. masses --      2.0252                 1.3154                 1.3331
 Frc consts  --      2.1608                 1.4482                 1.4740
 IR Inten    --      1.5439                14.2005                14.0100

                     73                     74                     75
                      A                      A                      A
 Frequencies --   1377.3846              1403.6041              1420.5573
 Red. masses --      1.6393                 1.5821                 1.9691
 Frc consts  --      1.8324                 1.8364                 2.3412
 IR Inten    --      6.5499                37.6046               124.4837

                     76                     77                     78
                      A                      A                      A
 Frequencies --   1430.2870              1438.7903              1475.6836
 Red. masses --      1.4616                 1.9644                 1.5465
 Frc consts  --      1.7616                 2.3959                 1.9843
 IR Inten    --      6.4545                23.8446                55.1128

                     79                     80                     81
                      A                      A                      A
 Frequencies --   1496.4673              1504.4774              1508.8344
 Red. masses --      2.0369                 1.1533                 1.2211
 Frc consts  --      2.6876                 1.5381                 1.6379
 IR Inten    --      2.9981                 0.7331                 5.6407

                     82                     83                     84
                      A                      A                      A
 Frequencies --   1521.8627              1522.9854              1531.0757
 Red. masses --      1.0444                 1.1066                 1.0791
 Frc consts  --      1.4251                 1.5122                 1.4904
 IR Inten    --      8.8527                 4.5216                 0.9068

                     85                     86                     87
                      A                      A                      A
 Frequencies --   1544.6097              1554.2957              1640.8292
 Red. masses --      2.3416                 4.2502                 6.4180
 Frc consts  --      3.2916                 6.0497                10.1807
 IR Inten    --     13.6543                 7.8376                 1.0516

                     88                     89                     90
                      A                      A                      A
 Frequencies --   1650.9945              1666.8877              1782.3983
 Red. masses --      6.1095                 5.7355                 8.0472
 Frc consts  --      9.8117                 9.3893                15.0627
 IR Inten    --      0.9337                 0.6446               316.4392

                     91                     92                     93
                      A                      A                      A
 Frequencies --   3023.5854              3050.3649              3062.1184
 Red. masses --      1.0673                 1.0825                 1.0561
 Frc consts  --      5.7490                 5.9347                 5.8346
 IR Inten    --     37.4505                17.9860                18.4003

                     94                     95                     96
                      A                      A                      A
 Frequencies --   3062.4572              3070.4489              3079.9066
 Red. masses --      1.0427                 1.0819                 1.0963
 Frc consts  --      5.7617                 6.0097                 6.1273
 IR Inten    --     43.9101                18.6311                27.3345

                     97                     98                     99
                      A                      A                      A
 Frequencies --   3118.0912              3135.8782              3148.1655
 Red. masses --      1.1040                 1.1036                 1.1030
 Frc consts  --      6.3238                 6.3942                 6.4407
 IR Inten    --     18.3525                20.3365                18.3732

                    100                    101                    102
                      A                      A                      A
 Frequencies --   3166.4694              3187.0442              3202.9563
 Red. masses --      1.0873                 1.0883                 1.0945
 Frc consts  --      6.4231                 6.5127                 6.6154
 IR Inten    --     13.2566                14.1207                33.8088

                    103                    104                    105
                      A                      A                      A
 Frequencies --   3223.4455              3264.2468              3277.0306
 Red. masses --      1.0927                 1.0931                 1.0955
 Frc consts  --      6.6894                 6.8621                 6.9311
 IR Inten    --      8.9088                 3.4335                 0.7916

                    106                    107                    108
                      A                      A                      A
 Frequencies --   3305.6443              3466.1468              3584.2278
 Red. masses --      1.1052                 1.0736                 1.0759
 Frc consts  --      7.1154                 7.5997                 8.1438
 IR Inten    --      0.7028                 2.3948                22.5745

 - Thermochemistry -
 -------------------
 Temperature   298.150 Kelvin.  Pressure   1.00000 Atm.
 Atom     1 has atomic number  6 and mass  12.00000

 Molecular mass:   270.13683 amu.
 Principal axes and moments of inertia in atomic units:
                           1         2         3
     Eigenvalues --  3616.776476086.991938007.83235
           X            0.99980   0.01972  -0.00296
           Y           -0.01967   0.99965   0.01788
           Z            0.00331  -0.01782   0.99984
 This molecule is an asymmetric top.
 Rotational symmetry number  1.
 Warning -- assumption of classical behavior for rotation
           may cause significant error
 Rotational temperatures (Kelvin)      0.02395     0.01423     0.01082
 Rotational constants (GHZ):           0.49899     0.29649     0.22537
 Zero-point vibrational energy     836978.5 (Joules/Mol)
                                  200.04266 (Kcal/Mol)
 Warning -- explicit consideration of  26 degrees of freedom as
           vibrations may cause significant error
 Vibrational temperatures:     36.86    51.05    74.24    95.29   113.81
          (Kelvin)            156.20   191.38   220.85   236.26   291.08
                              298.09   369.36   404.19   419.86   474.28
                              515.13   526.36   617.66   641.74   651.47
                              689.11   732.16   751.77   826.93   878.41
                              887.77   925.39   952.54   993.44  1033.66
                             1039.46  1058.28  1068.28  1097.96  1162.31
                             1171.48  1181.55  1219.19  1247.61  1271.30
                             1307.79  1321.17  1355.52  1358.50  1391.60
                             1412.14  1420.70  1442.10  1479.10  1481.06
                             1505.89  1552.24  1575.69  1596.73  1610.47
                             1651.72  1665.34  1698.34  1719.97  1722.43
                             1742.55  1750.59  1779.03  1801.45  1825.53
                             1839.53  1879.14  1914.54  1929.64  1936.20
                             1966.77  1970.99  1981.75  2019.47  2043.87
                             2057.86  2070.10  2123.18  2153.08  2164.61
                             2170.88  2189.62  2191.24  2202.88  2222.35
                             2236.28  2360.79  2375.41  2398.28  2564.47
                             4350.27  4388.79  4405.71  4406.19  4417.69
                             4431.30  4486.24  4511.83  4529.51  4555.84
                             4585.45  4608.34  4637.82  4696.52  4714.92
                             4756.08  4987.01  5156.90

 Zero-point correction=                           0.318788 (Hartree/Particle)
 Thermal correction to Energy=                    0.336077
 Thermal correction to Enthalpy=                  0.337022
 Thermal correction to Gibbs Free Energy=         0.272482
 Sum of electronic and zero-point Energies=           -880.235784
 Sum of electronic and thermal Energies=              -880.218495
 Sum of electronic and thermal Enthalpies=            -880.217551
 Sum of electronic and thermal Free Energies=         -880.282090

                     E (Thermal)             CV                S
                      KCal/Mol        Cal/Mol-Kelvin    Cal/Mol-Kelvin
 Total                  210.892             67.817            135.835
 Electronic               0.000              0.000              0.000
 Translational            0.889              2.981             42.680
 Rotational               0.889              2.981             33.533
 Vibrational            209.114             61.855             59.622
 Vibration     1          0.593              1.985              6.143
 Vibration     2          0.594              1.982              5.497
 Vibration     3          0.596              1.977              4.755
 Vibration     4          0.598              1.970              4.262
 Vibration     5          0.600              1.963              3.913
 Vibration     6          0.606              1.942              3.294
 Vibration     7          0.613              1.920              2.902
 Vibration     8          0.619              1.899              2.628
 Vibration     9          0.623              1.886              2.501
 Vibration    10          0.639              1.837              2.112
 Vibration    11          0.641              1.830              2.068
 Vibration    12          0.666              1.751              1.684
 Vibration    13          0.681              1.709              1.528
 Vibration    14          0.687              1.689              1.463
 Vibration    15          0.712              1.616              1.262
 Vibration    16          0.733              1.559              1.131
 Vibration    17          0.739              1.543              1.097
 Vibration    18          0.791              1.406              0.861
 Vibration    19          0.805              1.370              0.808
 Vibration    20          0.811              1.355              0.787
 Vibration    21          0.835              1.297              0.713
 Vibration    22          0.864              1.230              0.636
 Vibration    23          0.877              1.200              0.604
 Vibration    24          0.931              1.086              0.495
 Vibration    25          0.970              1.010              0.432
 Vibration    26          0.977              0.996              0.421

 Optimization completed.
    -- Stationary point found.
 Normal termination of Gaussian 16 at Mon Jan  4 11:59:05 2021.

 ----------------------------------------------------------------------
 # B3LYP/6-311++G(d,p) empiricaldispersion=gd3bj scf=xqc pop=npa geom=c
 heck
 ----------------------------------------------------------------------

 ---------------------------------------
 CID_65260843_JID_10177_Energie_neutraal
 ---------------------------------------
 Structure from the checkpoint file:  "JID_10177.chk"
 Charge =  0 Multiplicity = 1

 SCF Done:  E(RB3LYP) =  -880.797344842     A.U. after   16 cycles
 Normal termination of Gaussian 16 at Mon Jan  4 12:07:31 2021.

 ----------------------------------------------------------------------
 # B3LYP/6-311++G(d,p) empiricaldispersion=gd3bj scf=xqc pop=npa geom=c
 heck
 ----------------------------------------------------------------------

 -------------------------------------
 CID_65260843_JID_10177_Energie_kation
 -------------------------------------
 Structure from the checkpoint file:  "JID_10177.chk"
 Charge =  1 Multiplicity = 2

 SCF Done:  E(UB3LYP) =  -880.506874664     A.U. after   32 cycles
 Normal termination of Gaussian 16 at Mon Jan  4 12:29:31 2021.
 Gaussian 16:  ES64L-G16RevA.03 25-Dec-2016

 ----------------------------------------------------------------------
 # B3LYP/6-311++G(d,p) empiricaldispersion=gd3bj scf=xqc pop=npa geom=c
 heck
 ----------------------------------------------------------------------

 ------------------------------------
 CID_65260843_JID_10177_Energie_anion
 ------------------------------------
 Structure from the checkpoint file:  "JID_10177.chk"
 Charge = -1 Multiplicity = 2

                         Standard orientation:
 ---------------------------------------------------------------------
 Center     Atomic      Atomic             Coordinates (Angstroms)
 Number     Number       Type             X           Y           Z
 ---------------------------------------------------------------------
      1          6           0       -3.822363   -1.720802   -0.185525
      2          6           0       -2.388201   -1.202021   -0.358748
      3          6           0       -2.357397    0.282812   -0.561794
      4          6           0       -1.940724    1.082657   -1.583740
      5          6           0       -2.161869    2.437662   -1.164077
      6          6           0       -2.696634    2.363107    0.083853
      7          8           0       -2.826782    1.056417    0.467914
      8          7           0       -1.603114   -1.639537    0.799894
      9          6           0       -0.249437   -1.563072    1.016509
     10          8           0        0.223925   -1.866169    2.104671
     11          6           0        0.649155   -1.151777   -0.147383
     12          6           0        1.643631   -2.300387   -0.435158
     13          7           0        2.700469   -1.922864   -1.366851
     14          6           0        3.512645   -0.841640   -0.812170
     15          6           0        2.727627    0.310356   -0.205244
     16          6           0        3.362027    1.535054    0.031214
     17          6           0        2.679720    2.597608    0.617122
     18          6           0        1.341615    2.437254    0.981365
     19          6           0        0.703354    1.222611    0.750518
     20          6           0        1.381383    0.151754    0.155543
     21          1           0       -4.287873   -1.264761    0.694682
     22          1           0       -3.822786   -2.808679   -0.065100
     23          1           0       -4.425076   -1.460081   -1.059514
     24          1           0       -1.967212   -1.653194   -1.263971
     25          1           0       -1.513849    0.750732   -2.519876
     26          1           0       -1.939111    3.338668   -1.717407
     27          1           0       -3.022969    3.096070    0.805050
     28          1           0       -2.120371   -1.865355    1.641635
     29          1           0        0.050132   -0.992851   -1.051863
     30          1           0        1.104556   -3.168124   -0.832018
     31          1           0        2.105901   -2.603203    0.509789
     32          1           0        2.276368   -1.603505   -2.237800
     33          1           0        4.159471   -1.278804   -0.037492
     34          1           0        4.182291   -0.470214   -1.596509
     35          1           0        4.406826    1.651331   -0.250701
     36          1           0        3.186521    3.543504    0.787883
     37          1           0        0.794805    3.254703    1.442644
     38          1           0       -0.333444    1.101537    1.044885
 ---------------------------------------------------------------------

 SCF Done:  E(UB3LYP) =  -880.789173101     A.U. after   33 cycles
 SCF Done:  E(UB3LYP) =  -880.789173101     a.u. after    1 cycles

 The electronic state is 2-A.
 Alpha  occ. eigenvalues --  -19.10132 -18.99453 -14.24617 -14.20691 -10.18053
 Alpha  occ. eigenvalues --  -10.14045 -10.13604 -10.13457 -10.10796 -10.09956
 Alpha  occ. eigenvalues --  -10.09188 -10.09136 -10.08837 -10.08534 -10.08472
 Alpha  occ. eigenvalues --  -10.08386 -10.08233 -10.08209 -10.08121 -10.07924
 Alpha  occ. eigenvalues --   -1.02520  -0.94687  -0.83699  -0.82720  -0.76511
 Alpha  occ. eigenvalues --   -0.71527  -0.70403  -0.69460  -0.67069  -0.64353
 Alpha  occ. eigenvalues --   -0.63935  -0.57581  -0.55864  -0.54469  -0.52288
 Alpha  occ. eigenvalues --   -0.51633  -0.49555  -0.47538  -0.46296  -0.45016
 Alpha  occ. eigenvalues --   -0.42130  -0.41103  -0.40177  -0.39358  -0.37907
 Alpha  occ. eigenvalues --   -0.36972  -0.36705  -0.35680  -0.34025  -0.33600
 Alpha  occ. eigenvalues --   -0.33510  -0.32619  -0.32242  -0.31719  -0.30748
 Alpha  occ. eigenvalues --   -0.30275  -0.30247  -0.29414  -0.28572  -0.27995
 Alpha  occ. eigenvalues --   -0.27837  -0.27208  -0.25746  -0.25739  -0.23830
 Alpha  occ. eigenvalues --   -0.19697  -0.17442  -0.17170  -0.15771  -0.15199
 Alpha  occ. eigenvalues --   -0.14186  -0.13589   0.03964
 Alpha virt. eigenvalues --    0.05974   0.06325   0.07007   0.07289   0.07777
 Alpha virt. eigenvalues --    0.07966   0.08096   0.08420   0.08999   0.09240
 Alpha virt. eigenvalues --    0.09716   0.10015   0.10269   0.10713   0.11570

  Beta  occ. eigenvalues --  -19.10114 -18.99452 -14.24612 -14.20668 -10.18052
  Beta  occ. eigenvalues --  -10.14021 -10.13606 -10.13440 -10.10789 -10.09942
  Beta  occ. eigenvalues --  -10.09178 -10.09119 -10.08834 -10.08527 -10.08457
  Beta  occ. eigenvalues --  -10.08384 -10.08206 -10.08195 -10.08092 -10.07923
  Beta  occ. eigenvalues --   -1.02488  -0.94683  -0.83680  -0.82684  -0.76488
  Beta  occ. eigenvalues --   -0.71491  -0.70370  -0.69427  -0.67047  -0.64318
  Beta  occ. eigenvalues --   -0.63905  -0.57557  -0.55792  -0.54427  -0.52262
  Beta  occ. eigenvalues --   -0.51599  -0.49533  -0.47498  -0.46253  -0.44971
  Beta  occ. eigenvalues --   -0.42107  -0.41062  -0.40140  -0.39325  -0.37885
  Beta  occ. eigenvalues --   -0.36937  -0.36659  -0.35653  -0.33997  -0.33571
  Beta  occ. eigenvalues --   -0.33486  -0.32598  -0.32216  -0.31670  -0.30718
  Beta  occ. eigenvalues --   -0.30246  -0.30210  -0.29387  -0.28544  -0.27948
  Beta  occ. eigenvalues --   -0.27811  -0.27175  -0.25728  -0.25706  -0.23803
  Beta  occ. eigenvalues --   -0.19655  -0.17431  -0.17148  -0.15748  -0.15145
  Beta  occ. eigenvalues --   -0.14151  -0.13563
  Beta virt. eigenvalues --    0.06013   0.06673   0.06890   0.07239   0.07467
  Beta virt. eigenvalues --    0.08051   0.08224   0.08323   0.08805   0.09480
  Beta virt. eigenvalues --    0.09719   0.09827   0.10130   0.10427   0.10902

 Mulliken charges and spin densities:
               1          2
     1  C    0.893762  -1.540436
     2  C   -0.055120  -0.685903
     3  C    1.099638  -0.663361
     4  C   -1.599603   1.298217
     5  C    1.654799  -1.966009
     6  C   -0.552140   0.513497
     7  O    0.026706   0.012567
     8  N   -0.161662   0.055896
     9  C   -0.382399  -0.090879
    10  O   -0.336199   0.004058
    11  C    0.213943   0.814835
    12  C    0.137961  -0.822745
    13  N    0.013140   0.068829
    14  C   -0.123628  -0.745738
    15  C   -0.278333   0.626995
    16  C    0.241742  -0.713075
    17  C   -0.215525  -0.119296
    18  C   -0.624791   0.141484
    19  C    0.210122  -0.254889
    20  C   -0.069441   0.475161
    21  H    0.033936   0.148610
    22  H   -0.316042   0.491214
    23  H   -0.145269   0.307045
    24  H   -0.650207   0.912050
    25  H   -1.092433   1.286410
    26  H   -0.169458   0.335990
    27  H   -0.329308   0.504955
    28  H    0.291771   0.013710
    29  H    0.783533  -0.512523
    30  H   -0.182822   0.390200
    31  H    0.254512  -0.044569
    32  H   -0.157285   0.403616
    33  H    0.172730   0.003320
    34  H   -0.039172   0.220883
    35  H    0.099931   0.038237
    36  H   -0.016697   0.152998
    37  H    0.071594   0.083528
    38  H    0.297714  -0.144879
 Sum of Mulliken charges =  -1.00000   1.00000

 Dipole moment (field-independent basis, Debye):
    X=              2.5144    Y=              3.6280    Z=              4.6009  Tot=              6.3760
 Quadrupole moment (field-independent basis, Debye-Ang):
   XX=           -171.8866   YY=           -168.4301   ZZ=           -171.4775
   XY=              0.9426   XZ=             -7.2692   YZ=             -3.8990

 Summary of Natural Population Analysis:

                                       Natural Population
                Natural  -----------------------------------------------
    Atom  No    Charge         Core      Valence    Rydberg      Total
 -----------------------------------------------------------------------
      C    1   -0.28154      0.99965     2.27602    0.00588     3.28154
      C    2   -0.03610      0.99954     2.02257    0.01399     3.03610
      C    3    0.14204      0.99944     1.84072    0.01779     2.85796
      C    4   -0.13775      0.99947     2.12871    0.00957     3.13775
      C    5   -0.14434      0.99956     2.13565    0.00914     3.14434
      C    6    0.05649      0.99950     1.93012    0.01389     2.94351
      O    7   -0.23971      0.99986     3.23204    0.00781     4.23971
      N    8   -0.31648      0.99966     2.80678    0.01005     3.81648
      C    9    0.35510      0.99965     1.62132    0.02394     2.64490
      O   10   -0.32432      0.99988     3.31927    0.00517     4.32432
      C   11   -0.16826      0.99951     2.15615    0.01259     3.16826
      C   12   -0.08205      0.99962     2.07015    0.01229     3.08205
      N   13   -0.33017      0.99976     2.81840    0.01201     3.83017
      C   14   -0.09283      0.99959     2.08126    0.01198     3.09283
      C   15   -0.02170      0.99945     2.01333    0.00891     3.02170
      C   16   -0.10185      0.99952     2.09308    0.00925     3.10185
      C   17   -0.10013      0.99956     2.09179    0.00878     3.10013
      C   18   -0.10184      0.99956     2.09233    0.00995     3.10184
      C   19   -0.09014      0.99951     2.08168    0.00895     3.09014
      C   20   -0.00339      0.99945     1.99366    0.01027     3.00339
      H   21    0.09986      0.00000     0.39884    0.00130     0.40014
      H   22    0.10471      0.00000     0.39392    0.00137     0.39529
      H   23    0.10980      0.00000     0.38909    0.00111     0.39020
      H   24    0.11248      0.00000     0.38266    0.00487     0.38752
      H   25    0.11706      0.00000     0.37985    0.00309     0.38294
      H   26    0.11043      0.00000     0.38862    0.00095     0.38957
      H   27    0.09558      0.00000     0.40334    0.00108     0.40442
      H   28    0.19354      0.00000     0.30437    0.00209     0.30646
      H   29    0.11151      0.00000     0.38457    0.00392     0.38849
      H   30    0.09973      0.00000     0.39926    0.00102     0.40027
      H   31    0.09950      0.00000     0.39921    0.00129     0.40050
      H   32    0.17377      0.00000     0.32207    0.00416     0.32623
      H   33    0.09480      0.00000     0.40411    0.00109     0.40520
      H   34    0.09893      0.00000     0.40010    0.00097     0.40107
      H   35    0.09582      0.00000     0.40288    0.00130     0.40418
      H   36    0.09741      0.00000     0.40185    0.00073     0.40259
      H   37    0.09952      0.00000     0.39958    0.00090     0.40048
      H   38    0.10451      0.00000     0.39320    0.00229     0.39549
 =======================================================================
   * Total *   -0.00000     19.99173    51.75253    0.25573    72.00000

 Normal termination of Gaussian 16 at Mon Jan  4 12:52:25 2021.
