 Gaussian 16, Revision A.03,

 -----------------------------------------------------------
 # opt freq B3LYP/6-31G(d) empiricaldispersion=gd3bj scf=xqc
 -----------------------------------------------------------

 -------------------------------
 CID_140786738_JID_1376_neutraal
 -------------------------------
 Symbolic Z-matrix:
 Charge =  0 Multiplicity = 1

 SCF Done:  E(RB3LYP) =  -800.007931197     A.U. after   13 cycles
 SCF Done:  E(RB3LYP) =  -800.016475462     A.U. after   12 cycles
 SCF Done:  E(RB3LYP) =  -800.020014544     A.U. after   11 cycles
 SCF Done:  E(RB3LYP) =  -800.019647325     A.U. after   13 cycles
 SCF Done:  E(RB3LYP) =  -800.026610618     A.U. after   11 cycles
 SCF Done:  E(RB3LYP) =  -800.030816899     A.U. after   12 cycles
 SCF Done:  E(RB3LYP) =  -800.030271607     A.U. after   12 cycles
 SCF Done:  E(RB3LYP) =  -800.024535460     A.U. after   12 cycles
 SCF Done:  E(RB3LYP) =  -800.026676480     A.U. after   11 cycles
 SCF Done:  E(RB3LYP) =  -800.033088318     A.U. after   10 cycles
 SCF Done:  E(RB3LYP) =  -800.047919030     A.U. after    7 cycles
 SCF Done:  E(RB3LYP) =  -800.047919464     A.U. after    7 cycles
 SCF Done:  E(RB3LYP) =  -800.047919807     A.U. after    7 cycles
 SCF Done:  E(RB3LYP) =  -800.047920137     A.U. after    7 cycles
 SCF Done:  E(RB3LYP) =  -800.047920434     A.U. after    7 cycles
 SCF Done:  E(RB3LYP) =  -800.047920673     A.U. after    7 cycles
 Optimization completed.
    -- Stationary point found.
 Normal termination of Gaussian 16 at Tue Dec  8 20:12:54 2020.

 --------------------------------------------------------------------
 #N Geom=AllCheck Guess=TCheck SCRF=Check GenChk RB3LYP/6-31G(d) Freq
 --------------------------------------------------------------------

 Structure from the checkpoint file:  "JID_1376.chk"
 -------------------------------
 CID_140786738_JID_1376_neutraal
 -------------------------------
 Charge =  0 Multiplicity = 1

 SCF Done:  E(RB3LYP) =  -800.047920673     A.U. after    1 cycles

  Exact polarizability:  72.460   2.955  70.348   2.812  -2.478  55.502
 Approx polarizability:  90.898   1.961  91.325   7.129  -5.609  70.723

                      1                      2                      3
                      A                      A                      A
 Frequencies --     30.4645                39.4099                60.8319
 Red. masses --      5.9177                 6.7866                 6.2844
 Frc consts  --      0.0032                 0.0062                 0.0137
 IR Inten    --      1.7597                 0.6834                 4.9488

                      4                      5                      6
                      A                      A                      A
 Frequencies --     65.3154                71.6645                80.5750
 Red. masses --      6.2237                 5.9280                 6.1745
 Frc consts  --      0.0156                 0.0179                 0.0236
 IR Inten    --      0.6286                 2.7657                 1.3216

                      7                      8                      9
                      A                      A                      A
 Frequencies --     85.4813               100.9206               139.7000
 Red. masses --      6.6004                 8.5518                 5.3595
 Frc consts  --      0.0284                 0.0513                 0.0616
 IR Inten    --      1.7997                 3.7010                 1.0737

                     10                     11                     12
                      A                      A                      A
 Frequencies --    142.1560               148.5862               162.1624
 Red. masses --      4.4268                 3.7347                 4.4840
 Frc consts  --      0.0527                 0.0486                 0.0695
 IR Inten    --     12.2687                11.3053                 3.5484

                     13                     14                     15
                      A                      A                      A
 Frequencies --    183.9098               205.0751               216.9509
 Red. masses --      5.5099                 1.4421                 3.4493
 Frc consts  --      0.1098                 0.0357                 0.0957
 IR Inten    --     12.6853                57.3781                 1.6272

                     16                     17                     18
                      A                      A                      A
 Frequencies --    231.5366               252.3643               260.5499
 Red. masses --      7.2272                 4.4063                 6.6579
 Frc consts  --      0.2283                 0.1653                 0.2663
 IR Inten    --     26.1222                 3.7835                 3.9321

                     19                     20                     21
                      A                      A                      A
 Frequencies --    287.7016               297.3797               316.4206
 Red. masses --      1.6087                 1.8323                 1.7297
 Frc consts  --      0.0785                 0.0955                 0.1020
 IR Inten    --     42.3307                31.8889               125.6040

                     22                     23                     24
                      A                      A                      A
 Frequencies --    318.2650               324.4442               345.3337
 Red. masses --      2.2028                 1.6600                 3.2079
 Frc consts  --      0.1315                 0.1030                 0.2254
 IR Inten    --     22.4914                16.6251                17.5513

                     25                     26                     27
                      A                      A                      A
 Frequencies --    358.3347               375.3931               400.4651
 Red. masses --      4.3139                 1.2450                 1.0848
 Frc consts  --      0.3264                 0.1034                 0.1025
 IR Inten    --     26.8571                64.3890                69.9606

                     28                     29                     30
                      A                      A                      A
 Frequencies --    414.1282               506.7134               531.2605
 Red. masses --      1.0789                 1.0912                 1.0717
 Frc consts  --      0.1090                 0.1651                 0.1782
 IR Inten    --     33.6213                 7.7269               148.5679

                     31                     32                     33
                      A                      A                      A
 Frequencies --    546.1030               585.8778               587.2124
 Red. masses --      1.1733                 1.0927                 1.1725
 Frc consts  --      0.2062                 0.2210                 0.2382
 IR Inten    --    147.3121                71.5286                85.9441

                     34                     35                     36
                      A                      A                      A
 Frequencies --    626.4494               657.6451               662.1901
 Red. masses --      1.0751                 3.3045                 1.1452
 Frc consts  --      0.2486                 0.8421                 0.2959
 IR Inten    --    156.2955                86.7497               201.5816

                     37                     38                     39
                      A                      A                      A
 Frequencies --    678.9635               690.4967               788.2885
 Red. masses --      4.3275                 1.0650                 6.9487
 Frc consts  --      1.1754                 0.2992                 2.5441
 IR Inten    --     15.9272               345.8393                54.2759

                     40                     41                     42
                      A                      A                      A
 Frequencies --    817.7190               840.2695               850.6066
 Red. masses --      1.0575                 1.0845                 1.0554
 Frc consts  --      0.4166                 0.4511                 0.4499
 IR Inten    --    220.7377               126.6015               208.0957

                     43                     44                     45
                      A                      A                      A
 Frequencies --    873.2310               914.2294               983.3522
 Red. masses --      1.0960                 1.0703                 1.0651
 Frc consts  --      0.4924                 0.5271                 0.6068
 IR Inten    --    197.1598               212.7145               258.1786

                     46                     47                     48
                      A                      A                      A
 Frequencies --   1038.0914              1152.1172              1241.4095
 Red. masses --      8.3485                 1.0448                 1.0464
 Frc consts  --      5.3007                 0.8171                 0.9501
 IR Inten    --      7.9238                46.5765               130.9522

                     49                     50                     51
                      A                      A                      A
 Frequencies --   1370.7790              1487.8277              1579.8161
 Red. masses --      2.5515                 1.4526                 1.5680
 Frc consts  --      2.8247                 1.8945                 2.3057
 IR Inten    --    462.0296                24.8775                39.9920

                     52                     53                     54
                      A                      A                      A
 Frequencies --   1707.6550              1725.1677              1739.1380
 Red. masses --      1.1144                 1.0775                 1.1241
 Frc consts  --      1.9147                 1.8894                 2.0031
 IR Inten    --    190.5614                95.1918               100.7495

                     55                     56                     57
                      A                      A                      A
 Frequencies --   1749.9216              1758.6596              1765.2709
 Red. masses --      1.0936                 1.0811                 1.1189
 Frc consts  --      1.9731                 1.9701                 2.0543
 IR Inten    --    272.6124                77.9157               112.3009

                     58                     59                     60
                      A                      A                      A
 Frequencies --   1767.9348              1804.4944              2724.0718
 Red. masses --      1.1390                 2.2517                 1.0781
 Frc consts  --      2.0974                 4.3199                 4.7137
 IR Inten    --     44.8289               276.2888              1359.6444

                     61                     62                     63
                      A                      A                      A
 Frequencies --   3121.8619              3124.8088              3247.7284
 Red. masses --      1.0669                 1.0721                 1.0656
 Frc consts  --      6.1266                 6.1680                 6.6225
 IR Inten    --    986.4320               678.9507              1011.8577

                     64                     65                     66
                      A                      A                      A
 Frequencies --   3358.9510              3374.7563              3479.0055
 Red. masses --      1.0616                 1.0619                 1.0586
 Frc consts  --      7.0569                 7.1258                 7.5490
 IR Inten    --    710.0866               627.4045               414.2656

                     67                     68                     69
                      A                      A                      A
 Frequencies --   3509.9005              3683.5908              3687.7926
 Red. masses --      1.0581                 1.0681                 1.0668
 Frc consts  --      7.6803                 8.5392                 8.5479
 IR Inten    --    729.0753               418.2928                95.7987

                     70                     71                     72
                      A                      A                      A
 Frequencies --   3711.3122              3747.4074              3779.3529
 Red. masses --      1.0496                 1.0651                 1.0778
 Frc consts  --      8.5175                 8.8123                 9.0706
 IR Inten    --    149.5822                64.3445                61.2880

                     73                     74                     75
                      A                      A                      A
 Frequencies --   3796.9758              3801.1363              3813.6282
 Red. masses --      1.0689                 1.0658                 1.0671
 Frc consts  --      9.0798                 9.0734                 9.1438
 IR Inten    --     71.5834                41.7692                63.7090

 - Thermochemistry -
 -------------------
 Temperature   298.150 Kelvin.  Pressure   1.00000 Atm.
 Atom     1 has atomic number  6 and mass  12.00000

 Molecular mass:   188.07435 amu.
 Principal axes and moments of inertia in atomic units:
                           1         2         3
     Eigenvalues --  2494.452573304.731703653.81987
           X            0.99974   0.01972  -0.01161
           Y           -0.02005   0.99937  -0.02933
           Z            0.01102   0.02956   0.99950
 This molecule is an asymmetric top.
 Rotational symmetry number  1.
 Warning -- assumption of classical behavior for rotation
           may cause significant error
 Rotational temperatures (Kelvin)      0.03472     0.02621     0.02371
 Rotational constants (GHZ):           0.72350     0.54611     0.49393
 Zero-point vibrational energy     573649.4 (Joules/Mol)
                                  137.10550 (Kcal/Mol)
 Warning -- explicit consideration of  33 degrees of freedom as
           vibrations may cause significant error
 Vibrational temperatures:     43.83    56.70    87.52    93.97   103.11
          (Kelvin)            115.93   122.99   145.20   201.00   204.53
                              213.78   233.32   264.61   295.06   312.14
                              333.13   363.10   374.87   413.94   427.86
                              455.26   457.91   466.80   496.86   515.56
                              540.11   576.18   595.84   729.05   764.37
                              785.72   842.95   844.87   901.32   946.20
                              952.74   976.88   993.47  1134.17  1176.52
                             1208.96  1223.83  1256.38  1315.37  1414.82
                             1493.58  1657.64  1786.11  1972.25  2140.65
                             2273.00  2456.93  2482.13  2502.23  2517.75
                             2530.32  2539.83  2543.66  2596.27  3919.33
                             4491.66  4495.90  4672.76  4832.78  4855.52
                             5005.51  5049.96  5299.87  5305.91  5339.75
                             5391.68  5437.65  5463.00  5468.99  5486.96

 Zero-point correction=                           0.218492 (Hartree/Particle)
 Thermal correction to Energy=                    0.239292
 Thermal correction to Enthalpy=                  0.240237
 Thermal correction to Gibbs Free Energy=         0.169564
 Sum of electronic and zero-point Energies=           -799.829429
 Sum of electronic and thermal Energies=              -799.808628
 Sum of electronic and thermal Enthalpies=            -799.807684
 Sum of electronic and thermal Free Energies=         -799.878357

                     E (Thermal)             CV                S
                      KCal/Mol        Cal/Mol-Kelvin    Cal/Mol-Kelvin
 Total                  150.158             71.298            148.743
 Electronic               0.000              0.000              0.000
 Translational            0.889              2.981             41.601
 Rotational               0.889              2.981             31.777
 Vibrational            148.381             65.336             75.365
 Vibration     1          0.594              1.984              5.799
 Vibration     2          0.594              1.981              5.289
 Vibration     3          0.597              1.973              4.430
 Vibration     4          0.597              1.971              4.290
 Vibration     5          0.598              1.968              4.107
 Vibration     6          0.600              1.962              3.877
 Vibration     7          0.601              1.959              3.761
 Vibration     8          0.604              1.948              3.436
 Vibration     9          0.615              1.914              2.808
 Vibration    10          0.616              1.911              2.775
 Vibration    11          0.618              1.904              2.690
 Vibration    12          0.622              1.889              2.524
 Vibration    13          0.631              1.862              2.288
 Vibration    14          0.640              1.833              2.087
 Vibration    15          0.646              1.815              1.984
 Vibration    16          0.653              1.793              1.867
 Vibration    17          0.664              1.759              1.714
 Vibration    18          0.669              1.745              1.658
 Vibration    19          0.685              1.697              1.487
 Vibration    20          0.691              1.679              1.432
 Vibration    21          0.703              1.642              1.329
 Vibration    22          0.705              1.639              1.319
 Vibration    23          0.709              1.627              1.288
 Vibration    24          0.724              1.585              1.187
 Vibration    25          0.733              1.558              1.129
 Vibration    26          0.746              1.523              1.058
 Vibration    27          0.766              1.469              0.961
 Vibration    28          0.778              1.440              0.912
 Vibration    29          0.862              1.235              0.642
 Vibration    30          0.886              1.181              0.584
 Vibration    31          0.901              1.148              0.552
 Vibration    32          0.943              1.062              0.475
 Vibration    33          0.944              1.059              0.472

                           ! Non-Optimized Parameters !
 Normal termination of Gaussian 16 at Tue Dec  8 20:18:33 2020.

 ----------------------------------------------------------------------
 # B3LYP/6-311++G(d,p) empiricaldispersion=gd3bj scf=xqc pop=npa geom=c
 heck
 ----------------------------------------------------------------------

 ---------------------------------------
 CID_140786738_JID_1376_Energie_neutraal
 ---------------------------------------
 Structure from the checkpoint file:  "JID_1376.chk"
 Charge =  0 Multiplicity = 1

 SCF Done:  E(RB3LYP) =  -800.441961546     A.U. after   12 cycles
 Normal termination of Gaussian 16 at Tue Dec  8 20:20:00 2020.

 ----------------------------------------------------------------------
 # B3LYP/6-311++G(d,p) empiricaldispersion=gd3bj scf=xqc pop=npa geom=c
 heck
 ----------------------------------------------------------------------

 -------------------------------------
 CID_140786738_JID_1376_Energie_kation
 -------------------------------------
 Structure from the checkpoint file:  "JID_1376.chk"
 Charge =  1 Multiplicity = 2

 SCF Done:  E(UB3LYP) =  -800.062111184     A.U. after   28 cycles
 Normal termination of Gaussian 16 at Tue Dec  8 20:24:43 2020.
 Gaussian 16:  ES64L-G16RevA.03 25-Dec-2016

 ----------------------------------------------------------------------
 # B3LYP/6-311++G(d,p) empiricaldispersion=gd3bj scf=xqc pop=npa geom=c
 heck
 ----------------------------------------------------------------------

 ------------------------------------
 CID_140786738_JID_1376_Energie_anion
 ------------------------------------
 Structure from the checkpoint file:  "JID_1376.chk"
 Charge = -1 Multiplicity = 2

                         Standard orientation:
 ---------------------------------------------------------------------
 Center     Atomic      Atomic             Coordinates (Angstroms)
 Number     Number       Type             X           Y           Z
 ---------------------------------------------------------------------
      1          6           0        0.236819   -0.329990   -1.113043
      2          8           0        1.049854   -1.072436   -0.559481
      3          8           0       -0.949127   -0.724214   -1.535331
      4          8           0        0.442762    0.958474   -1.371640
      5          8           0       -1.100768   -2.959998   -0.281848
      6          8           0       -1.396471   -1.268698    1.789716
      7          8           0        3.653516   -0.578798    0.161204
      8          8           0        2.334656    1.677941    0.307210
      9          8           0        0.211479    0.792904    2.085028
     10          8           0       -2.335652    1.799457   -1.534493
     11          8           0       -2.239055    1.474473    1.226034
     12          1           0       -1.100585   -1.675609   -1.171541
     13          1           0        1.247572    1.274034   -0.864204
     14          1           0       -1.279924   -2.484871    0.574057
     15          1           0       -0.133043   -3.060098   -0.266359
     16          1           0       -1.619140   -1.514520    2.699894
     17          1           0       -0.614414   -0.643148    1.875108
     18          1           0        4.169535   -0.704674   -0.649582
     19          1           0        2.761833   -0.940168   -0.054077
     20          1           0        3.021258    0.948460    0.317935
     21          1           0        2.788803    2.527713    0.401341
     22          1           0        0.975668    1.085357    1.554339
     23          1           0       -0.568452    1.319678    1.771281
     24          1           0       -2.310929    0.851166   -1.752975
     25          1           0       -1.394571    2.027902   -1.622967
     26          1           0       -2.368257    0.511444    1.308590
     27          1           0       -2.365813    1.664436    0.266226
 ---------------------------------------------------------------------

 SCF Done:  E(UB3LYP) =  -800.444071461     A.U. after   18 cycles

 The electronic state is 2-A.
 Alpha  occ. eigenvalues --  -19.07101 -19.06974 -19.03972 -19.03822 -19.03334
 Alpha  occ. eigenvalues --  -19.03005 -19.02364 -19.01987 -19.01152 -19.00365
 Alpha  occ. eigenvalues --  -10.26464  -1.05356  -0.96051  -0.93316  -0.93016
 Alpha  occ. eigenvalues --   -0.92372  -0.92095  -0.91914  -0.90133  -0.89864
 Alpha  occ. eigenvalues --   -0.88366  -0.56965  -0.45702  -0.45340  -0.44999
 Alpha  occ. eigenvalues --   -0.44536  -0.43809  -0.43273  -0.42382  -0.40930
 Alpha  occ. eigenvalues --   -0.40299  -0.39276  -0.37336  -0.33944  -0.33912
 Alpha  occ. eigenvalues --   -0.31876  -0.30455  -0.29537  -0.29167  -0.28393
 Alpha  occ. eigenvalues --   -0.26745  -0.25597  -0.23709  -0.23565  -0.23241
 Alpha  occ. eigenvalues --   -0.23032  -0.22300  -0.21809  -0.21206  -0.20474
 Alpha  occ. eigenvalues --   -0.19844   0.03694
 Alpha virt. eigenvalues --    0.06213   0.07753   0.08747   0.09906   0.11193
 Alpha virt. eigenvalues --    0.11821   0.12555   0.13124   0.13533   0.14522
 Alpha virt. eigenvalues --    0.14848   0.15302   0.16243   0.16622   0.16772

  Beta  occ. eigenvalues --  -19.07085 -19.06946 -19.03948 -19.03784 -19.03320
  Beta  occ. eigenvalues --  -19.02907 -19.02337 -19.01907 -19.01137 -19.00341
  Beta  occ. eigenvalues --  -10.26458  -1.05321  -0.96002  -0.93245  -0.92974
  Beta  occ. eigenvalues --   -0.92327  -0.91910  -0.91839  -0.89988  -0.89767
  Beta  occ. eigenvalues --   -0.88310  -0.56926  -0.45662  -0.45224  -0.44922
  Beta  occ. eigenvalues --   -0.44479  -0.43728  -0.43248  -0.42351  -0.40898
  Beta  occ. eigenvalues --   -0.40206  -0.39236  -0.37303  -0.33903  -0.33877
  Beta  occ. eigenvalues --   -0.31825  -0.30424  -0.29498  -0.29119  -0.28334
  Beta  occ. eigenvalues --   -0.26711  -0.25571  -0.23663  -0.23526  -0.23211
  Beta  occ. eigenvalues --   -0.22950  -0.22280  -0.21726  -0.21177  -0.20419
  Beta  occ. eigenvalues --   -0.19813
  Beta virt. eigenvalues --    0.06203   0.07595   0.08910   0.09128   0.10528
  Beta virt. eigenvalues --    0.11280   0.11955   0.12566   0.13098   0.13566
  Beta virt. eigenvalues --    0.14880   0.14902   0.15820   0.16247   0.16573

 Mulliken charges and spin densities:
               1          2
     1  C    0.412785  -0.428756
     2  O   -0.477574   0.052795
     3  O   -0.359587   0.054551
     4  O   -0.403362   0.075355
     5  O   -0.497151  -0.007427
     6  O   -0.606202  -0.076741
     7  O   -0.436846  -0.156766
     8  O   -0.637740  -0.096768
     9  O   -0.681826   0.066868
    10  O   -0.481772   0.000140
    11  O   -0.632275   0.014573
    12  H    0.338750   0.047091
    13  H    0.533184  -0.068553
    14  H    0.397576  -0.043773
    15  H    0.110034   0.157608
    16  H    0.050565   0.235802
    17  H    0.305138   0.069118
    18  H   -0.317794   0.601635
    19  H    0.346982   0.004441
    20  H    0.661744  -0.282321
    21  H   -0.376343   0.709788
    22  H    0.408642  -0.043904
    23  H    0.309909   0.000661
    24  H    0.235885   0.031245
    25  H    0.201222   0.064171
    26  H    0.253280   0.012602
    27  H    0.342777   0.006566
 Sum of Mulliken charges =  -1.00000   1.00000

 Dipole moment (field-independent basis, Debye):
    X=             -4.6417    Y=             -2.4313    Z=             -0.9475  Tot=              5.3249
 Quadrupole moment (field-independent basis, Debye-Ang):
   XX=           -129.0220   YY=           -108.3054   ZZ=            -96.5474
   XY=              0.7856   XZ=             -0.5762   YZ=             -3.8348

 Summary of Natural Population Analysis:

                                       Natural Population
                Natural  -----------------------------------------------
    Atom  No    Charge         Core      Valence    Rydberg      Total
 -----------------------------------------------------------------------
      C    1    0.51939      0.99981     1.45158    0.02922     2.48061
      O    2   -0.36606      0.99984     3.35819    0.00803     4.36606
      O    3   -0.36724      0.99985     3.36040    0.00698     4.36724
      O    4   -0.36622      0.99985     3.35873    0.00763     4.36622
      O    5   -0.47447      0.99990     3.46946    0.00511     4.47447
      O    6   -0.50046      0.99989     3.49414    0.00643     4.50046
      O    7   -0.47643      0.99990     3.47026    0.00628     4.47643
      O    8   -0.49969      0.99988     3.49279    0.00702     4.49969
      O    9   -0.49735      0.99989     3.49241    0.00505     4.49735
      O   10   -0.47536      0.99991     3.46990    0.00555     4.47536
      O   11   -0.49077      0.99990     3.48501    0.00585     4.49077
      H   12    0.25667      0.00000     0.23972    0.00361     0.24333
      H   13    0.26482      0.00000     0.23007    0.00511     0.23518
      H   14    0.25562      0.00000     0.24152    0.00286     0.24438
      H   15    0.24421      0.00000     0.25319    0.00259     0.25579
      H   16    0.23838      0.00000     0.25875    0.00287     0.26162
      H   17    0.25824      0.00000     0.23861    0.00315     0.24176
      H   18    0.23988      0.00000     0.24903    0.01109     0.26012
      H   19    0.25251      0.00000     0.24314    0.00435     0.24749
      H   20    0.25876      0.00000     0.23513    0.00611     0.24124
      H   21    0.25108      0.00000     0.23355    0.01537     0.24892
      H   22    0.25131      0.00000     0.24579    0.00291     0.24869
      H   23    0.24877      0.00000     0.24840    0.00283     0.25123
      H   24    0.24292      0.00000     0.25459    0.00249     0.25708
      H   25    0.24404      0.00000     0.25337    0.00259     0.25596
      H   26    0.24039      0.00000     0.25679    0.00282     0.25961
      H   27    0.24705      0.00000     0.25016    0.00279     0.25295
 =======================================================================
   * Total *   -0.00000     10.99863    39.83467    0.16670    51.00000

 Normal termination of Gaussian 16 at Tue Dec  8 20:30:24 2020.
