 Gaussian 16, Revision A.03,

 -----------------------------------------------------------
 # opt freq B3LYP/6-31G(d) empiricaldispersion=gd3bj scf=xqc
 -----------------------------------------------------------

 -------------------------------
 CID_130030580_JID_1928_neutraal
 -------------------------------
 Symbolic Z-matrix:
 Charge =  0 Multiplicity = 1

 SCF Done:  E(RB3LYP) =  -537.766338090     A.U. after   14 cycles
 SCF Done:  E(RB3LYP) =  -537.772688365     A.U. after   13 cycles
 SCF Done:  E(RB3LYP) =  -537.773392361     A.U. after   13 cycles
 SCF Done:  E(RB3LYP) =  -537.773394221     A.U. after   13 cycles
 SCF Done:  E(RB3LYP) =  -537.773758046     A.U. after   11 cycles
 SCF Done:  E(RB3LYP) =  -537.773870280     A.U. after   12 cycles
 SCF Done:  E(RB3LYP) =  -537.773907156     A.U. after   11 cycles
 SCF Done:  E(RB3LYP) =  -537.773919735     A.U. after   10 cycles
 SCF Done:  E(RB3LYP) =  -537.773922935     A.U. after    9 cycles
 Optimization completed.
    -- Stationary point found.

 1\1\GINC-NODE355\FOpt\RB3LYP\6-31G(d)\C8H12O3\VSC10255\08-Dec-2020\0\\
 # opt freq B3LYP/6-31G(d) empiricaldispersion=gd3bj scf=xqc\\CID_13003
 0580_JID_1928_neutraal\\0,1\C,1.9015535617,0.992373149,-0.7457781694\C
 ,2.4720692743,-0.2060338252,0.024028666\C,1.398319962,-1.2770039625,0.
 1897589876\O,0.2383352408,-0.7469836394,0.8483684615\C,-0.3580853405,0
 .3338177204,0.1461128626\C,0.6116264542,1.4836074588,-0.0760280968\C,-
 1.6023855045,0.679963597,0.9923326239\O,-1.6235228561,1.4193816237,1.9
 457342451\C,-2.7787033481,-0.0529402905,0.3503995672\C,-2.1150836697,-

 Normal termination of Gaussian 16 at Tue Dec  8 21:40:50 2020.

 --------------------------------------------------------------------
 #N Geom=AllCheck Guess=TCheck SCRF=Check GenChk RB3LYP/6-31G(d) Freq
 --------------------------------------------------------------------

 Structure from the checkpoint file:  "JID_1928.chk"
 -------------------------------
 CID_130030580_JID_1928_neutraal
 -------------------------------
 Charge =  0 Multiplicity = 1

 SCF Done:  E(RB3LYP) =  -537.773922935     A.U. after    1 cycles

  Exact polarizability:  98.297  -1.743  84.909   1.869  -0.064  74.109
 Approx polarizability: 119.443   0.436 127.828   1.163  -6.841 113.031

                      1                      2                      3
                      A                      A                      A
 Frequencies --     69.4447               102.4378               154.4018
 Red. masses --      3.2028                 3.4900                 2.7695
 Frc consts  --      0.0091                 0.0216                 0.0389
 IR Inten    --      5.7097                 1.6082                 0.2627

                      4                      5                      6
                      A                      A                      A
 Frequencies --    169.1077               239.3296               281.0761
 Red. masses --      2.9786                 2.6091                 5.8450
 Frc consts  --      0.0502                 0.0881                 0.2721
 IR Inten    --      1.2264                 9.0357                 3.0989

                      7                      8                      9
                      A                      A                      A
 Frequencies --    310.3158               387.3749               429.4254
 Red. masses --      2.1783                 2.0771                 4.5416
 Frc consts  --      0.1236                 0.1836                 0.4934
 IR Inten    --      2.4560                 3.7921                10.5107

                     10                     11                     12
                      A                      A                      A
 Frequencies --    489.8006               526.9470               562.5593
 Red. masses --      4.6813                 2.3256                 2.2041
 Frc consts  --      0.6617                 0.3805                 0.4110
 IR Inten    --      2.4495                 2.5071                 1.1535

                     13                     14                     15
                      A                      A                      A
 Frequencies --    594.4076               614.3486               675.7592
 Red. masses --      3.7271                 3.7799                 3.8681
 Frc consts  --      0.7759                 0.8406                 1.0407
 IR Inten    --      6.7362                 2.9718                11.8373

                     16                     17                     18
                      A                      A                      A
 Frequencies --    738.4990               829.8868               838.6635
 Red. masses --      4.1506                 1.9838                 1.7306
 Frc consts  --      1.3337                 0.8050                 0.7172
 IR Inten    --      0.6048                18.4057                 4.8015

                     19                     20                     21
                      A                      A                      A
 Frequencies --    861.6509               903.1323               917.0951
 Red. masses --      2.5868                 2.1657                 2.1360
 Frc consts  --      1.1315                 1.0408                 1.0585
 IR Inten    --      6.3579                12.6546                18.4604

                     22                     23                     24
                      A                      A                      A
 Frequencies --    947.5467               977.4116               984.6323
 Red. masses --      2.6333                 2.0755                 2.6737
 Frc consts  --      1.3930                 1.1682                 1.5273
 IR Inten    --      6.7670                 5.4006                42.9732

                     25                     26                     27
                      A                      A                      A
 Frequencies --   1013.6319              1053.1966              1062.5736
 Red. masses --      2.4757                 2.0204                 2.1997
 Frc consts  --      1.4987                 1.3204                 1.4633
 IR Inten    --      5.2912                54.4322               141.8947

                     28                     29                     30
                      A                      A                      A
 Frequencies --   1072.6749              1097.8601              1150.0068
 Red. masses --      2.6263                 3.3930                 2.6240
 Frc consts  --      1.7804                 2.4095                 2.0447
 IR Inten    --     75.1137                50.3841                30.6545

                     31                     32                     33
                      A                      A                      A
 Frequencies --   1196.8634              1210.5446              1226.3667
 Red. masses --      2.1733                 1.8365                 1.3834
 Frc consts  --      1.8342                 1.5856                 1.2258
 IR Inten    --     26.7143                39.9975                19.7814

                     34                     35                     36
                      A                      A                      A
 Frequencies --   1244.0694              1253.3652              1269.6301
 Red. masses --      1.5621                 1.7232                 1.7503
 Frc consts  --      1.4244                 1.5949                 1.6623
 IR Inten    --     18.4756                 1.4183                 6.9542

                     37                     38                     39
                      A                      A                      A
 Frequencies --   1296.6917              1304.9929              1329.9441
 Red. masses --      1.2966                 1.2467                 1.2367
 Frc consts  --      1.2844                 1.2509                 1.2888
 IR Inten    --      4.7677                 9.2576                 2.9652

                     40                     41                     42
                      A                      A                      A
 Frequencies --   1385.1926              1398.3668              1405.6950
 Red. masses --      1.4135                 1.4208                 1.3691
 Frc consts  --      1.5979                 1.6369                 1.5940
 IR Inten    --      1.6671                 2.6648                 4.1706

                     43                     44                     45
                      A                      A                      A
 Frequencies --   1413.4372              1427.2511              1476.9516
 Red. masses --      1.8241                 1.3297                 1.0908
 Frc consts  --      2.1471                 1.5959                 1.4020
 IR Inten    --      4.8359                12.0057                 8.7419

                     46                     47                     48
                      A                      A                      A
 Frequencies --   1502.3285              1511.3433              1521.2792
 Red. masses --      1.0943                 1.0854                 1.0927
 Frc consts  --      1.4552                 1.4608                 1.4899
 IR Inten    --      2.5251                 4.3691                 2.3685

                     49                     50                     51
                      A                      A                      A
 Frequencies --   1535.5260              1542.0507              1869.2864
 Red. masses --      1.0965                 1.0987                12.9331
 Frc consts  --      1.5233                 1.5393                26.6260
 IR Inten    --      2.2385                 1.3294               167.1475

                     52                     53                     54
                      A                      A                      A
 Frequencies --   3039.2629              3045.8855              3051.8289
 Red. masses --      1.0684                 1.0599                 1.0625
 Frc consts  --      5.8146                 5.7937                 5.8303
 IR Inten    --     30.5563                25.9456                22.9446

                     55                     56                     57
                      A                      A                      A
 Frequencies --   3064.0326              3069.4761              3077.5429
 Red. masses --      1.0677                 1.0625                 1.0635
 Frc consts  --      5.9061                 5.8981                 5.9346
 IR Inten    --     41.9370                 9.6912                 7.8654

                     58                     59                     60
                      A                      A                      A
 Frequencies --   3087.0356              3097.0791              3117.6721
 Red. masses --      1.0991                 1.1027                 1.1048
 Frc consts  --      6.1714                 6.2316                 6.3267
 IR Inten    --     35.8525                51.5812                16.4653

                     61                     62                     63
                      A                      A                      A
 Frequencies --   3120.8395              3129.9310              3146.2061
 Red. masses --      1.1001                 1.0991                 1.1027
 Frc consts  --      6.3129                 6.3439                 6.4308
 IR Inten    --     45.3902                 4.8974                27.8768

 - Thermochemistry -
 -------------------
 Temperature   298.150 Kelvin.  Pressure   1.00000 Atm.
 Atom     1 has atomic number  6 and mass  12.00000

 Molecular mass:   156.07864 amu.
 Principal axes and moments of inertia in atomic units:
                           1         2         3
     Eigenvalues --   910.785571933.889642167.83604
           X            0.99953  -0.03055   0.00171
           Y            0.03032   0.99639   0.07926
           Z           -0.00413  -0.07917   0.99685
 This molecule is an asymmetric top.
 Rotational symmetry number  1.
 Warning -- assumption of classical behavior for rotation
           may cause significant error
 Rotational temperatures (Kelvin)      0.09510     0.04479     0.03995
 Rotational constants (GHZ):           1.98152     0.93322     0.83251
 Zero-point vibrational energy     516925.3 (Joules/Mol)
                                  123.54812 (Kcal/Mol)
 Warning -- explicit consideration of  14 degrees of freedom as
           vibrations may cause significant error
 Vibrational temperatures:     99.92   147.39   222.15   243.31   344.34
          (Kelvin)            404.41   446.48   557.35   617.85   704.71
                              758.16   809.40   855.22   883.91   972.27
                             1062.54  1194.02  1206.65  1239.72  1299.41
                             1319.50  1363.31  1406.28  1416.67  1458.39
                             1515.31  1528.81  1543.34  1579.58  1654.60
                             1722.02  1741.70  1764.47  1789.94  1803.31
                             1826.71  1865.65  1877.59  1913.49  1992.98
                             2011.94  2022.48  2033.62  2053.50  2125.00
                             2161.52  2174.49  2188.78  2209.28  2218.67
                             2689.49  4372.82  4382.35  4390.90  4408.46
                             4416.29  4427.90  4441.56  4456.01  4485.63
                             4490.19  4503.27  4526.69

 Zero-point correction=                           0.196886 (Hartree/Particle)
 Thermal correction to Energy=                    0.206384
 Thermal correction to Enthalpy=                  0.207328
 Thermal correction to Gibbs Free Energy=         0.162076
 Sum of electronic and zero-point Energies=           -537.577036
 Sum of electronic and thermal Energies=              -537.567539
 Sum of electronic and thermal Enthalpies=            -537.566595
 Sum of electronic and thermal Free Energies=         -537.611847

                     E (Thermal)             CV                S
                      KCal/Mol        Cal/Mol-Kelvin    Cal/Mol-Kelvin
 Total                  129.508             37.240             95.240
 Electronic               0.000              0.000              0.000
 Translational            0.889              2.981             41.045
 Rotational               0.889              2.981             29.725
 Vibrational            127.730             31.278             24.470
 Vibration     1          0.598              1.969              4.169
 Vibration     2          0.605              1.947              3.407
 Vibration     3          0.620              1.898              2.617
 Vibration     4          0.625              1.880              2.445
 Vibration     5          0.657              1.780              1.808
 Vibration     6          0.681              1.709              1.527
 Vibration     7          0.699              1.654              1.361
 Vibration     8          0.756              1.497              1.010
 Vibration     9          0.791              1.406              0.861
 Vibration    10          0.846              1.273              0.684
 Vibration    11          0.882              1.190              0.594
 Vibration    12          0.918              1.112              0.519
 Vibration    13          0.952              1.044              0.459
 Vibration    14          0.974              1.002              0.426

 Optimization completed.
    -- Stationary point found.

 1\1\GINC-NODE355\Freq\RB3LYP\6-31G(d)\C8H12O3\VSC10255\08-Dec-2020\0\\
 #N Geom=AllCheck Guess=TCheck SCRF=Check GenChk RB3LYP/6-31G(d) Freq\\
 CID_130030580_JID_1928_neutraal\\0,1\C,1.9015535617,0.992373149,-0.745
 7781694\C,2.4720692743,-0.2060338252,0.024028666\C,1.398319962,-1.2770
 039625,0.1897589876\O,0.2383352408,-0.7469836394,0.8483684615\C,-0.358
 0853405,0.3338177204,0.1461128626\C,0.6116264542,1.4836074588,-0.07602
 80968\C,-1.6023855045,0.679963597,0.9923326239\O,-1.6235228561,1.41938
 16237,1.9457342451\C,-2.7787033481,-0.0529402905,0.3503995672\C,-2.115

 Normal termination of Gaussian 16 at Tue Dec  8 21:46:49 2020.

 ----------------------------------------------------------------------
 # B3LYP/6-311++G(d,p) empiricaldispersion=gd3bj scf=xqc pop=npa geom=c
 heck
 ----------------------------------------------------------------------

 ---------------------------------------
 CID_130030580_JID_1928_Energie_neutraal
 ---------------------------------------
 Structure from the checkpoint file:  "JID_1928.chk"
 Charge =  0 Multiplicity = 1

 SCF Done:  E(RB3LYP) =  -537.928723921     A.U. after   14 cycles
 Normal termination of Gaussian 16 at Tue Dec  8 21:50:11 2020.

 ----------------------------------------------------------------------
 # B3LYP/6-311++G(d,p) empiricaldispersion=gd3bj scf=xqc pop=npa geom=c
 heck
 ----------------------------------------------------------------------

 -------------------------------------
 CID_130030580_JID_1928_Energie_kation
 -------------------------------------
 Structure from the checkpoint file:  "JID_1928.chk"
 Charge =  1 Multiplicity = 2

 SCF Done:  E(UB3LYP) =  -537.595358876     A.U. after   21 cycles
 Normal termination of Gaussian 16 at Tue Dec  8 21:54:09 2020.
 Gaussian 16:  ES64L-G16RevA.03 25-Dec-2016

 ------------------------------------
 CID_130030580_JID_1928_Energie_anion
 ------------------------------------
 Structure from the checkpoint file:  "JID_1928.chk"
 Charge = -1 Multiplicity = 2

                         Standard orientation:
 ---------------------------------------------------------------------
 Center     Atomic      Atomic             Coordinates (Angstroms)
 Number     Number       Type             X           Y           Z
 ---------------------------------------------------------------------
      1          6           0       -2.191244    0.471361    0.988819
      2          6           0       -2.687899   -0.054566   -0.364327
      3          6           0       -1.639559   -0.975256   -0.981330
      4          8           0       -0.379855   -0.301685   -1.121685
      5          6           0        0.147932    0.159563    0.113508
      6          6           0       -0.802769    1.104614    0.830969
      7          6           0        1.511320    0.771483   -0.274971
      8          8           0        1.693738    1.900676   -0.659426
      9          6           0        2.557985   -0.312634   -0.025707
     10          6           0        1.711176   -1.501007    0.442693
     11          8           0        0.500181   -0.915932    0.962539
     12          1           0       -2.893480    1.203770    1.402725
     13          1           0       -2.129830   -0.358277    1.704184
     14          1           0       -3.634585   -0.597367   -0.251753
     15          1           0       -2.867992    0.785465   -1.047532
     16          1           0       -1.505988   -1.874088   -0.364129
     17          1           0       -1.912143   -1.285058   -1.993585
     18          1           0       -0.856763    2.016389    0.225414
     19          1           0       -0.373691    1.373132    1.801560
     20          1           0        3.241472    0.039015    0.755427
     21          1           0        3.146077   -0.498359   -0.928769
     22          1           0        2.159587   -2.075146    1.255100
     23          1           0        1.473165   -2.175291   -0.387986
 ---------------------------------------------------------------------

 SCF Done:  E(UB3LYP) =  -537.913940208     A.U. after   33 cycles
 SCF Done:  E(UB3LYP) =  -537.913940208     a.u. after    1 cycles

 The electronic state is 2-A.
 Alpha  occ. eigenvalues --  -19.02012 -19.01554 -18.98735 -10.15385 -10.12148
 Alpha  occ. eigenvalues --  -10.10857 -10.10525 -10.06222 -10.05851 -10.05754
 Alpha  occ. eigenvalues --  -10.05584  -0.96880  -0.91946  -0.90186  -0.69281
 Alpha  occ. eigenvalues --   -0.66116  -0.65546  -0.56738  -0.53760  -0.50652
 Alpha  occ. eigenvalues --   -0.45524  -0.43626  -0.38592  -0.38290  -0.36592
 Alpha  occ. eigenvalues --   -0.35438  -0.34020  -0.32948  -0.31862  -0.29353
 Alpha  occ. eigenvalues --   -0.29059  -0.27777  -0.27172  -0.26421  -0.24554
 Alpha  occ. eigenvalues --   -0.23676  -0.23081  -0.22557  -0.20580  -0.16865
 Alpha  occ. eigenvalues --   -0.15937  -0.12304   0.05141
 Alpha virt. eigenvalues --    0.06857   0.07643   0.08589   0.09507   0.09941
 Alpha virt. eigenvalues --    0.10474   0.10648   0.12270   0.12474   0.12803
 Alpha virt. eigenvalues --    0.13619   0.14911   0.15210   0.16689   0.17628

  Beta  occ. eigenvalues --  -19.02005 -19.01509 -18.98540 -10.15397 -10.11894
  Beta  occ. eigenvalues --  -10.10831 -10.10504 -10.06227 -10.05830 -10.05730
  Beta  occ. eigenvalues --  -10.05575  -0.96802  -0.91572  -0.90127  -0.69231
  Beta  occ. eigenvalues --   -0.66063  -0.65346  -0.56562  -0.53693  -0.50572
  Beta  occ. eigenvalues --   -0.45297  -0.43539  -0.38515  -0.38138  -0.36444
  Beta  occ. eigenvalues --   -0.35257  -0.33918  -0.32822  -0.31778  -0.29136
  Beta  occ. eigenvalues --   -0.28760  -0.27671  -0.27100  -0.26377  -0.24317
  Beta  occ. eigenvalues --   -0.23336  -0.22679  -0.22488  -0.20523  -0.16809
  Beta  occ. eigenvalues --   -0.15885  -0.12154
  Beta virt. eigenvalues --    0.07579   0.08454   0.08819   0.09726   0.09875
  Beta virt. eigenvalues --    0.10759   0.10900   0.10983   0.12393   0.12669
  Beta virt. eigenvalues --    0.13307   0.13947   0.14927   0.15256   0.16722

 Mulliken charges and spin densities:
               1          2
     1  C   -0.015788  -0.138049
     2  C    0.670906  -1.083361
     3  C   -0.042409   0.022519
     4  O   -0.009571   0.028732
     5  C   -0.981466   0.123876
     6  C   -0.234903   0.017852
     7  C    0.807413  -0.460594
     8  O   -0.343844   0.089368
     9  C    0.058364  -0.412197
    10  C    0.601634  -0.672143
    11  O   -0.018933   0.046659
    12  H   -0.689225   0.873550
    13  H    0.255375  -0.105345
    14  H   -0.811803   0.971434
    15  H    0.286593  -0.156307
    16  H    0.109628   0.017397
    17  H   -0.152430   0.321013
    18  H    0.121072   0.057202
    19  H    0.065688   0.116358
    20  H   -0.331244   0.530426
    21  H    0.115125   0.036729
    22  H   -0.547677   0.730187
    23  H    0.087495   0.044693
 Sum of Mulliken charges =  -1.00000   1.00000

 Dipole moment (field-independent basis, Debye):
    X=              0.6621    Y=             -0.9571    Z=             -2.3408  Tot=              2.6141
 Quadrupole moment (field-independent basis, Debye-Ang):
   XX=           -129.4473   YY=            -95.9922   ZZ=            -93.5443
   XY=             -1.3624   XZ=             -3.1555   YZ=              4.3065

 Summary of Natural Population Analysis:

                                       Natural Population
                Natural  -----------------------------------------------
    Atom  No    Charge         Core      Valence    Rydberg      Total
 -----------------------------------------------------------------------
      C    1   -0.19077      0.99963     2.18174    0.00940     3.19077
      C    2   -0.20383      0.99963     2.19537    0.00882     3.20383
      C    3   -0.01128      0.99956     1.99887    0.01285     3.01128
      O    4   -0.30655      0.99987     3.29829    0.00839     4.30655
      C    5    0.25217      0.99950     1.72742    0.02091     2.74783
      C    6   -0.20615      0.99957     2.19548    0.01111     3.20615
      C    7    0.32606      0.99960     1.65115    0.02319     2.67394
      O    8   -0.26742      0.99987     3.26107    0.00649     4.26742
      C    9   -0.25636      0.99960     2.24843    0.00834     3.25636
      C   10   -0.01276      0.99959     2.00067    0.01250     3.01276
      O   11   -0.30686      0.99988     3.29819    0.00880     4.30686
      H   12    0.10082      0.00000     0.39726    0.00192     0.39918
      H   13    0.09787      0.00000     0.40066    0.00148     0.40213
      H   14    0.10258      0.00000     0.39486    0.00256     0.39742
      H   15    0.09454      0.00000     0.40420    0.00126     0.40546
      H   16    0.08266      0.00000     0.41584    0.00150     0.41734
      H   17    0.08837      0.00000     0.41057    0.00106     0.41163
      H   18    0.10777      0.00000     0.39109    0.00114     0.39223
      H   19    0.10635      0.00000     0.39254    0.00111     0.39365
      H   20    0.11794      0.00000     0.37769    0.00437     0.38206
      H   21    0.11009      0.00000     0.38905    0.00086     0.38991
      H   22    0.09326      0.00000     0.40436    0.00238     0.40674
      H   23    0.08151      0.00000     0.41710    0.00139     0.41849
 =======================================================================
   * Total *   -0.00000     10.99629    30.85186    0.15185    42.00000

 Normal termination of Gaussian 16 at Tue Dec  8 21:59:12 2020.
