 Gaussian 16, Revision A.03,

 -----------------------------------------------------------
 # opt freq B3LYP/6-31G(d) empiricaldispersion=gd3bj scf=xqc
 -----------------------------------------------------------

 ------------------------------
 CID_50854003_JID_8609_neutraal
 ------------------------------
 Symbolic Z-matrix:
 Charge =  0 Multiplicity = 1

 SCF Done:  E(RB3LYP) =  -855.129175532     A.U. after   15 cycles
 SCF Done:  E(RB3LYP) =  -855.138476820     A.U. after   13 cycles
 SCF Done:  E(RB3LYP) =  -855.144135026     A.U. after   15 cycles
 SCF Done:  E(RB3LYP) =  -855.146755013     A.U. after   15 cycles
 SCF Done:  E(RB3LYP) =  -855.147469850     A.U. after   12 cycles
 SCF Done:  E(RB3LYP) =  -855.147629443     A.U. after   13 cycles
 SCF Done:  E(RB3LYP) =  -855.148075549     A.U. after   12 cycles
 SCF Done:  E(RB3LYP) =  -855.148114691     A.U. after   11 cycles
 SCF Done:  E(RB3LYP) =  -855.148137493     A.U. after   10 cycles
 SCF Done:  E(RB3LYP) =  -855.148138233     A.U. after   10 cycles
 SCF Done:  E(RB3LYP) =  -855.148142293     A.U. after    8 cycles
 SCF Done:  E(RB3LYP) =  -855.148143105     A.U. after    8 cycles
 SCF Done:  E(RB3LYP) =  -855.148143569     A.U. after    8 cycles
 SCF Done:  E(RB3LYP) =  -855.148143713     A.U. after    7 cycles
 Optimization completed.
    -- Stationary point found.
 Normal termination of Gaussian 16 at Fri Dec 11 21:16:27 2020.

 --------------------------------------------------------------------
 #N Geom=AllCheck Guess=TCheck SCRF=Check GenChk RB3LYP/6-31G(d) Freq
 --------------------------------------------------------------------

 Structure from the checkpoint file:  "JID_8609.chk"
 ------------------------------
 CID_50854003_JID_8609_neutraal
 ------------------------------
 Charge =  0 Multiplicity = 1

 SCF Done:  E(RB3LYP) =  -855.148143713     A.U. after    1 cycles

  Exact polarizability: 274.520 -10.658 157.705   0.032   0.002  74.943
 Approx polarizability: 390.533 -17.741 263.280   0.106  -0.009 109.870

                      1                      2                      3
                      A                      A                      A
 Frequencies --     16.0054                37.7203                45.8377
 Red. masses --      3.0904                 7.8467                 4.6287
 Frc consts  --      0.0005                 0.0066                 0.0057
 IR Inten    --      0.0051                 0.6892                 0.0089

                      4                      5                      6
                      A                      A                      A
 Frequencies --     83.3093                96.8356               137.1748
 Red. masses --      4.5934                 3.9833                12.4488
 Frc consts  --      0.0188                 0.0220                 0.1380
 IR Inten    --      0.2743                 0.0094                 2.3672

                      7                      8                      9
                      A                      A                      A
 Frequencies --    138.0259               147.1430               168.8923
 Red. masses --      8.4016                 4.7426                 6.7207
 Frc consts  --      0.0943                 0.0605                 0.1129
 IR Inten    --      0.8736                 0.3599                 0.7805

                     10                     11                     12
                      A                      A                      A
 Frequencies --    233.8400               252.8654               270.4039
 Red. masses --      1.0455                 1.3945                 3.4096
 Frc consts  --      0.0337                 0.0525                 0.1469
 IR Inten    --      0.0001                 0.3991                 5.6918

                     13                     14                     15
                      A                      A                      A
 Frequencies --    288.9487               302.9825               330.5813
 Red. masses --      6.5756                 2.9252                 2.6244
 Frc consts  --      0.3235                 0.1582                 0.1690
 IR Inten    --      0.5978                 0.8338                 2.7534

                     16                     17                     18
                      A                      A                      A
 Frequencies --    389.8244               392.2141               421.7360
 Red. masses --     11.4884                 3.4487                12.7723
 Frc consts  --      1.0286                 0.3126                 1.3384
 IR Inten    --     29.8794                 1.5002                 1.3242

                     19                     20                     21
                      A                      A                      A
 Frequencies --    458.0853               491.2542               513.8945
 Red. masses --      3.4431                 3.1706                 9.9777
 Frc consts  --      0.4257                 0.4508                 1.5525
 IR Inten    --      0.0339                 6.8917                18.6679

                     22                     23                     24
                      A                      A                      A
 Frequencies --    542.3806               618.3577               618.7958
 Red. masses --      5.4750                 1.3114                 3.8572
 Frc consts  --      0.9490                 0.2954                 0.8702
 IR Inten    --     75.1168                 0.4769                 7.0514

                     25                     26                     27
                      A                      A                      A
 Frequencies --    644.1820               649.6161               662.2069
 Red. masses --      6.4998                 4.0674                 2.5177
 Frc consts  --      1.5892                 1.0113                 0.6505
 IR Inten    --      0.7944                 3.1084                13.5737

                     28                     29                     30
                      A                      A                      A
 Frequencies --    683.7427               683.8577               708.0946
 Red. masses --      4.5952                 1.1026                 1.2538
 Frc consts  --      1.2657                 0.3038                 0.3704
 IR Inten    --      9.8782               160.8004                17.7684

                     31                     32                     33
                      A                      A                      A
 Frequencies --    730.6278               742.5703               770.9469
 Red. masses --      5.8211                 9.7592                 4.5904
 Frc consts  --      1.8308                 3.1706                 1.6075
 IR Inten    --      0.7493                75.7655                23.2233

                     34                     35                     36
                      A                      A                      A
 Frequencies --    784.8194               841.5323               858.0635
 Red. masses --      9.9407                 1.2759                 5.4188
 Frc consts  --      3.6075                 0.5323                 2.3507
 IR Inten    --     24.0606                 0.3805                 0.2105

                     37                     38                     39
                      A                      A                      A
 Frequencies --    860.5576               895.6061               948.8682
 Red. masses --      1.4574                 2.6312                 1.1956
 Frc consts  --      0.6359                 1.2435                 0.6342
 IR Inten    --     20.6384                 1.8335                 0.5938

                     40                     41                     42
                      A                      A                      A
 Frequencies --    964.1692              1001.8283              1020.6842
 Red. masses --      1.4504                 2.7147                 4.0508
 Frc consts  --      0.7944                 1.6053                 2.4864
 IR Inten    --      0.0397                33.4175                37.0714

                     43                     44                     45
                      A                      A                      A
 Frequencies --   1021.1485              1038.2453              1101.3969
 Red. masses --      1.4062                 2.7294                 3.1869
 Frc consts  --      0.8640                 1.7334                 2.2777
 IR Inten    --      5.4419                 0.8333                 0.5384

                     46                     47                     48
                      A                      A                      A
 Frequencies --   1114.9572              1130.0899              1161.1090
 Red. masses --      1.1814                 1.6079                 2.1315
 Frc consts  --      0.8653                 1.2099                 1.6931
 IR Inten    --     31.3618                 8.6860                 6.4065

                     49                     50                     51
                      A                      A                      A
 Frequencies --   1179.3075              1212.7535              1214.9750
 Red. masses --      2.2618                 3.1119                 2.0869
 Frc consts  --      1.8533                 2.6967                 1.8151
 IR Inten    --     30.9468                 5.3190               164.1541

                     52                     53                     54
                      A                      A                      A
 Frequencies --   1257.8171              1301.1981              1337.7873
 Red. masses --      1.7279                 3.3129                 2.6899
 Frc consts  --      1.6107                 3.3048                 2.8363
 IR Inten    --     41.0820               421.2379                73.7117

                     55                     56                     57
                      A                      A                      A
 Frequencies --   1367.1461              1369.0658              1397.6256
 Red. masses --      1.3853                 2.8318                 1.5631
 Frc consts  --      1.5256                 3.1273                 1.7990
 IR Inten    --      3.9106               128.1095                 6.3204

                     58                     59                     60
                      A                      A                      A
 Frequencies --   1420.7800              1429.6765              1432.3934
 Red. masses --      3.0034                 2.1521                 1.2533
 Frc consts  --      3.5720                 2.5917                 1.5151
 IR Inten    --    112.5539               259.3360                 7.6978

                     61                     62                     63
                      A                      A                      A
 Frequencies --   1447.2780              1450.6383              1465.5809
 Red. masses --      3.2160                 1.2900                 4.3006
 Frc consts  --      3.9689                 1.5995                 5.4425
 IR Inten    --    493.3893                13.3492               248.4322

                     64                     65                     66
                      A                      A                      A
 Frequencies --   1476.2177              1514.0890              1518.2243
 Red. masses --      2.1944                 1.0425                 1.0497
 Frc consts  --      2.8175                 1.4081                 1.4255
 IR Inten    --      8.5811                 0.3236                 1.4752

                     67                     68                     69
                      A                      A                      A
 Frequencies --   1528.7079              1537.8657              1555.1154
 Red. masses --      1.0771                 1.0609                 3.8827
 Frc consts  --      1.4830                 1.4782                 5.5324
 IR Inten    --      7.9097                 1.6350                39.2198

                     70                     71                     72
                      A                      A                      A
 Frequencies --   1582.4120              1628.1721              1756.4969
 Red. masses --      5.0623                 5.9930                 9.1323
 Frc consts  --      7.4685                 9.3604                16.6007
 IR Inten    --     68.1972               610.5204               534.6140

                     73                     74                     75
                      A                      A                      A
 Frequencies --   1796.0188              1843.6912              3059.7264
 Red. masses --      8.6587                 8.8912                 1.0346
 Frc consts  --     16.4561                17.8069                 5.7069
 IR Inten    --    262.9133               688.2451                14.5130

                     76                     77                     78
                      A                      A                      A
 Frequencies --   3063.6103              3078.3825              3130.3272
 Red. masses --      1.0356                 1.0856                 1.1033
 Frc consts  --      5.7270                 6.0612                 6.3696
 IR Inten    --     12.1974                12.2023                 0.0813

                     79                     80                     81
                      A                      A                      A
 Frequencies --   3137.7942              3139.1491              3141.1956
 Red. masses --      1.1023                 1.1038                 1.1034
 Frc consts  --      6.3941                 6.4089                 6.4149
 IR Inten    --     65.3757                15.3086                21.0933

                     82                     83                     84
                      A                      A                      A
 Frequencies --   3164.6506              3260.2213              3284.0414
 Red. masses --      1.0858                 1.0908                 1.1036
 Frc consts  --      6.4070                 6.8308                 7.0128
 IR Inten    --      0.9491                 0.9501                 2.3014

                     85                     86                     87
                      A                      A                      A
 Frequencies --   3341.4991              3617.4419              3618.7320
 Red. masses --      1.0970                 1.0766                 1.0783
 Frc consts  --      7.2164                 8.3007                 8.3198
 IR Inten    --     27.5523                88.6068                69.0257

 - Thermochemistry -
 -------------------
 Temperature   298.150 Kelvin.  Pressure   1.00000 Atm.
 Atom     1 has atomic number  6 and mass  12.00000

 Molecular mass:   247.09569 amu.
 Principal axes and moments of inertia in atomic units:
                           1         2         3
     Eigenvalues --  1978.356808760.65192**********
           X            0.99990   0.01414  -0.00004
           Y           -0.01414   0.99990   0.00005
           Z            0.00004  -0.00005   1.00000
 This molecule is an asymmetric top.
 Rotational symmetry number  1.
 Warning -- assumption of classical behavior for rotation
           may cause significant error
 Rotational temperatures (Kelvin)      0.04378     0.00989     0.00837
 Rotational constants (GHZ):           0.91224     0.20601     0.17447
 Zero-point vibrational energy     646425.1 (Joules/Mol)
                                  154.49930 (Kcal/Mol)
 Warning -- explicit consideration of  24 degrees of freedom as
           vibrations may cause significant error
 Vibrational temperatures:     23.03    54.27    65.95   119.86   139.32
          (Kelvin)            197.36   198.59   211.71   243.00   336.44
                              363.82   389.05   415.73   435.92   475.63
                              560.87   564.31   606.78   659.08   706.81
                              739.38   780.36   889.68   890.31   926.83
                              934.65   952.77   983.75   983.92  1018.79
                             1051.21  1068.39  1109.22  1129.18  1210.78
                             1234.56  1238.15  1288.58  1365.21  1387.22
                             1441.41  1468.54  1469.20  1493.80  1584.66
                             1604.17  1625.95  1670.58  1696.76  1744.88
                             1748.08  1809.72  1872.13  1924.78  1967.02
                             1969.78  2010.87  2044.19  2056.99  2060.89
                             2082.31  2087.15  2108.64  2123.95  2178.44
                             2184.39  2199.47  2212.65  2237.46  2276.74
                             2342.58  2527.21  2584.07  2652.66  4402.26
                             4407.85  4429.11  4503.84  4514.59  4516.54
                             4519.48  4553.23  4690.73  4725.00  4807.67
                             5204.69  5206.55

 Zero-point correction=                           0.246210 (Hartree/Particle)
 Thermal correction to Energy=                    0.262421
 Thermal correction to Enthalpy=                  0.263365
 Thermal correction to Gibbs Free Energy=         0.200586
 Sum of electronic and zero-point Energies=           -854.901933
 Sum of electronic and thermal Energies=              -854.885723
 Sum of electronic and thermal Enthalpies=            -854.884779
 Sum of electronic and thermal Free Energies=         -854.947558

                     E (Thermal)             CV                S
                      KCal/Mol        Cal/Mol-Kelvin    Cal/Mol-Kelvin
 Total                  164.671             61.340            132.130
 Electronic               0.000              0.000              0.000
 Translational            0.889              2.981             42.414
 Rotational               0.889              2.981             33.549
 Vibrational            162.894             55.378             56.166
 Vibration     1          0.593              1.986              7.077
 Vibration     2          0.594              1.982              5.375
 Vibration     3          0.595              1.979              4.989
 Vibration     4          0.600              1.961              3.811
 Vibration     5          0.603              1.951              3.517
 Vibration     6          0.614              1.916              2.843
 Vibration     7          0.614              1.915              2.831
 Vibration     8          0.617              1.906              2.709
 Vibration     9          0.625              1.881              2.448
 Vibration    10          0.654              1.789              1.849
 Vibration    11          0.664              1.758              1.711
 Vibration    12          0.674              1.728              1.594
 Vibration    13          0.686              1.694              1.480
 Vibration    14          0.694              1.668              1.400
 Vibration    15          0.713              1.614              1.257
 Vibration    16          0.758              1.492              1.001
 Vibration    17          0.760              1.487              0.992
 Vibration    18          0.784              1.423              0.886
 Vibration    19          0.816              1.343              0.772
 Vibration    20          0.847              1.269              0.680
 Vibration    21          0.869              1.219              0.624
 Vibration    22          0.897              1.156              0.560
 Vibration    23          0.978              0.993              0.419
 Vibration    24          0.979              0.992              0.418

                           ! Non-Optimized Parameters !
 Normal termination of Gaussian 16 at Fri Dec 11 21:27:12 2020.

 ----------------------------------------------------------------------
 # B3LYP/6-311++G(d,p) empiricaldispersion=gd3bj scf=xqc pop=npa geom=c
 heck
 ----------------------------------------------------------------------

 --------------------------------------
 CID_50854003_JID_8609_Energie_neutraal
 --------------------------------------
 Structure from the checkpoint file:  "JID_8609.chk"
 Charge =  0 Multiplicity = 1

 SCF Done:  E(RB3LYP) =  -855.392924916     A.U. after   15 cycles
 Normal termination of Gaussian 16 at Fri Dec 11 21:32:24 2020.

 ----------------------------------------------------------------------
 # B3LYP/6-311++G(d,p) empiricaldispersion=gd3bj scf=xqc pop=npa geom=c
 heck
 ----------------------------------------------------------------------

 ------------------------------------
 CID_50854003_JID_8609_Energie_kation
 ------------------------------------
 Structure from the checkpoint file:  "JID_8609.chk"
 Charge =  1 Multiplicity = 2

 SCF Done:  E(UB3LYP) =  -855.093869804     A.U. after   26 cycles
 Normal termination of Gaussian 16 at Fri Dec 11 21:45:05 2020.
 Gaussian 16:  ES64L-G16RevA.03 25-Dec-2016

 ----------------------------------------------------------------------
 # B3LYP/6-311++G(d,p) empiricaldispersion=gd3bj scf=xqc pop=npa geom=c
 heck
 ----------------------------------------------------------------------

 -----------------------------------
 CID_50854003_JID_8609_Energie_anion
 -----------------------------------
 Structure from the checkpoint file:  "JID_8609.chk"
 Charge = -1 Multiplicity = 2

                         Standard orientation:
 ---------------------------------------------------------------------
 Center     Atomic      Atomic             Coordinates (Angstroms)
 Number     Number       Type             X           Y           Z
 ---------------------------------------------------------------------
      1          6           0       -4.247126   -1.412284   -1.270821
      2          6           0       -4.243342   -0.556640   -0.001309
      3          6           0       -4.254398   -1.399514    1.276744
      4          7           0       -3.095574    0.364280   -0.002395
      5          6           0       -3.188510    1.752712   -0.002072
      6          6           0       -1.922327    2.263356   -0.001330
      7          6           0       -1.001541    1.150294   -0.001145
      8          6           0       -1.795646   -0.009528   -0.001797
      9          6           0        0.407481    1.336617   -0.000601
     10          6           0        1.505702    0.507902   -0.000405
     11          6           0        1.473900   -0.956657   -0.000404
     12          8           0        0.472080   -1.666290   -0.001080
     13          7           0        2.724125   -1.582605    0.000384
     14          6           0        3.980062   -0.995809    0.001079
     15          8           0        5.013367   -1.637335    0.001839
     16          7           0        3.941399    0.387920    0.000962
     17          6           0        2.812934    1.209493    0.000141
     18          8           0        2.956407    2.424141   -0.000009
     19          1           0       -3.372432   -2.070224   -1.301060
     20          1           0       -4.234019   -0.781824   -2.164947
     21          1           0       -5.144399   -2.039028   -1.297989
     22          1           0       -5.127478    0.089206   -0.007217
     23          1           0       -3.379215   -2.056182    1.318699
     24          1           0       -4.247051   -0.760030    2.164515
     25          1           0       -5.151336   -2.026706    1.304987
     26          1           0       -4.155765    2.233366   -0.002413
     27          1           0       -1.647573    3.309254   -0.001122
     28          1           0       -1.479616   -1.037503   -0.001675
     29          1           0        0.701080    2.385839   -0.000356
     30          1           0        2.711882   -2.595192    0.000374
     31          1           0        4.838309    0.858086    0.001067
 ---------------------------------------------------------------------

 SCF Done:  E(UB3LYP) =  -855.431322619     A.U. after   20 cycles

 The electronic state is 2-A.
 Alpha  occ. eigenvalues --  -18.97299 -18.94810 -18.94668 -14.23890 -14.22676
 Alpha  occ. eigenvalues --  -14.22453 -10.18468 -10.13346 -10.13340 -10.13103
 Alpha  occ. eigenvalues --  -10.08144 -10.08143 -10.07297 -10.04875 -10.03378
 Alpha  occ. eigenvalues --  -10.03289 -10.02421 -10.01279  -0.94675  -0.90326
 Alpha  occ. eigenvalues --   -0.90094  -0.87003  -0.81792  -0.77683  -0.72425
 Alpha  occ. eigenvalues --   -0.66254  -0.62876  -0.61127  -0.60434  -0.55382
 Alpha  occ. eigenvalues --   -0.52944  -0.50579  -0.49838  -0.45620  -0.43904
 Alpha  occ. eigenvalues --   -0.42427  -0.41496  -0.37684  -0.36738  -0.35211
 Alpha  occ. eigenvalues --   -0.34969  -0.34552  -0.33429  -0.32725  -0.31193
 Alpha  occ. eigenvalues --   -0.30862  -0.29926  -0.28673  -0.28635  -0.28326
 Alpha  occ. eigenvalues --   -0.27482  -0.27054  -0.26861  -0.25948  -0.25721
 Alpha  occ. eigenvalues --   -0.24238  -0.21440  -0.17385  -0.17036  -0.15618
 Alpha  occ. eigenvalues --   -0.15149  -0.14076  -0.11466  -0.11382  -0.08582
 Alpha  occ. eigenvalues --    0.01875
 Alpha virt. eigenvalues --    0.05944   0.08194   0.08484   0.09560   0.10391
 Alpha virt. eigenvalues --    0.10684   0.11284   0.11615   0.12199   0.12981
 Alpha virt. eigenvalues --    0.13358   0.13784   0.14087   0.14319   0.14806

  Beta  occ. eigenvalues --  -18.97186 -18.94697 -18.94458 -14.23800 -14.22709
  Beta  occ. eigenvalues --  -14.22488 -10.18386 -10.13208 -10.13203 -10.13109
  Beta  occ. eigenvalues --  -10.08136 -10.08135 -10.07356 -10.04528 -10.03450
  Beta  occ. eigenvalues --  -10.03244 -10.02483 -10.00547  -0.94501  -0.90086
  Beta  occ. eigenvalues --   -0.89793  -0.86770  -0.81661  -0.77650  -0.72344
  Beta  occ. eigenvalues --   -0.65649  -0.62666  -0.61108  -0.60119  -0.54749
  Beta  occ. eigenvalues --   -0.52820  -0.50321  -0.49513  -0.45496  -0.43655
  Beta  occ. eigenvalues --   -0.42313  -0.41336  -0.37443  -0.36666  -0.35021
  Beta  occ. eigenvalues --   -0.34874  -0.34107  -0.33293  -0.32558  -0.31161
  Beta  occ. eigenvalues --   -0.30742  -0.29719  -0.28450  -0.28437  -0.28171
  Beta  occ. eigenvalues --   -0.27298  -0.26432  -0.26046  -0.25883  -0.25298
  Beta  occ. eigenvalues --   -0.24044  -0.21145  -0.17279  -0.15689  -0.14839
  Beta  occ. eigenvalues --   -0.14486  -0.13900  -0.11237  -0.10554  -0.07668
  Beta virt. eigenvalues --    0.05927   0.08178   0.08330   0.08819   0.09548
  Beta virt. eigenvalues --    0.10389   0.10672   0.11276   0.11754   0.12187
  Beta virt. eigenvalues --    0.12973   0.13604   0.14318   0.14347   0.14836

 Mulliken charges and spin densities:
               1          2
     1  C   -0.489220  -0.000119
     2  C    0.016547   0.007330
     3  C   -0.490280  -0.000230
     4  N    0.452426   0.023965
     5  C   -0.159605  -0.041674
     6  C    0.205822   0.109141
     7  C    0.159043  -0.113238
     8  C   -0.986918   0.236934
     9  C   -0.342981   0.603227
    10  C    0.025781  -0.094326
    11  C   -0.239298   0.095733
    12  O   -0.390602   0.071018
    13  N   -0.482444  -0.023766
    14  C    0.297301   0.046065
    15  O   -0.409920   0.038733
    16  N   -0.446814  -0.021342
    17  C    0.308126   0.074304
    18  O   -0.394260   0.048141
    19  H    0.161036   0.000185
    20  H    0.148181   0.001367
    21  H    0.123761  -0.000004
    22  H    0.131465  -0.000340
    23  H    0.161553   0.000162
    24  H    0.147998   0.001395
    25  H    0.123364   0.000074
    26  H    0.109045   0.002416
    27  H    0.129711  -0.004836
    28  H    0.266545  -0.020440
    29  H    0.192869  -0.040362
    30  H    0.328170   0.000201
    31  H    0.343599   0.000288
 Sum of Mulliken charges =  -1.00000   1.00000

 Dipole moment (field-independent basis, Debye):
    X=             -8.9189    Y=             -2.0989    Z=              0.0001  Tot=              9.1625
 Quadrupole moment (field-independent basis, Debye-Ang):
   XX=           -151.2841   YY=           -130.8182   ZZ=           -113.2504
   XY=              4.7640   XZ=             -0.0073   YZ=              0.0091

 Summary of Natural Population Analysis:

                                       Natural Population
                Natural  -----------------------------------------------
    Atom  No    Charge         Core      Valence    Rydberg      Total
 -----------------------------------------------------------------------
      C    1   -0.28740      0.99965     2.28317    0.00458     3.28740
      C    2    0.00181      0.99962     1.98962    0.00895     2.99819
      C    3   -0.28736      0.99965     2.28314    0.00457     3.28736
      N    4   -0.19423      0.99964     2.68399    0.01061     3.69423
      C    5   -0.05451      0.99957     2.04335    0.01160     3.05451
      C    6   -0.09777      0.99954     2.08955    0.00868     3.09777
      C    7   -0.11253      0.99956     2.10356    0.00941     3.11253
      C    8    0.08701      0.99953     1.90274    0.01071     2.91299
      C    9    0.13689      0.99944     1.85473    0.00893     2.86311
      C   10   -0.16760      0.99938     2.16044    0.00779     3.16760
      C   11    0.35102      0.99963     1.62858    0.02077     2.64898
      O   12   -0.32227      0.99987     3.31394    0.00846     4.32227
      N   13   -0.33076      0.99965     2.82384    0.00727     3.83076
      C   14    0.41622      0.99973     1.56182    0.02223     2.58378
      O   15   -0.32776      0.99987     3.32138    0.00651     4.32776
      N   16   -0.33072      0.99964     2.82390    0.00718     3.83072
      C   17    0.35395      0.99965     1.62440    0.02200     2.64605
      O   18   -0.32556      0.99988     3.31875    0.00693     4.32556
      H   19    0.10508      0.00000     0.39402    0.00090     0.39492
      H   20    0.10340      0.00000     0.39583    0.00077     0.39660
      H   21    0.09281      0.00000     0.40633    0.00086     0.40719
      H   22    0.09060      0.00000     0.40796    0.00145     0.40940
      H   23    0.10506      0.00000     0.39403    0.00090     0.39494
      H   24    0.10336      0.00000     0.39587    0.00077     0.39664
      H   25    0.09278      0.00000     0.40636    0.00086     0.40722
      H   26    0.09096      0.00000     0.40805    0.00099     0.40904
      H   27    0.09897      0.00000     0.40014    0.00089     0.40103
      H   28    0.11694      0.00000     0.38193    0.00113     0.38306
      H   29    0.09501      0.00000     0.40289    0.00210     0.40499
      H   30    0.19820      0.00000     0.29894    0.00285     0.30180
      H   31    0.19839      0.00000     0.29861    0.00300     0.30161
 =======================================================================
   * Total *    0.00000     17.99350    46.80186    0.20464    65.00000

 Normal termination of Gaussian 16 at Fri Dec 11 21:54:49 2020.
