 Gaussian 16, Revision A.03,

 -----------------------------------------------------------
 # opt freq B3LYP/6-31G(d) empiricaldispersion=gd3bj scf=xqc
 -----------------------------------------------------------

 -------------------------------
 CID_131041354_JID_4084_neutraal
 -------------------------------
 Symbolic Z-matrix:
 Charge =  0 Multiplicity = 1

 SCF Done:  E(RB3LYP) =  -648.184028278     A.U. after   15 cycles
 SCF Done:  E(RB3LYP) =  -648.205892810     A.U. after   13 cycles
 SCF Done:  E(RB3LYP) =  -648.207198454     A.U. after   13 cycles
 SCF Done:  E(RB3LYP) =  -648.198300980     A.U. after   15 cycles
 SCF Done:  E(RB3LYP) =  -648.208166085     A.U. after   12 cycles
 SCF Done:  E(RB3LYP) =  -648.207381162     A.U. after   13 cycles
 SCF Done:  E(RB3LYP) =  -648.206720059     A.U. after   14 cycles
 SCF Done:  E(RB3LYP) =  -648.205594035     A.U. after   13 cycles
 SCF Done:  E(RB3LYP) =  -648.208204405     A.U. after   11 cycles
 SCF Done:  E(RB3LYP) =  -648.208912547     A.U. after   13 cycles
 SCF Done:  E(RB3LYP) =  -648.211181427     A.U. after   10 cycles
 SCF Done:  E(RB3LYP) =  -648.211181169     A.U. after   10 cycles
 SCF Done:  E(RB3LYP) =  -648.211181237     A.U. after    9 cycles
 SCF Done:  E(RB3LYP) =  -648.211181416     A.U. after   10 cycles
 SCF Done:  E(RB3LYP) =  -648.211181344     A.U. after   10 cycles
 Optimization completed.
    -- Stationary point found.
 Normal termination of Gaussian 16 at Thu Dec 10 09:34:10 2020.

 --------------------------------------------------------------------
 #N Geom=AllCheck Guess=TCheck SCRF=Check GenChk RB3LYP/6-31G(d) Freq
 --------------------------------------------------------------------

 Structure from the checkpoint file:  "JID_4084.chk"
 -------------------------------
 CID_131041354_JID_4084_neutraal
 -------------------------------
 Charge =  0 Multiplicity = 1

 SCF Done:  E(RB3LYP) =  -648.211181344     A.U. after    1 cycles

  Exact polarizability: 131.125  -2.827 103.379  -8.540   2.022  98.389
 Approx polarizability: 162.619  -7.475 162.471 -17.867   9.252 152.468

                      1                      2                      3
                      A                      A                      A
 Frequencies --     10.2658                22.9005                48.0225
 Red. masses --      5.0678                 4.3650                 1.9701
 Frc consts  --      0.0003                 0.0013                 0.0027
 IR Inten    --      0.3502                 0.9125                 0.2614

                      4                      5                      6
                      A                      A                      A
 Frequencies --     60.2066                76.7959                80.8060
 Red. masses --      4.9680                 7.3283                 5.7791
 Frc consts  --      0.0106                 0.0255                 0.0222
 IR Inten    --      0.8581                 2.1721                 2.3731

                      7                      8                      9
                      A                      A                      A
 Frequencies --    133.4424               148.6982               231.8354
 Red. masses --      4.4697                 4.6803                 5.7609
 Frc consts  --      0.0469                 0.0610                 0.1824
 IR Inten    --      2.9922                 1.1510                 2.5907

                     10                     11                     12
                      A                      A                      A
 Frequencies --    242.2159               302.1377               331.3872
 Red. masses --      3.3759                 6.1462                 5.9550
 Frc consts  --      0.1167                 0.3306                 0.3853
 IR Inten    --      0.4956                 2.2718                 3.7597

                     13                     14                     15
                      A                      A                      A
 Frequencies --    337.7443               391.2269               424.6707
 Red. masses --      2.4774                 5.3886                 4.4558
 Frc consts  --      0.1665                 0.4859                 0.4735
 IR Inten    --     13.6645                 5.2406                 3.9840

                     16                     17                     18
                      A                      A                      A
 Frequencies --    498.5094               537.9162               561.5293
 Red. masses --      4.9692                 5.7651                 1.2342
 Frc consts  --      0.7276                 0.9829                 0.2293
 IR Inten    --      3.2469                 0.9792               103.5326

                     19                     20                     21
                      A                      A                      A
 Frequencies --    595.7403               613.4220               659.2787
 Red. masses --      1.1968                 4.1792                 1.2509
 Frc consts  --      0.2503                 0.9265                 0.3204
 IR Inten    --     48.3667                12.8568                45.1643

                     22                     23                     24
                      A                      A                      A
 Frequencies --    674.3665               701.0597               726.7338
 Red. masses --      3.8767                 3.1005                 2.5789
 Frc consts  --      1.0387                 0.8978                 0.8025
 IR Inten    --      3.3786                 1.0526                 6.1350

                     25                     26                     27
                      A                      A                      A
 Frequencies --    756.5838               808.0971               824.3589
 Red. masses --     11.6562                 1.8134                 2.6625
 Frc consts  --      3.9312                 0.6977                 1.0660
 IR Inten    --     27.2979                 2.0467                 1.2101

                     28                     29                     30
                      A                      A                      A
 Frequencies --    859.3660               893.9970               898.6687
 Red. masses --      3.4048                 3.0128                 2.4944
 Frc consts  --      1.4815                 1.4187                 1.1869
 IR Inten    --      5.6448                 6.9827                 0.3438

                     31                     32                     33
                      A                      A                      A
 Frequencies --    962.8807               964.5403               998.8235
 Red. masses --      2.9983                 2.5412                 1.9020
 Frc consts  --      1.6378                 1.3929                 1.1180
 IR Inten    --      3.6057                18.3373                 0.2091

                     34                     35                     36
                      A                      A                      A
 Frequencies --   1038.3658              1047.1783              1054.0871
 Red. masses --      1.9973                 2.1202                 2.7415
 Frc consts  --      1.2688                 1.3699                 1.7947
 IR Inten    --     16.0225                 7.0300                 1.2618

                     37                     38                     39
                      A                      A                      A
 Frequencies --   1087.7713              1123.8224              1167.6259
 Red. masses --      5.7634                 3.0511                 1.8430
 Frc consts  --      4.0179                 2.2704                 1.4804
 IR Inten    --    250.6254                10.5321                26.2956

                     40                     41                     42
                      A                      A                      A
 Frequencies --   1210.9419              1220.3140              1238.7047
 Red. masses --      1.5745                 1.6609                 1.3316
 Frc consts  --      1.3603                 1.4573                 1.2039
 IR Inten    --      3.2447                20.0155                 3.8286

                     43                     44                     45
                      A                      A                      A
 Frequencies --   1293.0293              1306.6368              1312.0820
 Red. masses --      1.1372                 1.2359                 1.1736
 Frc consts  --      1.1202                 1.2432                 1.1904
 IR Inten    --      2.5306                37.3708                 5.2402

                     46                     47                     48
                      A                      A                      A
 Frequencies --   1317.6647              1351.3749              1354.4374
 Red. masses --      1.3062                 1.3553                 1.4773
 Frc consts  --      1.3362                 1.4583                 1.5967
 IR Inten    --      7.0379                 1.6107                23.8174

                     49                     50                     51
                      A                      A                      A
 Frequencies --   1363.5398              1388.2685              1389.4922
 Red. masses --      1.9742                 1.3068                 1.4058
 Frc consts  --      2.1626                 1.4839                 1.5992
 IR Inten    --    348.7816                 7.5520                 4.7750

                     52                     53                     54
                      A                      A                      A
 Frequencies --   1432.1429              1497.3926              1512.7249
 Red. masses --      1.8243                 1.1064                 1.4390
 Frc consts  --      2.2046                 1.4616                 1.9402
 IR Inten    --    162.3162                32.3486                54.0225

                     55                     56                     57
                      A                      A                      A
 Frequencies --   1517.8114              1524.4571              1545.0554
 Red. masses --      1.1310                 1.1048                 1.1060
 Frc consts  --      1.5351                 1.5127                 1.5556
 IR Inten    --      9.8163                 9.5272                 7.2134

                     58                     59                     60
                      A                      A                      A
 Frequencies --   1842.4298              2249.8359              2358.7456
 Red. masses --      9.2496                 5.9316                12.6326
 Frc consts  --     18.4992                17.6898                41.4099
 IR Inten    --    542.0380                 3.6140                 8.9935

                     61                     62                     63
                      A                      A                      A
 Frequencies --   3073.3774              3074.3672              3086.3724
 Red. masses --      1.0639                 1.0663                 1.0631
 Frc consts  --      5.9207                 5.9380                 5.9667
 IR Inten    --     17.7413                15.7451                28.8809

                     64                     65                     66
                      A                      A                      A
 Frequencies --   3087.1491              3098.4175              3113.2862
 Red. masses --      1.0569                 1.0840                 1.1014
 Frc consts  --      5.9347                 6.1316                 6.2897
 IR Inten    --     23.6254                 4.3398                10.2591

                     67                     68                     69
                      A                      A                      A
 Frequencies --   3126.8181              3135.8022              3135.8290
 Red. masses --      1.0985                 1.1029                 1.1005
 Frc consts  --      6.3276                 6.3897                 6.3757
 IR Inten    --      7.7542                 3.3112                 8.2546

                     70                     71                     72
                      A                      A                      A
 Frequencies --   3142.5801              3495.8711              3601.4522
 Red. masses --      1.0988                 1.1618                 1.0765
 Frc consts  --      6.3934                 8.3652                 8.2269
 IR Inten    --     33.6999                52.2319                45.2012

 - Thermochemistry -
 -------------------
 Temperature   298.150 Kelvin.  Pressure   1.00000 Atm.
 Atom     1 has atomic number  6 and mass  12.00000

 Molecular mass:   192.08988 amu.
 Principal axes and moments of inertia in atomic units:
                           1         2         3
     Eigenvalues --  1401.548195183.074145536.89205
           X            0.99987   0.01559  -0.00430
           Y           -0.01565   0.99974  -0.01649
           Z            0.00404   0.01656   0.99985
 This molecule is an asymmetric top.
 Rotational symmetry number  1.
 Warning -- assumption of classical behavior for rotation
           may cause significant error
 Rotational temperatures (Kelvin)      0.06180     0.01671     0.01564
 Rotational constants (GHZ):           1.28768     0.34820     0.32595
 Zero-point vibrational energy     552049.6 (Joules/Mol)
                                  131.94302 (Kcal/Mol)
 Warning -- explicit consideration of  20 degrees of freedom as
           vibrations may cause significant error
 Vibrational temperatures:     14.77    32.95    69.09    86.62   110.49
          (Kelvin)            116.26   191.99   213.94   333.56   348.49
                              434.71   476.79   485.94   562.89   611.01
                              717.24   773.94   807.92   857.14   882.58
                              948.55   970.26  1008.67  1045.61  1088.56
                             1162.67  1186.07  1236.44  1286.26  1292.98
                             1385.37  1387.76  1437.08  1493.98  1506.66
                             1516.60  1565.06  1616.93  1679.95  1742.28
                             1755.76  1782.22  1860.38  1879.96  1887.79
                             1895.83  1944.33  1948.73  1961.83  1997.41
                             1999.17  2060.53  2154.41  2176.47  2183.79
                             2193.35  2222.99  2650.85  3237.01  3393.71
                             4421.90  4423.33  4440.60  4441.72  4457.93
                             4479.32  4498.79  4511.72  4511.76  4521.47
                             5029.78  5181.69

 Zero-point correction=                           0.210265 (Hartree/Particle)
 Thermal correction to Energy=                    0.224468
 Thermal correction to Enthalpy=                  0.225412
 Thermal correction to Gibbs Free Energy=         0.165386
 Sum of electronic and zero-point Energies=           -648.000917
 Sum of electronic and thermal Energies=              -647.986714
 Sum of electronic and thermal Enthalpies=            -647.985770
 Sum of electronic and thermal Free Energies=         -648.045795

                     E (Thermal)             CV                S
                      KCal/Mol        Cal/Mol-Kelvin    Cal/Mol-Kelvin
 Total                  140.856             50.700            126.334
 Electronic               0.000              0.000              0.000
 Translational            0.889              2.981             41.664
 Rotational               0.889              2.981             32.064
 Vibrational            139.078             44.738             52.606
 Vibration     1          0.593              1.987              7.959
 Vibration     2          0.593              1.985              6.365
 Vibration     3          0.595              1.978              4.897
 Vibration     4          0.597              1.973              4.450
 Vibration     5          0.599              1.965              3.971
 Vibration     6          0.600              1.962              3.871
 Vibration     7          0.613              1.920              2.896
 Vibration     8          0.618              1.904              2.689
 Vibration     9          0.653              1.792              1.865
 Vibration    10          0.658              1.776              1.787
 Vibration    11          0.694              1.670              1.405
 Vibration    12          0.714              1.613              1.253
 Vibration    13          0.718              1.600              1.223
 Vibration    14          0.759              1.489              0.995
 Vibration    15          0.787              1.417              0.876
 Vibration    16          0.854              1.253              0.662
 Vibration    17          0.893              1.166              0.570
 Vibration    18          0.917              1.115              0.521
 Vibration    19          0.954              1.041              0.457
 Vibration    20          0.973              1.003              0.427

 Optimization completed.
    -- Stationary point found.
 Normal termination of Gaussian 16 at Thu Dec 10 09:40:34 2020.

 ----------------------------------------------------------------------
 # B3LYP/6-311++G(d,p) empiricaldispersion=gd3bj scf=xqc pop=npa geom=c
 heck
 ----------------------------------------------------------------------

 ---------------------------------------
 CID_131041354_JID_4084_Energie_neutraal
 ---------------------------------------
 Structure from the checkpoint file:  "JID_4084.chk"
 Charge =  0 Multiplicity = 1

 SCF Done:  E(RB3LYP) =  -648.402575497     A.U. after   15 cycles
 Normal termination of Gaussian 16 at Thu Dec 10 09:43:05 2020.

 ----------------------------------------------------------------------
 # B3LYP/6-311++G(d,p) empiricaldispersion=gd3bj scf=xqc pop=npa geom=c
 heck
 ----------------------------------------------------------------------

 -------------------------------------
 CID_131041354_JID_4084_Energie_kation
 -------------------------------------
 Structure from the checkpoint file:  "JID_4084.chk"
 Charge =  1 Multiplicity = 2

 SCF Done:  E(UB3LYP) =  -648.060839964     A.U. after   29 cycles
 Normal termination of Gaussian 16 at Thu Dec 10 09:50:09 2020.
 Gaussian 16:  ES64L-G16RevA.03 25-Dec-2016

 ----------------------------------------------------------------------
 # B3LYP/6-311++G(d,p) empiricaldispersion=gd3bj scf=xqc pop=npa geom=c
 heck
 ----------------------------------------------------------------------

 ------------------------------------
 CID_131041354_JID_4084_Energie_anion
 ------------------------------------
 Structure from the checkpoint file:  "JID_4084.chk"
 Charge = -1 Multiplicity = 2

                         Standard orientation:
 ---------------------------------------------------------------------
 Center     Atomic      Atomic             Coordinates (Angstroms)
 Number     Number       Type             X           Y           Z
 ---------------------------------------------------------------------
      1          6           0        4.489683   -0.369970   -1.669085
      2          6           0        3.903912   -0.480656   -0.620440
      3          6           0        3.204240   -0.627655    0.653050
      4          8           0        1.777356   -0.507650    0.492798
      5          6           0        1.295398    0.770084    0.596234
      6          8           0        1.961229    1.729944    0.929295
      7          7           0       -0.028995    0.817595    0.273301
      8          6           0       -0.881106   -0.320324    0.006110
      9          6           0       -1.670156   -0.863540    1.217176
     10          6           0       -2.906683   -1.585438    0.621085
     11          6           0       -2.906401   -1.259736   -0.897448
     12          6           0       -1.985102   -0.027904   -1.047326
     13          6           0       -2.681601    1.218696   -0.714146
     14          7           0       -3.203961    2.206995   -0.399245
     15          1           0        5.004925   -0.256232   -2.595771
     16          1           0        3.359173   -1.626471    1.070157
     17          1           0        3.546254    0.124164    1.369178
     18          1           0       -0.468018    1.708745    0.470818
     19          1           0       -0.248789   -1.106704   -0.408925
     20          1           0       -1.979142   -0.019146    1.842622
     21          1           0       -1.041083   -1.511512    1.833224
     22          1           0       -3.824655   -1.223539    1.092317
     23          1           0       -2.870116   -2.666426    0.782463
     24          1           0       -3.906543   -1.085479   -1.300960
     25          1           0       -2.458381   -2.079921   -1.468483
     26          1           0       -1.564714    0.070696   -2.053036
 ---------------------------------------------------------------------

 SCF Done:  E(UB3LYP) =  -648.395662180     A.U. after   33 cycles
 SCF Done:  E(UB3LYP) =  -648.395662180     a.u. after    1 cycles

 The electronic state is 2-A.
 Alpha  occ. eigenvalues --  -19.07941 -19.01002 -14.25348 -14.22411 -10.23413
 Alpha  occ. eigenvalues --  -10.16549 -10.13208 -10.12539 -10.12213 -10.09546
 Alpha  occ. eigenvalues --  -10.08735 -10.08648 -10.07821 -10.07782  -1.02334
 Alpha  occ. eigenvalues --   -0.93267  -0.85509  -0.82118  -0.75712  -0.70083
 Alpha  occ. eigenvalues --   -0.65247  -0.63931  -0.62375  -0.54001  -0.52789
 Alpha  occ. eigenvalues --   -0.49346  -0.46391  -0.45454  -0.43565  -0.41804
 Alpha  occ. eigenvalues --   -0.41401  -0.38355  -0.36958  -0.36503  -0.34983
 Alpha  occ. eigenvalues --   -0.34052  -0.32099  -0.29631  -0.29175  -0.28700
 Alpha  occ. eigenvalues --   -0.28086  -0.26494  -0.25809  -0.24799  -0.23916
 Alpha  occ. eigenvalues --   -0.23188  -0.22646  -0.20615  -0.19788  -0.19485
 Alpha  occ. eigenvalues --   -0.17181   0.04035
 Alpha virt. eigenvalues --    0.06361   0.06961   0.07877   0.08340   0.08754
 Alpha virt. eigenvalues --    0.09056   0.09706   0.10542   0.11008   0.11233
 Alpha virt. eigenvalues --    0.11415   0.11530   0.11718   0.12676   0.13012

  Beta  occ. eigenvalues --  -19.07931 -19.00997 -14.25345 -14.22382 -10.23413
  Beta  occ. eigenvalues --  -10.16525 -10.13191 -10.12519 -10.12208 -10.09545
  Beta  occ. eigenvalues --  -10.08711 -10.08604 -10.07804 -10.07759  -1.02322
  Beta  occ. eigenvalues --   -0.93255  -0.85491  -0.82074  -0.75664  -0.70044
  Beta  occ. eigenvalues --   -0.65184  -0.63889  -0.62320  -0.53925  -0.52754
  Beta  occ. eigenvalues --   -0.49276  -0.46354  -0.45414  -0.43532  -0.41700
  Beta  occ. eigenvalues --   -0.41369  -0.38322  -0.36912  -0.36481  -0.34952
  Beta  occ. eigenvalues --   -0.34007  -0.32052  -0.29571  -0.29126  -0.28672
  Beta  occ. eigenvalues --   -0.28026  -0.26441  -0.25756  -0.24768  -0.23828
  Beta  occ. eigenvalues --   -0.23135  -0.22614  -0.20567  -0.19761  -0.19461
  Beta  occ. eigenvalues --   -0.17166
  Beta virt. eigenvalues --    0.06422   0.07101   0.07742   0.08365   0.08826
  Beta virt. eigenvalues --    0.08951   0.09402   0.09844   0.10692   0.11356
  Beta virt. eigenvalues --    0.11445   0.11747   0.11904   0.12185   0.12925

 Mulliken charges and spin densities:
               1          2
     1  C   -4.345404   2.502214
     2  C    3.680141  -1.716154
     3  C    1.170696  -1.745438
     4  O   -0.002270   0.039471
     5  C    0.290830  -0.050739
     6  O   -0.311178  -0.003367
     7  N   -0.089830   0.009030
     8  C   -0.858957  -0.218044
     9  C    0.371454  -0.538730
    10  C    0.522513  -0.852239
    11  C    0.692853  -1.357945
    12  C   -0.750948   1.871676
    13  C    1.186208  -1.641406
    14  N   -0.392438   0.081786
    15  H   -0.447501   0.576915
    16  H   -0.420847   0.611952
    17  H    0.196706   0.011025
    18  H    0.286784   0.013642
    19  H    0.006624   0.283302
    20  H    0.116617   0.062241
    21  H   -0.245067   0.422666
    22  H    0.041649   0.095657
    23  H   -0.330916   0.506333
    24  H   -0.140045   0.327581
    25  H   -0.769578   0.967490
    26  H   -0.458094   0.741083
 Sum of Mulliken charges =  -1.00000   1.00000

 Dipole moment (field-independent basis, Debye):
    X=              1.2308    Y=              3.1587    Z=              2.6909  Tot=              4.3282
 Quadrupole moment (field-independent basis, Debye-Ang):
   XX=           -145.9654   YY=           -138.5233   ZZ=           -114.7700
   XY=              0.0169   XZ=             -5.0736   YZ=             -3.3331

 Summary of Natural Population Analysis:

                                       Natural Population
                Natural  -----------------------------------------------
    Atom  No    Charge         Core      Valence    Rydberg      Total
 -----------------------------------------------------------------------
      C    1   -0.10433      0.99927     2.10193    0.00313     3.10433
      C    2   -0.01332      0.99935     2.00633    0.00764     3.01332
      C    3   -0.05377      0.99948     2.04129    0.01300     3.05377
      O    4   -0.28377      0.99987     3.27467    0.00924     4.28377
      C    5    0.46605      0.99969     1.50945    0.02481     2.53395
      O    6   -0.32932      0.99987     3.32452    0.00493     4.32932
      N    7   -0.32436      0.99964     2.81507    0.00964     3.82436
      C    8   -0.00723      0.99956     1.99264    0.01503     3.00723
      C    9   -0.19645      0.99962     2.18817    0.00866     3.19645
      C   10   -0.19475      0.99964     2.18676    0.00835     3.19475
      C   11   -0.18151      0.99963     2.17259    0.00929     3.18151
      C   12   -0.16697      0.99950     2.15448    0.01299     3.16697
      C   13    0.16227      0.99964     1.81905    0.01903     2.83773
      N   14   -0.18656      0.99979     2.67580    0.01097     3.68656
      H   15    0.11104      0.00000     0.38774    0.00122     0.38896
      H   16    0.10937      0.00000     0.38864    0.00199     0.39063
      H   17    0.11339      0.00000     0.38531    0.00130     0.38661
      H   18    0.20158      0.00000     0.29664    0.00178     0.29842
      H   19    0.11949      0.00000     0.37642    0.00409     0.38051
      H   20    0.09797      0.00000     0.40078    0.00125     0.40203
      H   21    0.10983      0.00000     0.38870    0.00147     0.39017
      H   22    0.09797      0.00000     0.40094    0.00109     0.40203
      H   23    0.10702      0.00000     0.39105    0.00192     0.39298
      H   24    0.10457      0.00000     0.39401    0.00142     0.39543
      H   25    0.11119      0.00000     0.38276    0.00605     0.38881
      H   26    0.13060      0.00000     0.36656    0.00284     0.36940
 =======================================================================
   * Total *   -0.00000     13.99455    36.82231    0.18314    51.00000

 Normal termination of Gaussian 16 at Thu Dec 10 09:58:03 2020.
