 Gaussian 16, Revision A.03,

 -----------------------------------------------------------
 # opt freq B3LYP/6-31G(d) empiricaldispersion=gd3bj scf=xqc
 -----------------------------------------------------------

 ------------------------------
 CID_63731624_JID_2368_neutraal
 ------------------------------
 Symbolic Z-matrix:
 Charge =  0 Multiplicity = 1

 SCF Done:  E(RB3LYP) =  -532.329550336     A.U. after   14 cycles
 SCF Done:  E(RB3LYP) =  -532.334679067     A.U. after   12 cycles
 SCF Done:  E(RB3LYP) =  -532.335580194     A.U. after   12 cycles
 SCF Done:  E(RB3LYP) =  -532.336206424     A.U. after   12 cycles
 SCF Done:  E(RB3LYP) =  -532.336536275     A.U. after   12 cycles
 SCF Done:  E(RB3LYP) =  -532.336704357     A.U. after   12 cycles
 SCF Done:  E(RB3LYP) =  -532.336811377     A.U. after   12 cycles
 SCF Done:  E(RB3LYP) =  -532.336827702     A.U. after   10 cycles
 SCF Done:  E(RB3LYP) =  -532.336831016     A.U. after    9 cycles
 SCF Done:  E(RB3LYP) =  -532.336831715     A.U. after    8 cycles
 SCF Done:  E(RB3LYP) =  -532.336832215     A.U. after    8 cycles
 SCF Done:  E(RB3LYP) =  -532.336832336     A.U. after    7 cycles
 Optimization completed.
    -- Stationary point found.

 1\1\GINC-NODE313\FOpt\RB3LYP\6-31G(d)\C8H14N4\VSC10255\09-Dec-2020\0\\
 # opt freq B3LYP/6-31G(d) empiricaldispersion=gd3bj scf=xqc\\CID_63731
 624_JID_2368_neutraal\\0,1\C,1.053106362,0.017007493,-0.0524542355\C,0
 .7749066067,-1.419686443,0.3959083925\C,1.1877054219,-1.7338292256,1.8
 396026424\C,0.4338344571,-0.877557744,2.8837483365\N,-0.9982314536,-1.
 1156269002,2.9074151787\C,-1.6363435921,-1.9972899754,3.722117179\N,-2
 .9818201153,-2.0566609158,3.5778752113\C,-3.6147348787,-2.9061236077,4
 .3823431552\C,-2.9596735531,-3.6956013991,5.3300617404\C,-1.5760037086

 Normal termination of Gaussian 16 at Wed Dec  9 17:15:03 2020.

 --------------------------------------------------------------------
 #N Geom=AllCheck Guess=TCheck SCRF=Check GenChk RB3LYP/6-31G(d) Freq
 --------------------------------------------------------------------

 Structure from the checkpoint file:  "JID_2368.chk"
 ------------------------------
 CID_63731624_JID_2368_neutraal
 ------------------------------
 Charge =  0 Multiplicity = 1

 SCF Done:  E(RB3LYP) =  -532.336832336     A.U. after    1 cycles

  Exact polarizability: 153.081  -6.582 100.903  14.213   8.299  73.902
 Approx polarizability: 204.831 -11.154 168.449  26.102  18.717 113.273

                      1                      2                      3
                      A                      A                      A
 Frequencies --     36.8172                44.5379                58.0666
 Red. masses --      3.8230                 4.2730                 3.8078
 Frc consts  --      0.0031                 0.0050                 0.0076
 IR Inten    --      1.0274                 2.4213                 0.7103

                      4                      5                      6
                      A                      A                      A
 Frequencies --    112.4174               161.2080               191.1364
 Red. masses --      2.1099                 4.8103                 2.7504
 Frc consts  --      0.0157                 0.0737                 0.0592
 IR Inten    --      0.1126                 3.5284                 2.7835

                      7                      8                      9
                      A                      A                      A
 Frequencies --    233.2983               248.4578               270.1977
 Red. masses --      1.3683                 1.7151                 1.8369
 Frc consts  --      0.0439                 0.0624                 0.0790
 IR Inten    --      6.7810                25.1649                24.6635

                     10                     11                     12
                      A                      A                      A
 Frequencies --    306.7001               402.8438               415.7191
 Red. masses --      2.3203                 2.3980                 3.7551
 Frc consts  --      0.1286                 0.2293                 0.3824
 IR Inten    --      5.9901                 1.6612                 3.0576

                     13                     14                     15
                      A                      A                      A
 Frequencies --    454.7421               468.5393               499.2113
 Red. masses --      2.7098                 3.3521                 1.1274
 Frc consts  --      0.3302                 0.4336                 0.1655
 IR Inten    --      3.4940                 8.8288                85.4502

                     16                     17                     18
                      A                      A                      A
 Frequencies --    527.8567               619.9310               650.5712
 Red. masses --      2.8052                 4.0678                 4.5706
 Frc consts  --      0.4605                 0.9211                 1.1398
 IR Inten    --      1.0288                 9.7858                 5.0897

                     19                     20                     21
                      A                      A                      A
 Frequencies --    660.6845               771.9855               795.2111
 Red. masses --      3.2471                 2.2637                 1.2214
 Frc consts  --      0.8351                 0.7948                 0.4551
 IR Inten    --      4.3880                 6.8611                27.5558

                     22                     23                     24
                      A                      A                      A
 Frequencies --    810.7390               834.7251               857.8474
 Red. masses --      8.9646                 1.6345                 2.6059
 Frc consts  --      3.4717                 0.6710                 1.1299
 IR Inten    --     21.3463                 1.4496                 5.6398

                     25                     26                     27
                      A                      A                      A
 Frequencies --    922.6616               962.8546               984.6452
 Red. masses --      2.2937                 1.4087                 1.4223
 Frc consts  --      1.1504                 0.7695                 0.8125
 IR Inten    --     19.5266               148.9984                 2.1069

                     28                     29                     30
                      A                      A                      A
 Frequencies --    994.4668              1002.5550              1003.4578
 Red. masses --      2.2258                 4.6867                 1.4909
 Frc consts  --      1.2969                 2.7754                 0.8845
 IR Inten    --     32.3342                 5.7115                 0.4726

                     31                     32                     33
                      A                      A                      A
 Frequencies --   1056.7490              1076.7140              1086.6804
 Red. masses --      2.3535                 1.4366                 2.2319
 Frc consts  --      1.5485                 0.9813                 1.5528
 IR Inten    --      1.4928                 6.4917                13.0447

                     34                     35                     36
                      A                      A                      A
 Frequencies --   1105.9075              1118.6533              1137.2220
 Red. masses --      1.9822                 1.5131                 1.8777
 Frc consts  --      1.4283                 1.1156                 1.4308
 IR Inten    --      6.5027                 4.5837                 9.4228

                     37                     38                     39
                      A                      A                      A
 Frequencies --   1183.5802              1254.1668              1260.5034
 Red. masses --      2.2940                 2.0679                 1.5328
 Frc consts  --      1.8933                 1.9165                 1.4349
 IR Inten    --     18.9936                 1.6186                 1.9271

                     40                     41                     42
                      A                      A                      A
 Frequencies --   1294.7519              1302.0713              1332.7208
 Red. masses --      1.9595                 1.3896                 1.3592
 Frc consts  --      1.9354                 1.3881                 1.4224
 IR Inten    --      7.8633                 4.5742                25.4573

                     43                     44                     45
                      A                      A                      A
 Frequencies --   1370.5285              1379.7586              1389.3496
 Red. masses --      1.3991                 1.4236                 1.4773
 Frc consts  --      1.5484                 1.5967                 1.6801
 IR Inten    --     13.7733                10.4540                12.4205

                     46                     47                     48
                      A                      A                      A
 Frequencies --   1416.2058              1439.0946              1444.4113
 Red. masses --      1.3929                 1.5376                 1.2845
 Frc consts  --      1.6460                 1.8762                 1.5789
 IR Inten    --     84.6365                10.8606                36.5811

                     49                     50                     51
                      A                      A                      A
 Frequencies --   1458.6159              1492.8223              1511.4520
 Red. masses --      1.5856                 1.5828                 1.4216
 Frc consts  --      1.9876                 2.0783                 1.9134
 IR Inten    --     20.5775                48.9326                14.4192

                     52                     53                     54
                      A                      A                      A
 Frequencies --   1524.0905              1534.0332              1539.6119
 Red. masses --      1.0621                 1.0545                 1.0687
 Frc consts  --      1.4536                 1.4621                 1.4926
 IR Inten    --      2.2652                 7.4566                 4.1145

                     55                     56                     57
                      A                      A                      A
 Frequencies --   1589.5709              1620.0080              1658.5734
 Red. masses --      4.3626                 3.7344                 5.4261
 Frc consts  --      6.4946                 5.7744                 8.7944
 IR Inten    --    277.9601               165.5196               476.7916

                     58                     59                     60
                      A                      A                      A
 Frequencies --   1707.7937              3013.3811              3028.4966
 Red. masses --      1.0917                 1.0809                 1.0713
 Frc consts  --      1.8759                 5.7827                 5.7892
 IR Inten    --     64.1755                15.7530                50.2114

                     61                     62                     63
                      A                      A                      A
 Frequencies --   3044.9343              3066.4934              3085.0689
 Red. masses --      1.0375                 1.0656                 1.0939
 Frc consts  --      5.6674                 5.9037                 6.1340
 IR Inten    --     17.2348                83.1117                 3.2224

                     64                     65                     66
                      A                      A                      A
 Frequencies --   3110.5691              3116.6847              3128.8415
 Red. masses --      1.1013                 1.1008                 1.0997
 Frc consts  --      6.2779                 6.2999                 6.3431
 IR Inten    --     61.2147                42.3772                 8.8810

                     67                     68                     69
                      A                      A                      A
 Frequencies --   3166.9769              3168.5437              3235.3684
 Red. masses --      1.0901                 1.0912                 1.0953
 Frc consts  --      6.4416                 6.4545                 6.7550
 IR Inten    --     26.3275                36.2621                 9.6743

                     70                     71                     72
                      A                      A                      A
 Frequencies --   3457.2240              3536.6940              3642.0945
 Red. masses --      1.0505                 1.0901                 1.0765
 Frc consts  --      7.3980                 8.0334                 8.4131
 IR Inten    --      1.4757                 1.0333                43.1466

 - Thermochemistry -
 -------------------
 Temperature   298.150 Kelvin.  Pressure   1.00000 Atm.
 Atom     1 has atomic number  6 and mass  12.00000

 Molecular mass:   166.12185 amu.
 Principal axes and moments of inertia in atomic units:
                           1         2         3
     Eigenvalues --   808.810443688.622174044.81529
           X            0.99990  -0.01336   0.00362
           Y            0.01331   0.99982   0.01338
           Z           -0.00379  -0.01333   0.99990
 This molecule is an asymmetric top.
 Rotational symmetry number  1.
 Warning -- assumption of classical behavior for rotation
           may cause significant error
 Rotational temperatures (Kelvin)      0.10709     0.02348     0.02141
 Rotational constants (GHZ):           2.23135     0.48927     0.44619
 Zero-point vibrational energy     594490.8 (Joules/Mol)
                                  142.08671 (Kcal/Mol)
 Warning -- explicit consideration of  17 degrees of freedom as
           vibrations may cause significant error
 Vibrational temperatures:     52.97    64.08    83.54   161.74   231.94
          (Kelvin)            275.00   335.66   357.48   388.75   441.27
                              579.60   598.13   654.27   674.12   718.25
                              759.47   891.94   936.03   950.58  1110.71
                             1144.13  1166.47  1200.98  1234.25  1327.50
                             1385.33  1416.68  1430.82  1442.45  1443.75
                             1520.43  1549.15  1563.49  1591.15  1609.49
                             1636.21  1702.91  1804.47  1813.58  1862.86
                             1873.39  1917.49  1971.88  1985.16  1998.96
                             2037.60  2070.54  2078.19  2098.62  2147.84
                             2174.64  2192.83  2207.13  2215.16  2287.04
                             2330.83  2386.32  2457.13  4335.58  4357.33
                             4380.98  4412.00  4438.73  4475.42  4484.21
                             4501.71  4556.57  4558.83  4654.97  4974.17
                             5088.51  5240.16

 Zero-point correction=                           0.226430 (Hartree/Particle)
 Thermal correction to Energy=                    0.238448
 Thermal correction to Enthalpy=                  0.239392
 Thermal correction to Gibbs Free Energy=         0.187228
 Sum of electronic and zero-point Energies=           -532.110403
 Sum of electronic and thermal Energies=              -532.098384
 Sum of electronic and thermal Enthalpies=            -532.097440
 Sum of electronic and thermal Free Energies=         -532.149604

                     E (Thermal)             CV                S
                      KCal/Mol        Cal/Mol-Kelvin    Cal/Mol-Kelvin
 Total                  149.628             44.846            109.789
 Electronic               0.000              0.000              0.000
 Translational            0.889              2.981             41.231
 Rotational               0.889              2.981             30.868
 Vibrational            147.851             38.885             37.690
 Vibration     1          0.594              1.982              5.423
 Vibration     2          0.595              1.980              5.046
 Vibration     3          0.596              1.974              4.522
 Vibration     4          0.607              1.939              3.227
 Vibration     5          0.622              1.890              2.536
 Vibration     6          0.634              1.852              2.217
 Vibration     7          0.654              1.790              1.853
 Vibration     8          0.662              1.765              1.741
 Vibration     9          0.674              1.728              1.595
 Vibration    10          0.697              1.661              1.380
 Vibration    11          0.768              1.464              0.952
 Vibration    12          0.779              1.436              0.907
 Vibration    13          0.813              1.350              0.782
 Vibration    14          0.826              1.320              0.742
 Vibration    15          0.855              1.252              0.660
 Vibration    16          0.883              1.188              0.592
 Vibration    17          0.980              0.990              0.417

 Optimization completed.
    -- Stationary point found.

 1\1\GINC-NODE313\Freq\RB3LYP\6-31G(d)\C8H14N4\VSC10255\09-Dec-2020\0\\
 #N Geom=AllCheck Guess=TCheck SCRF=Check GenChk RB3LYP/6-31G(d) Freq\\
 CID_63731624_JID_2368_neutraal\\0,1\C,1.053106362,0.017007493,-0.05245
 42355\C,0.7749066067,-1.419686443,0.3959083925\C,1.1877054219,-1.73382
 92256,1.8396026424\C,0.4338344571,-0.877557744,2.8837483365\N,-0.99823
 14536,-1.1156269002,2.9074151787\C,-1.6363435921,-1.9972899754,3.72211
 7179\N,-2.9818201153,-2.0566609158,3.5778752113\C,-3.6147348787,-2.906
 1236077,4.3823431552\C,-2.9596735531,-3.6956013991,5.3300617404\C,-1.5

 Normal termination of Gaussian 16 at Wed Dec  9 17:20:50 2020.

 ----------------------------------------------------------------------
 # B3LYP/6-311++G(d,p) empiricaldispersion=gd3bj scf=xqc pop=npa geom=c
 heck
 ----------------------------------------------------------------------

 --------------------------------------
 CID_63731624_JID_2368_Energie_neutraal
 --------------------------------------
 Structure from the checkpoint file:  "JID_2368.chk"
 Charge =  0 Multiplicity = 1

 SCF Done:  E(RB3LYP) =  -532.491789296     A.U. after   15 cycles
 Normal termination of Gaussian 16 at Wed Dec  9 17:23:17 2020.

 ----------------------------------------------------------------------
 # B3LYP/6-311++G(d,p) empiricaldispersion=gd3bj scf=xqc pop=npa geom=c
 heck
 ----------------------------------------------------------------------

 ------------------------------------
 CID_63731624_JID_2368_Energie_kation
 ------------------------------------
 Structure from the checkpoint file:  "JID_2368.chk"
 Charge =  1 Multiplicity = 2

 SCF Done:  E(UB3LYP) =  -532.203982285     A.U. after   21 cycles
 Normal termination of Gaussian 16 at Wed Dec  9 17:27:35 2020.
 Gaussian 16:  ES64L-G16RevA.03 25-Dec-2016

 -----------------------------------
 CID_63731624_JID_2368_Energie_anion
 -----------------------------------
 Structure from the checkpoint file:  "JID_2368.chk"
 Charge = -1 Multiplicity = 2

                         Standard orientation:
 ---------------------------------------------------------------------
 Center     Atomic      Atomic             Coordinates (Angstroms)
 Number     Number       Type             X           Y           Z
 ---------------------------------------------------------------------
      1          6           0       -3.955787    0.959220   -0.023034
      2          6           0       -2.941426    0.139055    0.777538
      3          6           0       -2.092429   -0.826848   -0.058869
      4          6           0       -1.221480   -0.106939   -1.114776
      5          7           0       -0.220895    0.774910   -0.540998
      6          6           0        1.064366    0.430953   -0.261618
      7          7           0        1.829288    1.414309    0.269931
      8          6           0        3.092336    1.089544    0.531794
      9          6           0        3.625536   -0.176345    0.279259
     10          6           0        2.742495   -1.104647   -0.266022
     11          7           0        1.465212   -0.829188   -0.536673
     12          7           0       -1.321314   -1.676943    0.854187
     13          1           0       -3.471631    1.647593   -0.725787
     14          1           0       -4.582013    1.562471    0.642900
     15          1           0       -4.619588    0.308034   -0.604409
     16          1           0       -2.268510    0.814242    1.326928
     17          1           0       -3.459498   -0.458336    1.535952
     18          1           0       -2.775468   -1.482303   -0.620220
     19          1           0       -0.694563   -0.852571   -1.715294
     20          1           0       -1.846992    0.481923   -1.795432
     21          1           0       -0.463647    1.723526   -0.296227
     22          1           0        3.706759    1.878958    0.963209
     23          1           0        4.657786   -0.421688    0.498364
     24          1           0        3.066531   -2.119555   -0.492740
     25          1           0       -0.639821   -2.213454    0.317963
     26          1           0       -0.757036   -1.074412    1.454032
 ---------------------------------------------------------------------

 SCF Done:  E(UB3LYP) =  -532.480750809     A.U. after   33 cycles
 SCF Done:  E(UB3LYP) =  -532.480750809     a.u. after    1 cycles

 The electronic state is 2-A.
 Alpha  occ. eigenvalues --  -14.20910 -14.17663 -14.16589 -14.16281 -10.14000
 Alpha  occ. eigenvalues --  -10.08648 -10.08626 -10.07319 -10.07136 -10.05557
 Alpha  occ. eigenvalues --  -10.05025 -10.04327  -0.87002  -0.79919  -0.76853
 Alpha  occ. eigenvalues --   -0.74998  -0.66498  -0.64447  -0.59687  -0.54004
 Alpha  occ. eigenvalues --   -0.52543  -0.50292  -0.45979  -0.42582  -0.38987
 Alpha  occ. eigenvalues --   -0.37460  -0.35827  -0.35242  -0.34665  -0.32777
 Alpha  occ. eigenvalues --   -0.31686  -0.29829  -0.29130  -0.27741  -0.27498
 Alpha  occ. eigenvalues --   -0.26340  -0.24572  -0.22897  -0.22110  -0.19362
 Alpha  occ. eigenvalues --   -0.18629  -0.18041  -0.13938  -0.11707  -0.09578
 Alpha  occ. eigenvalues --    0.05208
 Alpha virt. eigenvalues --    0.06649   0.08056   0.08660   0.09293   0.09826
 Alpha virt. eigenvalues --    0.10013   0.11449   0.11817   0.11900   0.12358
 Alpha virt. eigenvalues --    0.12672   0.13057   0.14240   0.15184   0.15819

  Beta  occ. eigenvalues --  -14.20913 -14.17662 -14.16406 -14.16016 -10.14033
  Beta  occ. eigenvalues --  -10.08640 -10.08616 -10.07073 -10.06835 -10.05545
  Beta  occ. eigenvalues --  -10.04975 -10.04421  -0.86776  -0.79775  -0.76811
  Beta  occ. eigenvalues --   -0.74471  -0.66440  -0.64232  -0.59615  -0.53881
  Beta  occ. eigenvalues --   -0.52076  -0.50159  -0.45888  -0.42407  -0.38854
  Beta  occ. eigenvalues --   -0.37414  -0.35712  -0.35202  -0.34607  -0.32695
  Beta  occ. eigenvalues --   -0.31519  -0.29557  -0.28625  -0.27668  -0.27333
  Beta  occ. eigenvalues --   -0.26276  -0.24507  -0.22818  -0.22053  -0.18881
  Beta  occ. eigenvalues --   -0.17785  -0.16951  -0.13816  -0.11450  -0.09155
  Beta virt. eigenvalues --    0.07649   0.08041   0.09013   0.09671   0.10041
  Beta virt. eigenvalues --    0.10110   0.10196   0.11516   0.11992   0.12223
  Beta virt. eigenvalues --    0.12551   0.12845   0.13301   0.14370   0.15444

 Mulliken charges and spin densities:
               1          2
     1  C    1.907061  -2.524738
     2  C   -1.417538   1.125784
     3  C   -0.178016   0.243546
     4  C    0.500805  -0.966021
     5  N   -0.197908   0.028026
     6  C   -0.437665  -0.100434
     7  N   -0.182970   0.140611
     8  C   -0.128994   0.276352
     9  C   -0.156600  -0.157832
    10  C   -0.059485   0.293505
    11  N   -0.206996   0.078949
    12  N   -0.235958  -0.022231
    13  H   -0.382309   0.511616
    14  H   -0.597425   0.740370
    15  H   -0.335253   0.469833
    16  H    0.097502   0.038497
    17  H   -0.076792   0.237262
    18  H   -0.041399   0.221370
    19  H    0.165883   0.054849
    20  H   -0.036780   0.184008
    21  H    0.235298   0.083684
    22  H    0.104952   0.025493
    23  H    0.100239   0.012337
    24  H    0.108567   0.003092
    25  H    0.247626  -0.023330
    26  H    0.204156   0.025401
 Sum of Mulliken charges =  -1.00000   1.00000

 Dipole moment (field-independent basis, Debye):
    X=              5.4027    Y=             -2.3461    Z=             -0.1081  Tot=              5.8911
 Quadrupole moment (field-independent basis, Debye-Ang):
   XX=           -147.9991   YY=           -101.9501   ZZ=            -94.2672
   XY=              6.0099   XZ=              2.0356   YZ=              2.1393

 Summary of Natural Population Analysis:

                                       Natural Population
                Natural  -----------------------------------------------
    Atom  No    Charge         Core      Valence    Rydberg      Total
 -----------------------------------------------------------------------
      C    1   -0.28638      0.99967     2.28132    0.00540     3.28638
      C    2   -0.19671      0.99962     2.18683    0.01026     3.19671
      C    3   -0.01537      0.99960     2.00361    0.01216     3.01537
      C    4   -0.09773      0.99959     2.08552    0.01261     3.09773
      N    5   -0.31675      0.99965     2.80588    0.01121     3.81675
      C    6    0.29265      0.99960     1.68744    0.02031     2.70735
      N    7   -0.24765      0.99968     2.73691    0.01106     3.74765
      C    8    0.08616      0.99961     1.89914    0.01508     2.91384
      C    9   -0.20043      0.99956     2.19092    0.00996     3.20043
      C   10    0.09609      0.99961     1.88919    0.01511     2.90391
      N   11   -0.26911      0.99968     2.76003    0.00940     3.76911
      N   12   -0.42380      0.99977     2.91529    0.00875     3.92380
      H   13    0.09511      0.00000     0.40317    0.00172     0.40489
      H   14    0.10155      0.00000     0.39671    0.00174     0.39845
      H   15    0.09660      0.00000     0.40159    0.00181     0.40340
      H   16    0.09330      0.00000     0.40527    0.00143     0.40670
      H   17    0.10107      0.00000     0.39763    0.00130     0.39893
      H   18    0.08468      0.00000     0.41346    0.00185     0.41532
      H   19    0.10677      0.00000     0.39154    0.00169     0.39323
      H   20    0.09610      0.00000     0.40287    0.00103     0.40390
      H   21    0.19456      0.00000     0.30206    0.00339     0.30544
      H   22    0.07953      0.00000     0.41945    0.00102     0.42047
      H   23    0.09802      0.00000     0.40112    0.00086     0.40198
      H   24    0.07797      0.00000     0.42085    0.00118     0.42203
      H   25    0.18063      0.00000     0.31740    0.00197     0.31937
      H   26    0.17313      0.00000     0.32479    0.00208     0.32687
 =======================================================================
   * Total *   -0.00000     11.99564    32.84000    0.16436    45.00000

 Normal termination of Gaussian 16 at Wed Dec  9 17:34:06 2020.
