 Gaussian 16, Revision A.03,

 -----------------------------------------------------------
 # opt freq B3LYP/6-31G(d) empiricaldispersion=gd3bj scf=xqc
 -----------------------------------------------------------

 -----------------------------
 CID_91223874_JID_822_neutraal
 -----------------------------
 Symbolic Z-matrix:
 Charge =  0 Multiplicity = 1

 SCF Done:  E(RB3LYP) =  -497.052818326     A.U. after   14 cycles
 SCF Done:  E(RB3LYP) =  -497.058470708     A.U. after   12 cycles
 SCF Done:  E(RB3LYP) =  -497.057162285     A.U. after   12 cycles
 SCF Done:  E(RB3LYP) =  -497.059911362     A.U. after   12 cycles
 SCF Done:  E(RB3LYP) =  -497.060232321     A.U. after   11 cycles
 SCF Done:  E(RB3LYP) =  -497.060448256     A.U. after   11 cycles
 SCF Done:  E(RB3LYP) =  -497.060553001     A.U. after   10 cycles
 SCF Done:  E(RB3LYP) =  -497.060589617     A.U. after   10 cycles
 SCF Done:  E(RB3LYP) =  -497.060600973     A.U. after   10 cycles
 SCF Done:  E(RB3LYP) =  -497.060604638     A.U. after    9 cycles
 SCF Done:  E(RB3LYP) =  -497.060607426     A.U. after    8 cycles
 SCF Done:  E(RB3LYP) =  -497.060617118     A.U. after    9 cycles
 SCF Done:  E(RB3LYP) =  -497.060619916     A.U. after    8 cycles
 SCF Done:  E(RB3LYP) =  -497.060623085     A.U. after    9 cycles
 SCF Done:  E(RB3LYP) =  -497.060623147     A.U. after    7 cycles
 Optimization completed.
    -- Stationary point found.
 Normal termination of Gaussian 16 at Tue Dec  8 12:50:30 2020.

 --------------------------------------------------------------------
 #N Geom=AllCheck Guess=TCheck SCRF=Check GenChk RB3LYP/6-31G(d) Freq
 --------------------------------------------------------------------

 Structure from the checkpoint file:  "JID_822.chk"
 -----------------------------
 CID_91223874_JID_822_neutraal
 -----------------------------
 Charge =  0 Multiplicity = 1

 SCF Done:  E(RB3LYP) =  -497.060623147     A.U. after    1 cycles

  Exact polarizability:  93.759  -3.317  77.800   1.561   2.415  73.864
 Approx polarizability: 113.690  -1.780 113.314   3.910  11.232 114.493

                      1                      2                      3
                      A                      A                      A
 Frequencies --     59.0845                71.1737                95.0246
 Red. masses --      2.4992                 2.1316                 1.4405
 Frc consts  --      0.0051                 0.0064                 0.0077
 IR Inten    --      2.9409                 1.4318                 0.6979

                      4                      5                      6
                      A                      A                      A
 Frequencies --    130.9019               235.4104               236.9853
 Red. masses --      6.7830                 1.6743                 2.5438
 Frc consts  --      0.0685                 0.0547                 0.0842
 IR Inten    --      3.0922                 0.6791                 8.6821

                      7                      8                      9
                      A                      A                      A
 Frequencies --    256.6828               271.7317               293.4681
 Red. masses --      2.0591                 1.8906                 1.4820
 Frc consts  --      0.0799                 0.0822                 0.0752
 IR Inten    --      8.0439                 3.6480                17.2322

                     10                     11                     12
                      A                      A                      A
 Frequencies --    300.3271               317.3652               322.9421
 Red. masses --      1.3107                 1.7252                 1.2840
 Frc consts  --      0.0697                 0.1024                 0.0789
 IR Inten    --     20.7175                 6.8244                58.5694

                     13                     14                     15
                      A                      A                      A
 Frequencies --    368.6146               398.3354               427.6746
 Red. masses --      2.3249                 2.5871                 2.6500
 Frc consts  --      0.1861                 0.2419                 0.2856
 IR Inten    --     10.5859                 8.1861                13.4166

                     16                     17                     18
                      A                      A                      A
 Frequencies --    494.9334               516.2389               566.0917
 Red. masses --      2.6142                 3.5197                 3.3492
 Frc consts  --      0.3773                 0.5527                 0.6324
 IR Inten    --     17.5272                 6.7413                 9.8690

                     19                     20                     21
                      A                      A                      A
 Frequencies --    603.8838               711.0823               745.1776
 Red. masses --      2.9272                 2.6953                 3.2126
 Frc consts  --      0.6289                 0.8030                 1.0510
 IR Inten    --      5.2717                48.5014                 3.6631

                     22                     23                     24
                      A                      A                      A
 Frequencies --    791.9301               847.4926               906.9113
 Red. masses --      2.5182                 2.6782                 2.1515
 Frc consts  --      0.9305                 1.1333                 1.0426
 IR Inten    --     98.8159                58.0571               112.9682

                     25                     26                     27
                      A                      A                      A
 Frequencies --    936.1302               949.1160               980.8691
 Red. masses --      1.7168                 1.4796                 1.8804
 Frc consts  --      0.8864                 0.7853                 1.0659
 IR Inten    --     42.5156                 1.1109                13.6825

                     28                     29                     30
                      A                      A                      A
 Frequencies --   1011.2687              1033.8289              1049.8169
 Red. masses --      2.1861                 1.3230                 1.9193
 Frc consts  --      1.3172                 0.8331                 1.2463
 IR Inten    --     55.9290                11.5775               124.7608

                     31                     32                     33
                      A                      A                      A
 Frequencies --   1074.4331              1106.8632              1146.2402
 Red. masses --      1.7546                 1.4969                 2.3512
 Frc consts  --      1.1934                 1.0805                 1.8201
 IR Inten    --     12.1962                 6.0790                72.8939

                     34                     35                     36
                      A                      A                      A
 Frequencies --   1215.3193              1268.6045              1271.9254
 Red. masses --      2.3501                 3.0062                 2.5993
 Frc consts  --      2.0451                 2.8505                 2.4775
 IR Inten    --     23.9418                17.7911               276.9374

                     37                     38                     39
                      A                      A                      A
 Frequencies --   1294.7203              1358.4964              1400.7679
 Red. masses --      2.2149                 1.7911                 1.3038
 Frc consts  --      2.1875                 1.9475                 1.5073
 IR Inten    --     81.8359                 5.9849                11.3676

                     40                     41                     42
                      A                      A                      A
 Frequencies --   1421.7306              1426.4965              1449.2197
 Red. masses --      1.3230                 1.2522                 1.2584
 Frc consts  --      1.5756                 1.5013                 1.5572
 IR Inten    --     50.9460                 6.6436                 9.4743

                     43                     44                     45
                      A                      A                      A
 Frequencies --   1452.7024              1500.0569              1505.7614
 Red. masses --      1.3045                 1.0530                 1.0497
 Frc consts  --      1.6220                 1.3960                 1.4022
 IR Inten    --     15.0141                14.8767                 7.3156

                     46                     47                     48
                      A                      A                      A
 Frequencies --   1507.5440              1520.1872              1533.1384
 Red. masses --      1.0492                 1.0520                 1.0698
 Frc consts  --      1.4049                 1.4324                 1.4816
 IR Inten    --      4.1776                 0.7223                13.5654

                     49                     50                     51
                      A                      A                      A
 Frequencies --   1537.1614              1664.9787              1686.3110
 Red. masses --      1.0538                 1.1362                 1.0956
 Frc consts  --      1.4670                 1.8558                 1.8356
 IR Inten    --      5.8365                81.8288                36.4890

                     52                     53                     54
                      A                      A                      A
 Frequencies --   1822.0609              3048.5411              3054.6292
 Red. masses --      8.7851                 1.0384                 1.0375
 Frc consts  --     17.1839                 5.6857                 5.7038
 IR Inten    --    182.3714                18.7005                25.1755

                     55                     56                     57
                      A                      A                      A
 Frequencies --   3071.4486              3108.8041              3112.4965
 Red. masses --      1.0371                 1.0893                 1.0977
 Frc consts  --      5.7644                 6.2029                 6.2656
 IR Inten    --      2.8200                 8.2537                17.1941

                     58                     59                     60
                      A                      A                      A
 Frequencies --   3119.0513              3131.7897              3135.2415
 Red. masses --      1.1004                 1.1028                 1.0999
 Frc consts  --      6.3074                 6.3729                 6.3703
 IR Inten    --     48.5532                31.0336                 6.8827

                     61                     62                     63
                      A                      A                      A
 Frequencies --   3148.6246              3181.5568              3461.3986
 Red. masses --      1.0999                 1.1038                 1.0496
 Frc consts  --      6.4246                 6.5829                 7.4093
 IR Inten    --     25.9188                 8.9235                 2.9361

                     64                     65                     66
                      A                      A                      A
 Frequencies --   3524.8038              3549.3228              3624.0126
 Red. masses --      1.0479                 1.0917                 1.0956
 Frc consts  --      7.6707                 8.1031                 8.4779
 IR Inten    --      3.0445                 0.1461                 5.4425

 - Thermochemistry -
 -------------------
 Temperature   298.150 Kelvin.  Pressure   1.00000 Atm.
 Atom     1 has atomic number  6 and mass  12.00000

 Molecular mass:   146.10553 amu.
 Principal axes and moments of inertia in atomic units:
                           1         2         3
     Eigenvalues --   826.065511985.121082132.89456
           X            0.99958  -0.02528  -0.01402
           Y            0.02448   0.99821  -0.05459
           Z            0.01538   0.05423   0.99841
 This molecule is an asymmetric top.
 Rotational symmetry number  1.
 Warning -- assumption of classical behavior for rotation
           may cause significant error
 Rotational temperatures (Kelvin)      0.10485     0.04363     0.04061
 Rotational constants (GHZ):           2.18474     0.90913     0.84615
 Zero-point vibrational energy     552477.0 (Joules/Mol)
                                  132.04516 (Kcal/Mol)
 Warning -- explicit consideration of  19 degrees of freedom as
           vibrations may cause significant error
 Vibrational temperatures:     85.01   102.40   136.72   188.34   338.70
          (Kelvin)            340.97   369.31   390.96   422.24   432.10
                              456.62   464.64   530.35   573.12   615.33
                              712.10   742.75   814.48   868.85  1023.09
                             1072.14  1139.41  1219.35  1304.84  1346.88
                             1365.57  1411.25  1454.99  1487.45  1510.45
                             1545.87  1592.53  1649.18  1748.57  1825.24
                             1830.02  1862.81  1954.57  2015.39  2045.55
                             2052.41  2085.10  2090.11  2158.25  2166.45
                             2169.02  2187.21  2205.84  2211.63  2395.53
                             2426.23  2621.54  4386.17  4394.93  4419.13
                             4472.88  4478.19  4487.62  4505.95  4510.91
                             4530.17  4577.55  4980.18  5071.41  5106.68
                             5214.15

 Zero-point correction=                           0.210427 (Hartree/Particle)
 Thermal correction to Energy=                    0.222420
 Thermal correction to Enthalpy=                  0.223364
 Thermal correction to Gibbs Free Energy=         0.173327
 Sum of electronic and zero-point Energies=           -496.850196
 Sum of electronic and thermal Energies=              -496.838203
 Sum of electronic and thermal Enthalpies=            -496.837259
 Sum of electronic and thermal Free Energies=         -496.887296

                     E (Thermal)             CV                S
                      KCal/Mol        Cal/Mol-Kelvin    Cal/Mol-Kelvin
 Total                  139.571             44.702            105.312
 Electronic               0.000              0.000              0.000
 Translational            0.889              2.981             40.848
 Rotational               0.889              2.981             29.638
 Vibrational            137.793             38.741             34.826
 Vibration     1          0.596              1.974              4.488
 Vibration     2          0.598              1.968              4.121
 Vibration     3          0.603              1.953              3.554
 Vibration     4          0.612              1.922              2.933
 Vibration     5          0.655              1.787              1.837
 Vibration     6          0.656              1.784              1.825
 Vibration     7          0.666              1.751              1.684
 Vibration     8          0.675              1.725              1.585
 Vibration     9          0.688              1.686              1.454
 Vibration    10          0.693              1.673              1.415
 Vibration    11          0.704              1.640              1.324
 Vibration    12          0.708              1.630              1.295
 Vibration    13          0.741              1.537              1.086
 Vibration    14          0.765              1.474              0.969
 Vibration    15          0.789              1.410              0.866
 Vibration    16          0.851              1.261              0.671
 Vibration    17          0.871              1.214              0.619
 Vibration    18          0.922              1.105              0.512
 Vibration    19          0.962              1.024              0.443

 Optimization completed.
    -- Stationary point found.
 Normal termination of Gaussian 16 at Tue Dec  8 13:06:29 2020.

 ----------------------------------------------------------------------
 # B3LYP/6-311++G(d,p) empiricaldispersion=gd3bj scf=xqc pop=npa geom=c
 heck
 ----------------------------------------------------------------------

 -------------------------------------
 CID_91223874_JID_822_Energie_neutraal
 -------------------------------------
 Structure from the checkpoint file:  "JID_822.chk"
 Charge =  0 Multiplicity = 1

 SCF Done:  E(RB3LYP) =  -497.224430953     A.U. after   13 cycles
 Normal termination of Gaussian 16 at Tue Dec  8 13:12:10 2020.

 ----------------------------------------------------------------------
 # B3LYP/6-311++G(d,p) empiricaldispersion=gd3bj scf=xqc pop=npa geom=c
 heck
 ----------------------------------------------------------------------

 -----------------------------------
 CID_91223874_JID_822_Energie_kation
 -----------------------------------
 Structure from the checkpoint file:  "JID_822.chk"
 Charge =  1 Multiplicity = 2

 SCF Done:  E(UB3LYP) =  -496.898580380     A.U. after   26 cycles
 Normal termination of Gaussian 16 at Tue Dec  8 13:26:51 2020.
 Gaussian 16:  ES64L-G16RevA.03 25-Dec-2016

 ----------------------------------------------------------------------
 # B3LYP/6-311++G(d,p) empiricaldispersion=gd3bj scf=xqc pop=npa geom=c
 heck
 ----------------------------------------------------------------------

 ----------------------------------
 CID_91223874_JID_822_Energie_anion
 ----------------------------------
 Structure from the checkpoint file:  "JID_822.chk"
 Charge = -1 Multiplicity = 2

                         Standard orientation:
 ---------------------------------------------------------------------
 Center     Atomic      Atomic             Coordinates (Angstroms)
 Number     Number       Type             X           Y           Z
 ---------------------------------------------------------------------
      1          6           0        3.150781   -0.702743   -0.247596
      2          6           0        1.868202    0.007856    0.119155
      3          8           0        1.728820    0.710977    1.097945
      4          8           0        0.914276   -0.255582   -0.797762
      5          6           0       -0.358973    0.466054   -0.781707
      6          6           0       -1.399576   -0.318070    0.066554
      7          6           0       -1.068416   -0.372893    1.567214
      8          6           0       -2.763699    0.360031   -0.131847
      9          7           0       -1.483392   -1.654378   -0.551019
     10          7           0       -0.152273    1.863693   -0.522738
     11          1           0        3.859225   -0.624019    0.577655
     12          1           0        3.578792   -0.239325   -1.143144
     13          1           0        2.956447   -1.753036   -0.484287
     14          1           0       -0.689312    0.363782   -1.818057
     15          1           0       -0.944105    0.622698    2.005303
     16          1           0       -1.888453   -0.872382    2.097785
     17          1           0       -0.149314   -0.931997    1.756749
     18          1           0       -3.007795    0.439938   -1.196441
     19          1           0       -3.549963   -0.234622    0.347020
     20          1           0       -2.782926    1.357808    0.317872
     21          1           0       -0.574421   -2.108444   -0.474584
     22          1           0       -2.138090   -2.227423   -0.019324
     23          1           0       -0.938296    2.406414   -0.864851
     24          1           0        0.003191    2.050841    0.462506
 ---------------------------------------------------------------------

 SCF Done:  E(UB3LYP) =  -497.210345025     A.U. after   29 cycles

 The electronic state is 2-A.
 Alpha  occ. eigenvalues --  -19.05870 -19.00722 -14.19403 -14.18193 -10.20279
 Alpha  occ. eigenvalues --  -10.15195 -10.10361 -10.07659 -10.05161 -10.04715
 Alpha  occ. eigenvalues --   -1.00064  -0.91894  -0.80024  -0.77487  -0.65759
 Alpha  occ. eigenvalues --   -0.64552  -0.58551  -0.57957  -0.48142  -0.43968
 Alpha  occ. eigenvalues --   -0.41810  -0.39990  -0.38580  -0.36630  -0.35519
 Alpha  occ. eigenvalues --   -0.34991  -0.33384  -0.31576  -0.30869  -0.28637
 Alpha  occ. eigenvalues --   -0.28143  -0.27736  -0.26986  -0.26349  -0.24649
 Alpha  occ. eigenvalues --   -0.23564  -0.20404  -0.17426  -0.15181  -0.13715
 Alpha  occ. eigenvalues --    0.04624
 Alpha virt. eigenvalues --    0.06827   0.07720   0.09094   0.09417   0.09929
 Alpha virt. eigenvalues --    0.10566   0.10930   0.11255   0.12019   0.12680
 Alpha virt. eigenvalues --    0.13052   0.13313   0.15084   0.15955   0.16421

  Beta  occ. eigenvalues --  -19.05865 -19.00715 -14.19372 -14.18158 -10.20279
  Beta  occ. eigenvalues --  -10.15183 -10.10359 -10.07615 -10.05114 -10.04679
  Beta  occ. eigenvalues --   -1.00052  -0.91881  -0.79983  -0.77430  -0.65707
  Beta  occ. eigenvalues --   -0.64490  -0.58495  -0.57886  -0.48081  -0.43919
  Beta  occ. eigenvalues --   -0.41751  -0.39942  -0.38549  -0.36598  -0.35481
  Beta  occ. eigenvalues --   -0.34948  -0.33335  -0.31536  -0.30828  -0.28596
  Beta  occ. eigenvalues --   -0.28101  -0.27693  -0.26956  -0.26302  -0.24620
  Beta  occ. eigenvalues --   -0.23524  -0.20389  -0.17411  -0.15149  -0.13679
  Beta virt. eigenvalues --    0.07022   0.07862   0.08817   0.09600   0.09883
  Beta virt. eigenvalues --    0.10479   0.11140   0.11312   0.11778   0.12542
  Beta virt. eigenvalues --    0.13107   0.13572   0.13625   0.15554   0.16201

 Mulliken charges and spin densities:
               1          2
     1  C    1.082584  -1.621116
     2  C   -0.812496   1.002093
     3  O   -0.274580   0.027586
     4  O   -0.051562   0.090769
     5  C    2.063074  -2.973042
     6  C   -2.576837   3.005495
     7  C    1.054316  -1.677091
     8  C    1.261104  -1.817148
     9  N   -0.279864   0.058466
    10  N   -0.510241   0.219234
    11  H   -0.066973   0.226651
    12  H   -0.199509   0.372773
    13  H   -0.392329   0.560745
    14  H    0.189632   0.050515
    15  H    0.016609   0.153585
    16  H   -0.508481   0.662686
    17  H    0.018087   0.145726
    18  H   -0.175535   0.342718
    19  H   -0.436658   0.587481
    20  H   -0.256809   0.411154
    21  H    0.064254   0.179888
    22  H   -0.145292   0.379260
    23  H   -0.132774   0.404883
    24  H    0.070279   0.206690
 Sum of Mulliken charges =  -1.00000   1.00000

 Dipole moment (field-independent basis, Debye):
    X=              2.4218    Y=              1.0698    Z=             -0.5243  Tot=              2.6990
 Quadrupole moment (field-independent basis, Debye-Ang):
   XX=           -119.0382   YY=           -102.5986   ZZ=            -94.5294
   XY=              0.2583   XZ=              2.4316   YZ=              0.5455

 Summary of Natural Population Analysis:

                                       Natural Population
                Natural  -----------------------------------------------
    Atom  No    Charge         Core      Valence    Rydberg      Total
 -----------------------------------------------------------------------
      C    1   -0.33045      0.99962     2.32553    0.00530     3.33045
      C    2    0.41164      0.99971     1.56280    0.02585     2.58836
      O    3   -0.31107      0.99987     3.30520    0.00600     4.31107
      O    4   -0.29250      0.99986     3.28213    0.01052     4.29250
      C    5    0.15413      0.99947     1.82847    0.01793     2.84587
      C    6    0.03452      0.99956     1.95167    0.01425     2.96548
      C    7   -0.29571      0.99961     2.28792    0.00817     3.29571
      C    8   -0.28945      0.99962     2.28131    0.00853     3.28945
      N    9   -0.42644      0.99975     2.91564    0.01105     3.92644
      N   10   -0.42773      0.99974     2.91824    0.00974     3.92773
      H   11    0.10773      0.00000     0.39134    0.00093     0.39227
      H   12    0.11295      0.00000     0.38583    0.00122     0.38705
      H   13    0.11410      0.00000     0.38429    0.00161     0.38590
      H   14    0.09640      0.00000     0.40193    0.00167     0.40360
      H   15    0.10219      0.00000     0.39660    0.00121     0.39781
      H   16    0.10031      0.00000     0.39801    0.00168     0.39969
      H   17    0.10358      0.00000     0.39475    0.00167     0.39642
      H   18    0.10264      0.00000     0.39587    0.00149     0.39736
      H   19    0.10332      0.00000     0.39514    0.00154     0.39668
      H   20    0.10227      0.00000     0.39571    0.00201     0.39773
      H   21    0.17959      0.00000     0.31777    0.00263     0.32041
      H   22    0.17542      0.00000     0.32219    0.00239     0.32458
      H   23    0.18437      0.00000     0.31345    0.00218     0.31563
      H   24    0.18819      0.00000     0.30978    0.00203     0.31181
 =======================================================================
   * Total *   -0.00000      9.99681    29.86160    0.14159    40.00000

 Normal termination of Gaussian 16 at Tue Dec  8 13:35:51 2020.
