 Gaussian 16, Revision A.03,

 -----------------------------------------------------------
 # opt freq B3LYP/6-31G(d) empiricaldispersion=gd3bj scf=xqc
 -----------------------------------------------------------

 -------------------------------
 CID_150050278_JID_3543_neutraal
 -------------------------------
 Symbolic Z-matrix:
 Charge =  0 Multiplicity = 1

 SCF Done:  E(RB3LYP) =  -971.536492720     A.U. after   15 cycles
 SCF Done:  E(RB3LYP) =  -971.540846710     A.U. after   13 cycles
 SCF Done:  E(RB3LYP) =  -971.541278684     A.U. after   13 cycles
 SCF Done:  E(RB3LYP) =  -971.541492968     A.U. after   13 cycles
 SCF Done:  E(RB3LYP) =  -971.541862850     A.U. after   12 cycles
 SCF Done:  E(RB3LYP) =  -971.541983347     A.U. after   12 cycles
 SCF Done:  E(RB3LYP) =  -971.541995992     A.U. after   11 cycles
 SCF Done:  E(RB3LYP) =  -971.542005017     A.U. after   11 cycles
 SCF Done:  E(RB3LYP) =  -971.542005531     A.U. after    9 cycles
 SCF Done:  E(RB3LYP) =  -971.542005572     A.U. after    7 cycles
 Optimization completed.
    -- Stationary point found.
 Normal termination of Gaussian 16 at Wed Dec  9 23:34:31 2020.

 --------------------------------------------------------------------
 #N Geom=AllCheck Guess=TCheck SCRF=Check GenChk RB3LYP/6-31G(d) Freq
 --------------------------------------------------------------------

 Structure from the checkpoint file:  "JID_3543.chk"
 -------------------------------
 CID_150050278_JID_3543_neutraal
 -------------------------------
 Charge =  0 Multiplicity = 1

 SCF Done:  E(RB3LYP) =  -971.542005572     A.U. after    1 cycles

  Exact polarizability: 138.739 -20.726 104.883   6.842  10.500  97.608
 Approx polarizability: 211.241 -46.796 189.563  20.085  29.822 171.618

                      1                      2                      3
                      A                      A                      A
 Frequencies --     27.7929                51.5123                67.5196
 Red. masses --      4.7363                 5.9851                 5.4264
 Frc consts  --      0.0022                 0.0094                 0.0146
 IR Inten    --      0.9038                 0.4453                 5.0896

                      4                      5                      6
                      A                      A                      A
 Frequencies --    111.4779               168.1331               230.3332
 Red. masses --      7.3487                 6.9980                 5.7375
 Frc consts  --      0.0538                 0.1166                 0.1793
 IR Inten    --      0.2622                 0.1172                 1.9296

                      7                      8                      9
                      A                      A                      A
 Frequencies --    292.1737               322.4326               368.6875
 Red. masses --      5.5101                 7.7243                 8.0944
 Frc consts  --      0.2771                 0.4731                 0.6483
 IR Inten    --      4.6107                 1.1842                 1.6800

                     10                     11                     12
                      A                      A                      A
 Frequencies --    377.7777               417.4106               425.3932
 Red. masses --      1.1499                 6.9763                 3.2122
 Frc consts  --      0.0967                 0.7162                 0.3425
 IR Inten    --    118.4152                 2.5664                 1.6869

                     13                     14                     15
                      A                      A                      A
 Frequencies --    429.4603               464.2612               531.9897
 Red. masses --      4.4619                 5.0561                 2.6263
 Frc consts  --      0.4849                 0.6421                 0.4379
 IR Inten    --     13.5915                 5.7884                 6.7889

                     16                     17                     18
                      A                      A                      A
 Frequencies --    646.8751               653.2027               690.4572
 Red. masses --      6.6116                 7.0271                 4.3372
 Frc consts  --      1.6300                 1.7665                 1.2182
 IR Inten    --      7.7177                 0.3605                57.5617

                     19                     20                     21
                      A                      A                      A
 Frequencies --    720.0421               722.9384               773.7442
 Red. masses --      2.9117                 1.6293                 6.1221
 Frc consts  --      0.8894                 0.5017                 2.1595
 IR Inten    --      5.9074                88.9760                 2.6104

                     22                     23                     24
                      A                      A                      A
 Frequencies --    812.6808               814.0854               841.3510
 Red. masses --      1.4530                 5.4041                 1.5385
 Frc consts  --      0.5654                 2.1101                 0.6416
 IR Inten    --     14.3211                 4.0322                21.4133

                     25                     26                     27
                      A                      A                      A
 Frequencies --    846.8138               859.7092               873.7064
 Red. masses --      6.0386                 4.6477                 1.4597
 Frc consts  --      2.5513                 2.0239                 0.6565
 IR Inten    --      9.4516                20.1266                11.0006

                     28                     29                     30
                      A                      A                      A
 Frequencies --    939.9047               951.5575               962.7552
 Red. masses --      1.9018                 2.2321                 1.3194
 Frc consts  --      0.9899                 1.1908                 0.7206
 IR Inten    --     10.2303                19.3240                 0.4571

                     31                     32                     33
                      A                      A                      A
 Frequencies --   1033.1204              1041.0367              1096.4356
 Red. masses --      3.2788                 2.0417                 3.2673
 Frc consts  --      2.0619                 1.3037                 2.3142
 IR Inten    --      1.3115                16.7508                36.0206

                     34                     35                     36
                      A                      A                      A
 Frequencies --   1118.2233              1131.6559              1154.3648
 Red. masses --      2.9593                 1.4133                 1.3227
 Frc consts  --      2.1802                 1.0664                 1.0385
 IR Inten    --      1.7148                 9.7257                21.9446

                     37                     38                     39
                      A                      A                      A
 Frequencies --   1206.7643              1212.5028              1252.6787
 Red. masses --      1.1442                 1.3718                 1.4678
 Frc consts  --      0.9817                 1.1883                 1.3571
 IR Inten    --     42.1454               155.4792                30.3163

                     40                     41                     42
                      A                      A                      A
 Frequencies --   1303.0828              1314.0477              1330.4737
 Red. masses --      1.1835                 3.3622                 1.8431
 Frc consts  --      1.1840                 3.4206                 1.9223
 IR Inten    --     44.3874                96.1364                 2.9916

                     43                     44                     45
                      A                      A                      A
 Frequencies --   1359.6886              1379.3380              1473.1507
 Red. masses --      1.8444                 2.3746                 2.7083
 Frc consts  --      2.0090                 2.6619                 3.4629
 IR Inten    --      7.7954                33.0292                30.2317

                     46                     47                     48
                      A                      A                      A
 Frequencies --   1546.0904              1641.9925              1662.9536
 Red. masses --      2.5113                 5.9463                 5.7987
 Frc consts  --      3.5368                 9.4457                 9.4481
 IR Inten    --     71.4524                29.8476                67.3556

                     49                     50                     51
                      A                      A                      A
 Frequencies --   1693.8971              3070.1620              3171.7691
 Red. masses --      6.1599                 1.0876                 1.0898
 Frc consts  --     10.4135                 6.0399                 6.4594
 IR Inten    --     40.8834                25.0554                20.1232

                     52                     53                     54
                      A                      A                      A
 Frequencies --   3205.7940              3221.5062              3229.4745
 Red. masses --      1.0880                 1.0947                 1.0928
 Frc consts  --      6.5880                 6.6938                 6.7150
 IR Inten    --      3.3472                 8.2285                 0.8306

                     55                     56                     57
                      A                      A                      A
 Frequencies --   3264.8771              3304.8970              3749.9365
 Red. masses --      1.0930                 1.1036                 1.0659
 Frc consts  --      6.8645                 7.1021                 8.8312
 IR Inten    --      0.1815                 1.0178                49.0028

 - Thermochemistry -
 -------------------
 Temperature   298.150 Kelvin.  Pressure   1.00000 Atm.
 Atom     1 has atomic number  6 and mass  12.00000

 Molecular mass:   196.01942 amu.
 Principal axes and moments of inertia in atomic units:
                           1         2         3
     Eigenvalues --  1399.927783607.817504066.74440
           X            0.99993  -0.00706  -0.00957
           Y            0.00738   0.99942   0.03326
           Z            0.00933  -0.03333   0.99940
 This molecule is an asymmetric top.
 Rotational symmetry number  1.
 Warning -- assumption of classical behavior for rotation
           may cause significant error
 Rotational temperatures (Kelvin)      0.06187     0.02401     0.02130
 Rotational constants (GHZ):           1.28917     0.50023     0.44378
 Zero-point vibrational energy     404135.0 (Joules/Mol)
                                   96.59058 (Kcal/Mol)
 Warning -- explicit consideration of  15 degrees of freedom as
           vibrations may cause significant error
 Vibrational temperatures:     39.99    74.11    97.15   160.39   241.91
          (Kelvin)            331.40   420.37   463.91   530.46   543.54
                              600.56   612.05   617.90   667.97   765.41
                              930.71   939.81   993.41  1035.98  1040.15
                             1113.25  1169.27  1171.29  1210.52  1218.38
                             1236.93  1257.07  1352.31  1369.08  1385.19
                             1486.43  1497.82  1577.53  1608.87  1628.20
                             1660.87  1736.26  1744.52  1802.33  1874.85
                             1890.62  1914.25  1956.29  1984.56  2119.54
                             2224.48  2362.46  2392.62  2437.14  4417.28
                             4563.47  4612.42  4635.03  4646.49  4697.43
                             4755.01  5395.32

 Zero-point correction=                           0.153927 (Hartree/Particle)
 Thermal correction to Energy=                    0.165405
 Thermal correction to Enthalpy=                  0.166349
 Thermal correction to Gibbs Free Energy=         0.114828
 Sum of electronic and zero-point Energies=           -971.388079
 Sum of electronic and thermal Energies=              -971.376600
 Sum of electronic and thermal Enthalpies=            -971.375656
 Sum of electronic and thermal Free Energies=         -971.427178

                     E (Thermal)             CV                S
                      KCal/Mol        Cal/Mol-Kelvin    Cal/Mol-Kelvin
 Total                  103.793             43.647            108.437
 Electronic               0.000              0.000              0.000
 Translational            0.889              2.981             41.724
 Rotational               0.889              2.981             31.397
 Vibrational            102.016             37.686             35.316
 Vibration     1          0.593              1.984              5.981
 Vibration     2          0.596              1.977              4.758
 Vibration     3          0.598              1.970              4.224
 Vibration     4          0.607              1.940              3.243
 Vibration     5          0.625              1.882              2.456
 Vibration     6          0.652              1.795              1.876
 Vibration     7          0.688              1.688              1.461
 Vibration     8          0.707              1.631              1.298
 Vibration     9          0.741              1.537              1.085
 Vibration    10          0.748              1.517              1.048
 Vibration    11          0.780              1.432              0.901
 Vibration    12          0.787              1.415              0.874
 Vibration    13          0.791              1.406              0.860
 Vibration    14          0.822              1.329              0.754
 Vibration    15          0.887              1.179              0.583

 Optimization completed.
    -- Stationary point found.
 Normal termination of Gaussian 16 at Wed Dec  9 23:40:01 2020.

 ----------------------------------------------------------------------
 # B3LYP/6-311++G(d,p) empiricaldispersion=gd3bj scf=xqc pop=npa geom=c
 heck
 ----------------------------------------------------------------------

 ---------------------------------------
 CID_150050278_JID_3543_Energie_neutraal
 ---------------------------------------
 Structure from the checkpoint file:  "JID_3543.chk"
 Charge =  0 Multiplicity = 1

 SCF Done:  E(RB3LYP) =  -971.735613878     A.U. after   15 cycles
 Normal termination of Gaussian 16 at Wed Dec  9 23:42:21 2020.

 ----------------------------------------------------------------------
 # B3LYP/6-311++G(d,p) empiricaldispersion=gd3bj scf=xqc pop=npa geom=c
 heck
 ----------------------------------------------------------------------

 -------------------------------------
 CID_150050278_JID_3543_Energie_kation
 -------------------------------------
 Structure from the checkpoint file:  "JID_3543.chk"
 Charge =  1 Multiplicity = 2

 SCF Done:  E(UB3LYP) =  -971.442140424     A.U. after   25 cycles
 Normal termination of Gaussian 16 at Wed Dec  9 23:47:53 2020.
 Gaussian 16:  ES64L-G16RevA.03 25-Dec-2016

 ----------------------------------------------------------------------
 # B3LYP/6-311++G(d,p) empiricaldispersion=gd3bj scf=xqc pop=npa geom=c
 heck
 ----------------------------------------------------------------------

 ------------------------------------
 CID_150050278_JID_3543_Energie_anion
 ------------------------------------
 Structure from the checkpoint file:  "JID_3543.chk"
 Charge = -1 Multiplicity = 2

                         Standard orientation:
 ---------------------------------------------------------------------
 Center     Atomic      Atomic             Coordinates (Angstroms)
 Number     Number       Type             X           Y           Z
 ---------------------------------------------------------------------
      1          6           0       -2.020943   -0.401279    1.371438
      2          6           0       -1.569262   -1.612464    1.056044
      3          8           0       -1.694962   -1.946352   -0.254281
      4          8           0       -2.401390   -0.804229   -0.865547
      5          6           0       -2.433123    0.256087    0.099376
      6         16           0       -1.355353    1.708595   -0.398797
      7          6           0        0.257334    0.961877   -0.244453
      8          6           0        0.726874    0.089376   -1.233082
      9          6           0        1.976127   -0.512184   -1.106903
     10          6           0        2.776581   -0.233264    0.005990
     11          6           0        2.320092    0.644282    0.995261
     12          6           0        1.065503    1.229883    0.868974
     13          8           0        4.011873   -0.788029    0.180935
     14          1           0       -1.990719    0.083826    2.334271
     15          1           0       -1.098986   -2.385323    1.650754
     16          1           0       -3.446365    0.673054    0.085026
     17          1           0        0.103453   -0.127853   -2.092950
     18          1           0        2.331646   -1.195461   -1.875752
     19          1           0        2.955687    0.848854    1.850512
     20          1           0        0.703965    1.904335    1.638562
     21          1           0        4.207717   -1.363954   -0.574393
 ---------------------------------------------------------------------

 SCF Done:  E(UB3LYP) =  -971.725310009     A.U. after   33 cycles
 SCF Done:  E(UB3LYP) =  -971.725310009     a.u. after    1 cycles

 The electronic state is 2-A.
 Alpha  occ. eigenvalues --  -88.73658 -19.09195 -19.07707 -19.04549 -10.16223
 Alpha  occ. eigenvalues --  -10.13441 -10.13360 -10.09287 -10.07936 -10.07659
 Alpha  occ. eigenvalues --  -10.07384 -10.07046 -10.07009  -7.82315  -5.78680
 Alpha  occ. eigenvalues --   -5.78340  -5.77716  -1.04238  -0.95701  -0.84784
 Alpha  occ. eigenvalues --   -0.75900  -0.71030  -0.66632  -0.65133  -0.60079
 Alpha  occ. eigenvalues --   -0.53171  -0.51948  -0.51256  -0.48406  -0.44361
 Alpha  occ. eigenvalues --   -0.43542  -0.38245  -0.37766  -0.36889  -0.34854
 Alpha  occ. eigenvalues --   -0.33518  -0.32598  -0.31925  -0.30869  -0.29928
 Alpha  occ. eigenvalues --   -0.28877  -0.28276  -0.27777  -0.24556  -0.24268
 Alpha  occ. eigenvalues --   -0.22475  -0.20264  -0.15799  -0.13945  -0.12886
 Alpha  occ. eigenvalues --   -0.11496   0.04685
 Alpha virt. eigenvalues --    0.06487   0.07125   0.08275   0.08389   0.08533
 Alpha virt. eigenvalues --    0.09098   0.09813   0.10016   0.10832   0.11873
 Alpha virt. eigenvalues --    0.12432   0.12985   0.13387   0.15444   0.15653

  Beta  occ. eigenvalues --  -88.73649 -19.08934 -19.07419 -19.04481 -10.16199
  Beta  occ. eigenvalues --  -10.13423 -10.13329 -10.09277 -10.07923 -10.07649
  Beta  occ. eigenvalues --  -10.07379 -10.07038 -10.06980  -7.82307  -5.78650
  Beta  occ. eigenvalues --   -5.78339  -5.77711  -1.03594  -0.95571  -0.84333
  Beta  occ. eigenvalues --   -0.75859  -0.70899  -0.66565  -0.65095  -0.59984
  Beta  occ. eigenvalues --   -0.53036  -0.51843  -0.50955  -0.48319  -0.44259
  Beta  occ. eigenvalues --   -0.43401  -0.38166  -0.37618  -0.36738  -0.34696
  Beta  occ. eigenvalues --   -0.33428  -0.32551  -0.31772  -0.30782  -0.29634
  Beta  occ. eigenvalues --   -0.28651  -0.28024  -0.27571  -0.24477  -0.24218
  Beta  occ. eigenvalues --   -0.22390  -0.20078  -0.15758  -0.13894  -0.12765
  Beta  occ. eigenvalues --   -0.11366
  Beta virt. eigenvalues --    0.07280   0.07774   0.08398   0.08446   0.08906
  Beta virt. eigenvalues --    0.09165   0.09603   0.10339   0.10399   0.11088
  Beta virt. eigenvalues --    0.11960   0.12526   0.13086   0.13782   0.15468

 Mulliken charges and spin densities:
               1          2
     1  C    0.062545  -0.095905
     2  C    0.321037  -0.559936
     3  O   -0.008961   0.087215
     4  O   -0.021966   0.051166
     5  C   -0.568273  -0.045307
     6  S    0.080718  -0.250226
     7  C    1.674593  -0.428023
     8  C   -0.597078   0.060941
     9  C   -1.160203   1.088024
    10  C    1.583731  -2.031421
    11  C    0.512121  -0.769522
    12  C   -0.914133   0.513494
    13  O   -0.270078   0.048263
    14  H   -0.072607   0.225395
    15  H   -0.598995   0.813819
    16  H    0.241292  -0.001881
    17  H    0.185481   0.024365
    18  H   -0.933360   1.109635
    19  H   -0.034868   0.212253
    20  H   -0.005545   0.186292
    21  H   -0.475453   0.761358
 Sum of Mulliken charges =  -1.00000   1.00000

 Dipole moment (field-independent basis, Debye):
    X=             -6.5293    Y=              5.1733    Z=              1.2242  Tot=              8.4198
 Quadrupole moment (field-independent basis, Debye-Ang):
   XX=           -144.8234   YY=           -118.8571   ZZ=           -112.4823
   XY=             11.3977   XZ=              6.0089   YZ=              0.6637

 Summary of Natural Population Analysis:

                                       Natural Population
                Natural  -----------------------------------------------
    Atom  No    Charge         Core      Valence    Rydberg      Total
 -----------------------------------------------------------------------
      C    1   -0.18357      0.99951     2.17262    0.01144     3.18357
      C    2    0.08799      0.99948     1.89737    0.01516     2.91201
      O    3   -0.10933      0.99988     3.10128    0.00816     4.10933
      O    4   -0.13239      0.99989     3.12476    0.00774     4.13239
      C    5   -0.00734      0.99958     1.98833    0.01943     3.00734
      S    6    0.08451      4.99955     2.89768    0.01826     7.91549
      C    7   -0.11726      0.99940     2.10340    0.01447     3.11726
      C    8   -0.08424      0.99949     2.07324    0.01151     3.08424
      C    9   -0.13617      0.99951     2.12558    0.01107     3.13617
      C   10    0.16790      0.99939     1.81879    0.01391     2.83210
      C   11   -0.12781      0.99951     2.11821    0.01009     3.12781
      C   12   -0.08946      0.99949     2.07894    0.01103     3.08946
      O   13   -0.33805      0.99988     3.33080    0.00737     4.33805
      H   14    0.11436      0.00000     0.38459    0.00106     0.38564
      H   15    0.10750      0.00000     0.38960    0.00289     0.39250
      H   16    0.09659      0.00000     0.40223    0.00118     0.40341
      H   17    0.10917      0.00000     0.38943    0.00140     0.39083
      H   18    0.10674      0.00000     0.39078    0.00248     0.39326
      H   19    0.10502      0.00000     0.39368    0.00130     0.39498
      H   20    0.10281      0.00000     0.39594    0.00125     0.39719
      H   21    0.24303      0.00000     0.22800    0.02897     0.25697
 =======================================================================
   * Total *   -0.00000     16.99458    33.80525    0.20017    51.00000

 Normal termination of Gaussian 16 at Wed Dec  9 23:55:22 2020.
