 Gaussian 16, Revision A.03,

 -----------------------------------------------------------
 # opt freq B3LYP/6-31G(d) empiricaldispersion=gd3bj scf=xqc
 -----------------------------------------------------------

 ------------------------------
 CID_88437015_JID_4296_neutraal
 ------------------------------
 Symbolic Z-matrix:
 Charge =  0 Multiplicity = 1

 SCF Done:  E(RB3LYP) =  -723.709651302     A.U. after   14 cycles
 SCF Done:  E(RB3LYP) =  -723.715913769     A.U. after   12 cycles
 SCF Done:  E(RB3LYP) =  -723.717169546     A.U. after   12 cycles
 SCF Done:  E(RB3LYP) =  -723.717351566     A.U. after   12 cycles
 SCF Done:  E(RB3LYP) =  -723.718523683     A.U. after   13 cycles
 SCF Done:  E(RB3LYP) =  -723.718296626     A.U. after   14 cycles
 SCF Done:  E(RB3LYP) =  -723.721054413     A.U. after   13 cycles
 SCF Done:  E(RB3LYP) =  -723.721052459     A.U. after   12 cycles
 SCF Done:  E(RB3LYP) =  -723.721287788     A.U. after   12 cycles
 SCF Done:  E(RB3LYP) =  -723.721255697     A.U. after   12 cycles
 SCF Done:  E(RB3LYP) =  -723.721884073     A.U. after    9 cycles
 SCF Done:  E(RB3LYP) =  -723.721884584     A.U. after    9 cycles
 SCF Done:  E(RB3LYP) =  -723.721884747     A.U. after    9 cycles
 SCF Done:  E(RB3LYP) =  -723.721884887     A.U. after    8 cycles
 SCF Done:  E(RB3LYP) =  -723.721884931     A.U. after    7 cycles
 Optimization completed.
    -- Stationary point found.
 Normal termination of Gaussian 16 at Thu Dec 10 09:28:45 2020.

 --------------------------------------------------------------------
 #N Geom=AllCheck Guess=TCheck SCRF=Check GenChk RB3LYP/6-31G(d) Freq
 --------------------------------------------------------------------

 Structure from the checkpoint file:  "JID_4296.chk"
 ------------------------------
 CID_88437015_JID_4296_neutraal
 ------------------------------
 Charge =  0 Multiplicity = 1

 SCF Done:  E(RB3LYP) =  -723.721884931     A.U. after    1 cycles

  Exact polarizability: 137.334   0.718  93.698  -2.460   5.476  89.879
 Approx polarizability: 192.961   0.579 140.692  -1.177   8.992 130.128

                      1                      2                      3
                      A                      A                      A
 Frequencies --     24.4528                31.7273                48.4669
 Red. masses --      9.5901                 7.4130                 8.5736
 Frc consts  --      0.0034                 0.0044                 0.0119
 IR Inten    --      0.6041                 0.7761                 1.4341

                      4                      5                      6
                      A                      A                      A
 Frequencies --     69.5383                92.7026               113.7446
 Red. masses --      4.9402                 4.9904                 5.4952
 Frc consts  --      0.0141                 0.0253                 0.0419
 IR Inten    --      1.5842                 0.2714                 3.1247

                      7                      8                      9
                      A                      A                      A
 Frequencies --    133.8628               164.5442               206.5081
 Red. masses --      3.8497                 4.1067                 1.0945
 Frc consts  --      0.0406                 0.0655                 0.0275
 IR Inten    --      5.1567                 0.4222                27.4283

                     10                     11                     12
                      A                      A                      A
 Frequencies --    228.3266               270.8751               289.0104
 Red. masses --      3.1086                 3.1415                 3.6486
 Frc consts  --      0.0955                 0.1358                 0.1796
 IR Inten    --      0.8232                 9.2620                 2.7189

                     13                     14                     15
                      A                      A                      A
 Frequencies --    325.3118               369.6501               378.2159
 Red. masses --      2.6029                 3.2574                 2.0128
 Frc consts  --      0.1623                 0.2622                 0.1696
 IR Inten    --      3.5039                32.5926                13.9386

                     16                     17                     18
                      A                      A                      A
 Frequencies --    409.2479               443.6866               456.5123
 Red. masses --      2.0487                 2.6408                 2.1624
 Frc consts  --      0.2022                 0.3063                 0.2655
 IR Inten    --     20.5238                25.0652                17.4555

                     19                     20                     21
                      A                      A                      A
 Frequencies --    526.3272               540.6611               572.7686
 Red. masses --      2.8582                 4.3010                 3.2518
 Frc consts  --      0.4665                 0.7407                 0.6285
 IR Inten    --      4.3387                15.6807                24.9623

                     22                     23                     24
                      A                      A                      A
 Frequencies --    578.3343               613.4653               648.9958
 Red. masses --      2.3943                 3.0960                 1.3996
 Frc consts  --      0.4718                 0.6865                 0.3473
 IR Inten    --     26.1741                20.9082                87.1558

                     25                     26                     27
                      A                      A                      A
 Frequencies --    666.2175               723.5868               745.3594
 Red. masses --      1.3196                 2.1466                 2.6762
 Frc consts  --      0.3451                 0.6622                 0.8760
 IR Inten    --     43.3942                77.6629                89.5657

                     28                     29                     30
                      A                      A                      A
 Frequencies --    771.3430               815.5606               824.0091
 Red. masses --      2.4392                 3.0668                 2.5333
 Frc consts  --      0.8551                 1.2018                 1.0134
 IR Inten    --     14.4533                 8.4580                 5.1343

                     31                     32                     33
                      A                      A                      A
 Frequencies --    855.5467               901.4831               926.6110
 Red. masses --      3.0936                 1.9509                 1.8928
 Frc consts  --      1.3341                 0.9341                 0.9575
 IR Inten    --      7.1302                86.0710                84.9597

                     34                     35                     36
                      A                      A                      A
 Frequencies --    941.0911               985.6179               991.1573
 Red. masses --      1.5131                 2.4692                 2.2878
 Frc consts  --      0.7895                 1.4132                 1.3242
 IR Inten    --    128.5752                17.6602                 3.9393

                     37                     38                     39
                      A                      A                      A
 Frequencies --   1010.5413              1036.3447              1040.3835
 Red. masses --      1.3845                 1.9563                 2.2964
 Frc consts  --      0.8330                 1.2379                 1.4645
 IR Inten    --      1.5292                33.6762                15.4502

                     40                     41                     42
                      A                      A                      A
 Frequencies --   1065.8335              1115.6628              1139.9037
 Red. masses --      1.7554                 2.2056                 1.9561
 Frc consts  --      1.1749                 1.6175                 1.4975
 IR Inten    --    110.5473                60.3212               128.5441

                     43                     44                     45
                      A                      A                      A
 Frequencies --   1167.5702              1190.4514              1226.5488
 Red. masses --      1.7296                 2.0254                 1.4606
 Frc consts  --      1.3892                 1.6911                 1.2947
 IR Inten    --    189.2679                54.9436                10.6750

                     46                     47                     48
                      A                      A                      A
 Frequencies --   1244.1929              1264.7622              1289.1906
 Red. masses --      1.3072                 1.3373                 1.3728
 Frc consts  --      1.1922                 1.2604                 1.3443
 IR Inten    --     26.0339                66.0178                15.3622

                     49                     50                     51
                      A                      A                      A
 Frequencies --   1311.6267              1351.3784              1367.4383
 Red. masses --      1.1484                 1.5210                 1.8020
 Frc consts  --      1.1641                 1.6366                 1.9852
 IR Inten    --      3.9015                26.6579                 5.4276

                     52                     53                     54
                      A                      A                      A
 Frequencies --   1368.3178              1380.7205              1400.3101
 Red. masses --      1.9192                 1.2329                 1.9697
 Frc consts  --      2.1171                 1.3848                 2.2756
 IR Inten    --      8.8337                 2.8889                15.9312

                     55                     56                     57
                      A                      A                      A
 Frequencies --   1415.8127              1453.8514              1504.4046
 Red. masses --      2.0080                 1.4381                 1.1235
 Frc consts  --      2.3715                 1.7910                 1.4982
 IR Inten    --     41.2816                 6.6934                 5.1045

                     58                     59                     60
                      A                      A                      A
 Frequencies --   1520.1361              1530.9633              1681.6380
 Red. masses --      1.0953                 1.1103                 1.0888
 Frc consts  --      1.4912                 1.5333                 1.8140
 IR Inten    --      3.9949                10.0980                40.2319

                     61                     62                     63
                      A                      A                      A
 Frequencies --   1722.4863              1744.9948              1821.3971
 Red. masses --      1.1430                 5.3508                 9.9761
 Frc consts  --      1.9980                 9.5997                19.4994
 IR Inten    --     25.1004                 1.9830               278.6266

                     64                     65                     66
                      A                      A                      A
 Frequencies --   1829.1685              3058.2018              3064.3865
 Red. masses --      8.7314                 1.0668                 1.0598
 Frc consts  --     17.2125                 5.8784                 5.8638
 IR Inten    --    227.1158                16.1584                25.7863

                     67                     68                     69
                      A                      A                      A
 Frequencies --   3083.4679              3103.6195              3134.6676
 Red. masses --      1.0603                 1.1042                 1.0940
 Frc consts  --      5.9399                 6.2668                 6.3334
 IR Inten    --     34.1751                12.6083                 2.7907

                     70                     71                     72
                      A                      A                      A
 Frequencies --   3148.3610              3149.5413              3170.4580
 Red. masses --      1.0960                 1.0958                 1.0949
 Frc consts  --      6.4005                 6.4045                 6.4842
 IR Inten    --      6.0135                 6.9322                33.4136

                     73                     74                     75
                      A                      A                      A
 Frequencies --   3462.4147              3467.6382              3544.8940
 Red. masses --      1.0494                 1.0511                 1.0925
 Frc consts  --      7.4123                 7.4463                 8.0890
 IR Inten    --      1.4044                36.3642                28.9359

                     76                     77                     78
                      A                      A                      A
 Frequencies --   3551.9932              3668.2013              3679.3636
 Red. masses --      1.0922                 1.0640                 1.0639
 Frc consts  --      8.1192                 8.4350                 8.4855
 IR Inten    --      5.8836                39.9611                44.9889

 - Thermochemistry -
 -------------------
 Temperature   298.150 Kelvin.  Pressure   1.00000 Atm.
 Atom     1 has atomic number  6 and mass  12.00000

 Molecular mass:   202.09536 amu.
 Principal axes and moments of inertia in atomic units:
                           1         2         3
     Eigenvalues --  1445.524214793.810965035.01674
           X            0.99995   0.00703  -0.00680
           Y           -0.00692   0.99985   0.01580
           Z            0.00691  -0.01575   0.99985
 This molecule is an asymmetric top.
 Rotational symmetry number  1.
 Warning -- assumption of classical behavior for rotation
           may cause significant error
 Rotational temperatures (Kelvin)      0.05992     0.01807     0.01720
 Rotational constants (GHZ):           1.24850     0.37647     0.35844
 Zero-point vibrational energy     611098.9 (Joules/Mol)
                                  146.05614 (Kcal/Mol)
 Warning -- explicit consideration of  23 degrees of freedom as
           vibrations may cause significant error
 Vibrational temperatures:     35.18    45.65    69.73   100.05   133.38
          (Kelvin)            163.65   192.60   236.74   297.12   328.51
                              389.73   415.82   468.05   531.84   544.17
                              588.82   638.37   656.82   757.27   777.89
                              824.09   832.09   882.64   933.76   958.54
                             1041.08  1072.41  1109.79  1173.41  1185.57
                             1230.94  1297.03  1333.19  1354.02  1418.08
                             1426.05  1453.94  1491.07  1496.88  1533.50
                             1605.19  1640.07  1679.87  1712.79  1764.73
                             1790.12  1819.71  1854.86  1887.14  1944.33
                             1967.44  1968.70  1986.55  2014.73  2037.04
                             2091.77  2164.50  2187.14  2202.71  2419.50
                             2478.27  2510.66  2620.58  2631.77  4400.07
                             4408.97  4436.42  4465.42  4510.09  4529.79
                             4531.49  4561.58  4981.64  4989.16  5100.31
                             5110.53  5277.72  5293.78

 Zero-point correction=                           0.232755 (Hartree/Particle)
 Thermal correction to Energy=                    0.247815
 Thermal correction to Enthalpy=                  0.248759
 Thermal correction to Gibbs Free Energy=         0.188914
 Sum of electronic and zero-point Energies=           -723.489130
 Sum of electronic and thermal Energies=              -723.474070
 Sum of electronic and thermal Enthalpies=            -723.473126
 Sum of electronic and thermal Free Energies=         -723.532971

                     E (Thermal)             CV                S
                      KCal/Mol        Cal/Mol-Kelvin    Cal/Mol-Kelvin
 Total                  155.506             55.300            125.956
 Electronic               0.000              0.000              0.000
 Translational            0.889              2.981             41.815
 Rotational               0.889              2.981             31.923
 Vibrational            153.729             49.338             52.218
 Vibration     1          0.593              1.985              6.235
 Vibration     2          0.594              1.983              5.718
 Vibration     3          0.595              1.978              4.879
 Vibration     4          0.598              1.969              4.166
 Vibration     5          0.602              1.954              3.602
 Vibration     6          0.607              1.938              3.204
 Vibration     7          0.613              1.920              2.890
 Vibration     8          0.623              1.886              2.497
 Vibration     9          0.641              1.831              2.074
 Vibration    10          0.651              1.798              1.892
 Vibration    11          0.675              1.727              1.591
 Vibration    12          0.686              1.694              1.480
 Vibration    13          0.709              1.625              1.283
 Vibration    14          0.742              1.535              1.081
 Vibration    15          0.748              1.517              1.046
 Vibration    16          0.774              1.450              0.929
 Vibration    17          0.803              1.375              0.815
 Vibration    18          0.815              1.346              0.776
 Vibration    19          0.881              1.192              0.595
 Vibration    20          0.896              1.160              0.564
 Vibration    21          0.929              1.090              0.499
 Vibration    22          0.935              1.078              0.488
 Vibration    23          0.973              1.003              0.427

                           ! Non-Optimized Parameters !
 Normal termination of Gaussian 16 at Thu Dec 10 09:36:59 2020.

 ----------------------------------------------------------------------
 # B3LYP/6-311++G(d,p) empiricaldispersion=gd3bj scf=xqc pop=npa geom=c
 heck
 ----------------------------------------------------------------------

 --------------------------------------
 CID_88437015_JID_4296_Energie_neutraal
 --------------------------------------
 Structure from the checkpoint file:  "JID_4296.chk"
 Charge =  0 Multiplicity = 1

 SCF Done:  E(RB3LYP) =  -723.967061326     A.U. after   15 cycles
 Normal termination of Gaussian 16 at Thu Dec 10 09:40:41 2020.

 ----------------------------------------------------------------------
 # B3LYP/6-311++G(d,p) empiricaldispersion=gd3bj scf=xqc pop=npa geom=c
 heck
 ----------------------------------------------------------------------

 ------------------------------------
 CID_88437015_JID_4296_Energie_kation
 ------------------------------------
 Structure from the checkpoint file:  "JID_4296.chk"
 Charge =  1 Multiplicity = 2

 SCF Done:  E(UB3LYP) =  -723.654983825     A.U. after   24 cycles
 Normal termination of Gaussian 16 at Thu Dec 10 09:49:10 2020.
 Gaussian 16:  ES64L-G16RevA.03 25-Dec-2016

 ----------------------------------------------------------------------
 # B3LYP/6-311++G(d,p) empiricaldispersion=gd3bj scf=xqc pop=npa geom=c
 heck
 ----------------------------------------------------------------------

 -----------------------------------
 CID_88437015_JID_4296_Energie_anion
 -----------------------------------
 Structure from the checkpoint file:  "JID_4296.chk"
 Charge = -1 Multiplicity = 2

                         Standard orientation:
 ---------------------------------------------------------------------
 Center     Atomic      Atomic             Coordinates (Angstroms)
 Number     Number       Type             X           Y           Z
 ---------------------------------------------------------------------
      1          6           0       -2.048590   -1.623397    0.308848
      2          6           0       -2.381574   -0.637986   -0.846250
      3          6           0       -2.824284    0.696246   -0.305157
      4          8           0       -2.106844    1.658935   -0.117188
      5          8           0       -4.140274    0.711396    0.022183
      6          6           0       -1.144840   -1.032894    1.365510
      7          6           0        0.187080   -0.926672    1.309472
      8          6           0        1.062963   -1.360899    0.171348
      9          6           0        1.708690   -0.186878   -0.618696
     10          6           0        2.635204    0.570397    0.366676
     11          8           0        3.738527    0.184463    0.695148
     12          8           0        2.091380    1.707633    0.858224
     13          7           0        2.518462   -0.779162   -1.687848
     14          7           0        0.668825    0.629002   -1.215042
     15          1           0       -1.593465   -2.511090   -0.143431
     16          1           0       -2.984028   -1.947947    0.776810
     17          1           0       -1.487167   -0.464311   -1.448536
     18          1           0       -3.172815   -1.064428   -1.470401
     19          1           0       -4.313729    1.594615    0.399657
     20          1           0       -1.647770   -0.633682    2.245225
     21          1           0        0.694535   -0.458885    2.152475
     22          1           0        1.885823   -1.985233    0.541686
     23          1           0        0.514871   -1.941500   -0.573832
     24          1           0        2.748440    2.073707    1.481137
     25          1           0        2.720309   -0.066668   -2.388509
     26          1           0        3.415194   -1.056092   -1.289018
     27          1           0        0.006137    0.956958   -0.512100
     28          1           0        1.072450    1.468750   -1.628366
 ---------------------------------------------------------------------

 SCF Done:  E(UB3LYP) =  -723.956246154     A.U. after   33 cycles
 SCF Done:  E(UB3LYP) =  -723.956246154     a.u. after    1 cycles

 The electronic state is 2-A.
 Alpha  occ. eigenvalues --  -19.07462 -19.07168 -19.02266 -19.01861 -14.20378
 Alpha  occ. eigenvalues --  -14.19511 -10.20949 -10.20682 -10.15462 -10.09088
 Alpha  occ. eigenvalues --  -10.08739 -10.08173 -10.07817 -10.07696  -1.01608
 Alpha  occ. eigenvalues --   -1.01232  -0.92706  -0.92224  -0.83751  -0.75001
 Alpha  occ. eigenvalues --   -0.72579  -0.68336  -0.62897  -0.58045  -0.55965
 Alpha  occ. eigenvalues --   -0.50840  -0.48684  -0.44380  -0.43609  -0.40658
 Alpha  occ. eigenvalues --   -0.40047  -0.39938  -0.39341  -0.38655  -0.37033
 Alpha  occ. eigenvalues --   -0.36240  -0.35285  -0.33368  -0.33122  -0.31802
 Alpha  occ. eigenvalues --   -0.30921  -0.29418  -0.29239  -0.28648  -0.27481
 Alpha  occ. eigenvalues --   -0.25831  -0.24158  -0.23151  -0.22825  -0.21243
 Alpha  occ. eigenvalues --   -0.18790  -0.16929  -0.16163  -0.14269   0.04249
 Alpha virt. eigenvalues --    0.05903   0.07007   0.07456   0.08201   0.08701
 Alpha virt. eigenvalues --    0.08936   0.09381   0.09950   0.10438   0.10706
 Alpha virt. eigenvalues --    0.11550   0.12333   0.13529   0.13743   0.14263

  Beta  occ. eigenvalues --  -19.07403 -19.07113 -19.02243 -19.01844 -14.20356
  Beta  occ. eigenvalues --  -14.19487 -10.20947 -10.20673 -10.15451 -10.09075
  Beta  occ. eigenvalues --  -10.08722 -10.08168 -10.07808 -10.07683  -1.01528
  Beta  occ. eigenvalues --   -1.01164  -0.92636  -0.92166  -0.83715  -0.74956
  Beta  occ. eigenvalues --   -0.72550  -0.68301  -0.62853  -0.57974  -0.55890
  Beta  occ. eigenvalues --   -0.50749  -0.48606  -0.44332  -0.43571  -0.40607
  Beta  occ. eigenvalues --   -0.40008  -0.39905  -0.39295  -0.38618  -0.36986
  Beta  occ. eigenvalues --   -0.36197  -0.35224  -0.33332  -0.33083  -0.31763
  Beta  occ. eigenvalues --   -0.30880  -0.29379  -0.29202  -0.28618  -0.27443
  Beta  occ. eigenvalues --   -0.25805  -0.24129  -0.23071  -0.22777  -0.21200
  Beta  occ. eigenvalues --   -0.18747  -0.16902  -0.16133  -0.14231
  Beta virt. eigenvalues --    0.06555   0.07032   0.07761   0.08176   0.08604
  Beta virt. eigenvalues --    0.08910   0.09266   0.09722   0.10175   0.10616
  Beta virt. eigenvalues --    0.10917   0.11686   0.12760   0.13637   0.13948

 Mulliken charges and spin densities:
               1          2
     1  C   -0.364262  -0.230153
     2  C    0.629492  -0.870330
     3  C   -0.213557   0.055060
     4  O   -0.247792  -0.016526
     5  O   -0.167112   0.053757
     6  C   -0.414692   0.608095
     7  C   -0.007957  -0.244386
     8  C    0.922467  -0.974285
     9  C    0.512370  -1.040278
    10  C   -0.536736   0.254269
    11  O   -0.279032   0.019375
    12  O   -0.110153   0.001096
    13  N   -0.317131   0.124004
    14  N   -0.233983  -0.097792
    15  H    0.072432   0.086966
    16  H   -0.123681   0.294438
    17  H    0.178478   0.011438
    18  H   -0.075923   0.289553
    19  H   -0.461541   0.759768
    20  H   -0.210399   0.410626
    21  H   -0.148608   0.347819
    22  H    0.110408   0.074181
    23  H    0.246479  -0.022451
    24  H   -0.493218   0.790643
    25  H   -0.048477   0.280789
    26  H    0.166298   0.072700
    27  H    0.607033  -0.309959
    28  H    0.008799   0.271583
 Sum of Mulliken charges =  -1.00000   1.00000

 Dipole moment (field-independent basis, Debye):
    X=              1.4004    Y=             -4.1305    Z=             -2.2178  Tot=              4.8929
 Quadrupole moment (field-independent basis, Debye-Ang):
   XX=           -162.2300   YY=           -118.2279   ZZ=           -117.2955
   XY=              2.0936   XZ=              1.0411   YZ=             -5.7198

 Summary of Natural Population Analysis:

                                       Natural Population
                Natural  -----------------------------------------------
    Atom  No    Charge         Core      Valence    Rydberg      Total
 -----------------------------------------------------------------------
      C    1   -0.20522      0.99961     2.19654    0.00908     3.20522
      C    2   -0.24139      0.99956     2.23359    0.00824     3.24139
      C    3    0.40758      0.99971     1.56731    0.02540     2.59242
      O    4   -0.30874      0.99987     3.30236    0.00651     4.30874
      O    5   -0.34532      0.99988     3.33839    0.00706     4.34532
      C    6   -0.09133      0.99952     2.08150    0.01031     3.09133
      C    7   -0.09173      0.99951     2.08168    0.01054     3.09173
      C    8   -0.21113      0.99957     2.20050    0.01107     3.21113
      C    9    0.11000      0.99956     1.87347    0.01697     2.89000
      C   10    0.39747      0.99964     1.57483    0.02805     2.60253
      O   11   -0.31630      0.99987     3.30951    0.00692     4.31630
      O   12   -0.33826      0.99987     3.33091    0.00748     4.33826
      N   13   -0.41812      0.99975     2.90757    0.01080     3.91812
      N   14   -0.42904      0.99974     2.91823    0.01106     3.92904
      H   15    0.10233      0.00000     0.39668    0.00099     0.39767
      H   16    0.10531      0.00000     0.39353    0.00115     0.39469
      H   17    0.12348      0.00000     0.37465    0.00187     0.37652
      H   18    0.10867      0.00000     0.39017    0.00116     0.39133
      H   19    0.24432      0.00000     0.23700    0.01868     0.25568
      H   20    0.09975      0.00000     0.39917    0.00108     0.40025
      H   21    0.09991      0.00000     0.39879    0.00130     0.40009
      H   22    0.10834      0.00000     0.39061    0.00106     0.39166
      H   23    0.10939      0.00000     0.38884    0.00176     0.39061
      H   24    0.24367      0.00000     0.23943    0.01690     0.25633
      H   25    0.17666      0.00000     0.32156    0.00178     0.32334
      H   26    0.18220      0.00000     0.31595    0.00186     0.31780
      H   27    0.19880      0.00000     0.29799    0.00321     0.30120
      H   28    0.17869      0.00000     0.31935    0.00196     0.32131
 =======================================================================
   * Total *    0.00000     13.99567    39.78008    0.22426    54.00000

 Normal termination of Gaussian 16 at Thu Dec 10 10:00:36 2020.
