 Gaussian 16, Revision A.03,

 -----------------------------------------------------------
 # opt freq B3LYP/6-31G(d) empiricaldispersion=gd3bj scf=xqc
 -----------------------------------------------------------

 ------------------------------
 CID_18632125_JID_5424_neutraal
 ------------------------------
 Symbolic Z-matrix:
 Charge =  0 Multiplicity = 1

 SCF Done:  E(RB3LYP) =  -707.444777492     A.U. after   15 cycles
 SCF Done:  E(RB3LYP) =  -707.449582405     A.U. after   13 cycles
 SCF Done:  E(RB3LYP) =  -707.450593348     A.U. after   13 cycles
 SCF Done:  E(RB3LYP) =  -707.452822405     A.U. after   13 cycles
 SCF Done:  E(RB3LYP) =  -707.452284231     A.U. after   13 cycles
 SCF Done:  E(RB3LYP) =  -707.453462887     A.U. after   13 cycles
 SCF Done:  E(RB3LYP) =  -707.453525126     A.U. after   11 cycles
 SCF Done:  E(RB3LYP) =  -707.453529297     A.U. after    9 cycles
 SCF Done:  E(RB3LYP) =  -707.453530374     A.U. after    8 cycles
 SCF Done:  E(RB3LYP) =  -707.453531359     A.U. after    8 cycles
 SCF Done:  E(RB3LYP) =  -707.453532280     A.U. after    8 cycles
 SCF Done:  E(RB3LYP) =  -707.453532488     A.U. after    7 cycles
 Optimization completed.
    -- Stationary point found.
 Normal termination of Gaussian 16 at Thu Dec 10 15:58:08 2020.

 --------------------------------------------------------------------
 #N Geom=AllCheck Guess=TCheck SCRF=Check GenChk RB3LYP/6-31G(d) Freq
 --------------------------------------------------------------------

 Structure from the checkpoint file:  "JID_5424.chk"
 ------------------------------
 CID_18632125_JID_5424_neutraal
 ------------------------------
 Charge =  0 Multiplicity = 1

 SCF Done:  E(RB3LYP) =  -707.453532488     A.U. after    1 cycles

  Exact polarizability: 154.250   7.037 125.107   9.638  -5.635 104.310
 Approx polarizability: 211.352  23.448 211.523  15.652 -15.041 168.981

                      1                      2                      3
                      A                      A                      A
 Frequencies --     36.7238                56.2928                70.1323
 Red. masses --      4.3962                 5.0548                 4.2069
 Frc consts  --      0.0035                 0.0094                 0.0122
 IR Inten    --      0.9023                 0.3143                 1.0406

                      4                      5                      6
                      A                      A                      A
 Frequencies --     76.4213                98.4853               124.8664
 Red. masses --      3.2527                 2.7641                 1.1862
 Frc consts  --      0.0112                 0.0158                 0.0109
 IR Inten    --      1.4312                 0.5001                 1.7492

                      7                      8                      9
                      A                      A                      A
 Frequencies --    143.6382               146.6732               171.5010
 Red. masses --      1.3301                 3.5337                 3.2561
 Frc consts  --      0.0162                 0.0448                 0.0564
 IR Inten    --      0.2891                 0.4247                 2.3331

                     10                     11                     12
                      A                      A                      A
 Frequencies --    181.4951               234.3790               267.5745
 Red. masses --      3.0486                 1.1228                 4.7273
 Frc consts  --      0.0592                 0.0363                 0.1994
 IR Inten    --      3.4978                 0.2660                 7.5445

                     13                     14                     15
                      A                      A                      A
 Frequencies --    279.7769               315.2356               334.4776
 Red. masses --      2.9233                 4.1382                 4.0587
 Frc consts  --      0.1348                 0.2423                 0.2675
 IR Inten    --      2.3067                 4.7052                 4.8518

                     16                     17                     18
                      A                      A                      A
 Frequencies --    359.2586               401.4798               467.7657
 Red. masses --      4.0978                 3.1399                 4.1977
 Frc consts  --      0.3116                 0.2982                 0.5411
 IR Inten    --     14.6260                 8.4553                 1.7228

                     19                     20                     21
                      A                      A                      A
 Frequencies --    494.4459               536.6889               557.8668
 Red. masses --      5.3809                 4.3409                 4.8190
 Frc consts  --      0.7751                 0.7367                 0.8836
 IR Inten    --      0.8745                 9.7300                 3.0435

                     22                     23                     24
                      A                      A                      A
 Frequencies --    582.9992               620.7172               729.9780
 Red. masses --      5.9587                 6.4638                 5.2075
 Frc consts  --      1.1933                 1.4673                 1.6349
 IR Inten    --      3.8122                 4.5777                 4.3576

                     25                     26                     27
                      A                      A                      A
 Frequencies --    753.1141               771.5278               791.3318
 Red. masses --      3.2848                 5.1357                 3.2615
 Frc consts  --      1.0977                 1.8012                 1.2033
 IR Inten    --      9.0506                18.4819                30.4466

                     28                     29                     30
                      A                      A                      A
 Frequencies --    825.8310               861.5599               953.2703
 Red. masses --      1.9197                 4.8134                 3.0677
 Frc consts  --      0.7714                 2.1051                 1.6424
 IR Inten    --      5.5170                 0.9107                31.7473

                     31                     32                     33
                      A                      A                      A
 Frequencies --    957.6573               966.4725               971.7079
 Red. masses --      2.0681                 1.7588                 2.0115
 Frc consts  --      1.1175                 0.9680                 1.1190
 IR Inten    --      4.0445                16.5172                 5.3130

                     34                     35                     36
                      A                      A                      A
 Frequencies --    985.8962              1006.2558              1074.6795
 Red. masses --      1.4902                 1.6763                 1.5837
 Frc consts  --      0.8534                 1.0001                 1.0777
 IR Inten    --      0.9122                 4.9317                 5.4251

                     37                     38                     39
                      A                      A                      A
 Frequencies --   1082.7763              1103.8398              1137.9411
 Red. masses --      5.7481                 2.4559                 2.0537
 Frc consts  --      3.9706                 1.7631                 1.5668
 IR Inten    --     70.7114                25.8701                57.7208

                     40                     41                     42
                      A                      A                      A
 Frequencies --   1177.1415              1181.3504              1186.5414
 Red. masses --      1.2863                 1.7944                 1.2692
 Frc consts  --      1.0501                 1.4755                 1.0528
 IR Inten    --      3.2959                44.5227                 0.8056

                     43                     44                     45
                      A                      A                      A
 Frequencies --   1216.3871              1222.0363              1256.2850
 Red. masses --      1.4767                 1.6744                 2.5739
 Frc consts  --      1.2873                 1.4733                 2.3934
 IR Inten    --      7.3632                93.4852               105.6564

                     46                     47                     48
                      A                      A                      A
 Frequencies --   1295.1351              1301.0260              1313.8237
 Red. masses --      3.3821                 5.6815                 2.8163
 Frc consts  --      3.3424                 5.6661                 2.8642
 IR Inten    --     47.0936               168.6044                37.4437

                     49                     50                     51
                      A                      A                      A
 Frequencies --   1332.8152              1428.7224              1438.9054
 Red. masses --      2.7110                 1.2805                 1.4288
 Frc consts  --      2.8374                 1.5400                 1.7430
 IR Inten    --    399.5148                 2.2466                 7.6290

                     52                     53                     54
                      A                      A                      A
 Frequencies --   1479.8783              1492.2564              1493.3386
 Red. masses --      2.6844                 1.2944                 1.3345
 Frc consts  --      3.4638                 1.6982                 1.7535
 IR Inten    --     61.8762                18.6321                 3.6520

                     55                     56                     57
                      A                      A                      A
 Frequencies --   1504.2273              1509.0475              1511.5897
 Red. masses --      1.4147                 1.1639                 1.0485
 Frc consts  --      1.8860                 1.5616                 1.4116
 IR Inten    --      5.6500                 7.2332                 5.5503

                     58                     59                     60
                      A                      A                      A
 Frequencies --   1517.6955              1525.4042              1526.4702
 Red. masses --      1.0511                 1.1016                 1.1314
 Frc consts  --      1.4264                 1.5102                 1.5532
 IR Inten    --     16.8127                23.5079                 8.4530

                     61                     62                     63
                      A                      A                      A
 Frequencies --   1527.2484              1620.8688              1644.8909
 Red. masses --      1.0506                 5.3756                 5.8392
 Frc consts  --      1.4438                 8.3209                 9.3085
 IR Inten    --     11.1297                23.0212                19.1775

                     64                     65                     66
                      A                      A                      A
 Frequencies --   1685.2311              1785.5320              3057.7632
 Red. masses --      6.6710                11.5377                 1.0377
 Frc consts  --     11.1624                21.6723                 5.7168
 IR Inten    --    257.4652               215.7044                12.2864

                     67                     68                     69
                      A                      A                      A
 Frequencies --   3074.0448              3074.6899              3114.5800
 Red. masses --      1.0292                 1.0290                 1.0998
 Frc consts  --      5.7304                 5.7314                 6.2856
 IR Inten    --     67.6616                 8.4967                 9.6163

                     70                     71                     72
                      A                      A                      A
 Frequencies --   3147.8394              3156.4028              3162.3752
 Red. masses --      1.1074                 1.1072                 1.1013
 Frc consts  --      6.4652                 6.4993                 6.4893
 IR Inten    --     21.6752                15.6555                11.0529

                     73                     74                     75
                      A                      A                      A
 Frequencies --   3170.1425              3170.7235              3178.4011
 Red. masses --      1.0893                 1.1069                 1.1071
 Frc consts  --      6.4497                 6.5568                 6.5897
 IR Inten    --     28.3635                20.7817                19.5279

                     76                     77                     78
                      A                      A                      A
 Frequencies --   3190.9588              3213.5839              3237.9116
 Red. masses --      1.0895                 1.0966                 1.0905
 Frc consts  --      6.5361                 6.6722                 6.7360
 IR Inten    --     12.3231                21.6479                 1.5284

 - Thermochemistry -
 -------------------
 Temperature   298.150 Kelvin.  Pressure   1.00000 Atm.
 Atom     1 has atomic number  6 and mass  12.00000

 Molecular mass:   207.08954 amu.
 Principal axes and moments of inertia in atomic units:
                           1         2         3
     Eigenvalues --  2134.721963843.815564835.06297
           X            0.99959  -0.02857   0.00302
           Y            0.02859   0.99955  -0.00927
           Z           -0.00276   0.00935   0.99995
 This molecule is an asymmetric top.
 Rotational symmetry number  1.
 Warning -- assumption of classical behavior for rotation
           may cause significant error
 Rotational temperatures (Kelvin)      0.04057     0.02253     0.01791
 Rotational constants (GHZ):           0.84542     0.46952     0.37326
 Zero-point vibrational energy     596075.2 (Joules/Mol)
                                  142.46540 (Kcal/Mol)
 Warning -- explicit consideration of  23 degrees of freedom as
           vibrations may cause significant error
 Vibrational temperatures:     52.84    80.99   100.90   109.95   141.70
          (Kelvin)            179.65   206.66   211.03   246.75   261.13
                              337.22   384.98   402.54   453.55   481.24
                              516.89   577.64   673.01   711.40   772.18
                              802.65   838.81   893.07  1050.28  1083.56
                             1110.06  1138.55  1188.19  1239.59  1371.54
                             1377.86  1390.54  1398.07  1418.48  1447.78
                             1546.22  1557.87  1588.18  1637.24  1693.64
                             1699.70  1707.17  1750.11  1758.24  1807.51
                             1863.41  1871.89  1890.30  1917.62  2055.61
                             2070.26  2129.21  2147.02  2148.58  2164.25
                             2171.18  2174.84  2183.63  2194.72  2196.25
                             2197.37  2332.07  2366.63  2424.67  2568.98
                             4399.44  4422.86  4423.79  4481.19  4529.04
                             4541.36  4549.95  4561.13  4561.96  4573.01
                             4591.08  4623.63  4658.63

 Zero-point correction=                           0.227033 (Hartree/Particle)
 Thermal correction to Energy=                    0.242139
 Thermal correction to Enthalpy=                  0.243083
 Thermal correction to Gibbs Free Energy=         0.183901
 Sum of electronic and zero-point Energies=           -707.226499
 Sum of electronic and thermal Energies=              -707.211394
 Sum of electronic and thermal Enthalpies=            -707.210450
 Sum of electronic and thermal Free Energies=         -707.269631

                     E (Thermal)             CV                S
                      KCal/Mol        Cal/Mol-Kelvin    Cal/Mol-Kelvin
 Total                  151.944             54.183            124.558
 Electronic               0.000              0.000              0.000
 Translational            0.889              2.981             41.888
 Rotational               0.889              2.981             32.051
 Vibrational            150.167             48.221             50.620
 Vibration     1          0.594              1.982              5.428
 Vibration     2          0.596              1.975              4.583
 Vibration     3          0.598              1.968              4.150
 Vibration     4          0.599              1.965              3.981
 Vibration     5          0.604              1.950              3.484
 Vibration     6          0.610              1.928              3.024
 Vibration     7          0.616              1.910              2.755
 Vibration     8          0.617              1.906              2.715
 Vibration     9          0.626              1.878              2.419
 Vibration    10          0.630              1.865              2.313
 Vibration    11          0.654              1.788              1.845
 Vibration    12          0.673              1.733              1.612
 Vibration    13          0.680              1.711              1.535
 Vibration    14          0.703              1.645              1.335
 Vibration    15          0.716              1.607              1.238
 Vibration    16          0.734              1.556              1.125
 Vibration    17          0.767              1.467              0.957
 Vibration    18          0.825              1.322              0.744
 Vibration    19          0.850              1.262              0.672
 Vibration    20          0.892              1.169              0.572
 Vibration    21          0.913              1.123              0.528
 Vibration    22          0.940              1.068              0.480
 Vibration    23          0.981              0.988              0.415

                           ! Non-Optimized Parameters !
 Normal termination of Gaussian 16 at Thu Dec 10 16:06:40 2020.

 ----------------------------------------------------------------------
 # B3LYP/6-311++G(d,p) empiricaldispersion=gd3bj scf=xqc pop=npa geom=c
 heck
 ----------------------------------------------------------------------

 --------------------------------------
 CID_18632125_JID_5424_Energie_neutraal
 --------------------------------------
 Structure from the checkpoint file:  "JID_5424.chk"
 Charge =  0 Multiplicity = 1

 SCF Done:  E(RB3LYP) =  -707.651212106     A.U. after   16 cycles
 Normal termination of Gaussian 16 at Thu Dec 10 16:10:33 2020.

 ----------------------------------------------------------------------
 # B3LYP/6-311++G(d,p) empiricaldispersion=gd3bj scf=xqc pop=npa geom=c
 heck
 ----------------------------------------------------------------------

 ------------------------------------
 CID_18632125_JID_5424_Energie_kation
 ------------------------------------
 Structure from the checkpoint file:  "JID_5424.chk"
 Charge =  1 Multiplicity = 2

 SCF Done:  E(UB3LYP) =  -707.341626668     A.U. after   27 cycles
 Normal termination of Gaussian 16 at Thu Dec 10 16:19:51 2020.
 Gaussian 16:  ES64L-G16RevA.03 25-Dec-2016

 ----------------------------------------------------------------------
 # B3LYP/6-311++G(d,p) empiricaldispersion=gd3bj scf=xqc pop=npa geom=c
 heck
 ----------------------------------------------------------------------

 -----------------------------------
 CID_18632125_JID_5424_Energie_anion
 -----------------------------------
 Structure from the checkpoint file:  "JID_5424.chk"
 Charge = -1 Multiplicity = 2

                         Standard orientation:
 ---------------------------------------------------------------------
 Center     Atomic      Atomic             Coordinates (Angstroms)
 Number     Number       Type             X           Y           Z
 ---------------------------------------------------------------------
      1          6           0       -0.530771   -1.216987    2.045810
      2          6           0       -1.286070   -0.899426    0.783031
      3          6           0       -0.712632   -0.110754   -0.238078
      4          6           0       -1.462399    0.110848   -1.394908
      5          6           0       -2.745925   -0.420341   -1.499843
      6          6           0       -3.228122   -1.167592   -0.429036
      7          7           0       -2.524013   -1.405307    0.683806
      8          6           0        0.659964    0.454795   -0.122197
      9          6           0        0.985753    1.762780    0.024721
     10          8           0        0.229249    2.848455    0.232354
     11          6           0       -1.158457    2.743879    0.569422
     12          6           0        1.759486   -0.530772   -0.250107
     13          8           0        1.585961   -1.727604   -0.388409
     14          8           0        2.999764    0.021833   -0.191188
     15          6           0        4.081690   -0.909941   -0.317395
     16          1           0       -1.214314   -1.645885    2.780740
     17          1           0        0.263742   -1.941071    1.833380
     18          1           0       -0.051741   -0.325239    2.465635
     19          1           0       -1.032803    0.696020   -2.203572
     20          1           0       -3.352714   -0.261877   -2.385900
     21          1           0       -4.227370   -1.598766   -0.460414
     22          1           0        2.029953    2.052593   -0.010239
     23          1           0       -1.761956    2.477803   -0.301270
     24          1           0       -1.312836    2.000471    1.355856
     25          1           0       -1.438857    3.734793    0.929941
     26          1           0        4.990842   -0.311447   -0.250936
     27          1           0        4.048244   -1.649735    0.486782
     28          1           0        4.033012   -1.430926   -1.277237
 ---------------------------------------------------------------------

 SCF Done:  E(UB3LYP) =  -707.642700156     A.U. after   33 cycles
 SCF Done:  E(UB3LYP) =  -707.642700157     a.u. after    2 cycles

 The electronic state is 2-A.
 Alpha  occ. eigenvalues --  -19.03978 -19.03690 -18.96391 -14.18952 -10.15392
 Alpha  occ. eigenvalues --  -10.11231 -10.10562 -10.09771 -10.09021 -10.08976
 Alpha  occ. eigenvalues --  -10.07173 -10.06912 -10.06405 -10.04722 -10.04187
 Alpha  occ. eigenvalues --   -0.97435  -0.95390  -0.88130  -0.82606  -0.70431
 Alpha  occ. eigenvalues --   -0.67700  -0.65092  -0.61652  -0.59396  -0.57295
 Alpha  occ. eigenvalues --   -0.51513  -0.48918  -0.47830  -0.43866  -0.40711
 Alpha  occ. eigenvalues --   -0.39962  -0.38215  -0.37640  -0.36197  -0.35290
 Alpha  occ. eigenvalues --   -0.35066  -0.33450  -0.31614  -0.30863  -0.29895
 Alpha  occ. eigenvalues --   -0.29618  -0.28118  -0.27690  -0.26106  -0.25982
 Alpha  occ. eigenvalues --   -0.24533  -0.24151  -0.23804  -0.21785  -0.18279
 Alpha  occ. eigenvalues --   -0.16911  -0.14817  -0.14589  -0.13797  -0.11331
 Alpha  occ. eigenvalues --    0.05050
 Alpha virt. eigenvalues --    0.07037   0.07244   0.07975   0.08269   0.09307
 Alpha virt. eigenvalues --    0.09523   0.09956   0.10408   0.11023   0.11516
 Alpha virt. eigenvalues --    0.12183   0.12556   0.13113   0.13869   0.14234

  Beta  occ. eigenvalues --  -19.03869 -19.03669 -18.96216 -14.18952 -10.15224
  Beta  occ. eigenvalues --  -10.11215 -10.10526 -10.09414 -10.08947 -10.08916
  Beta  occ. eigenvalues --  -10.07174 -10.06905 -10.06347 -10.04741 -10.04191
  Beta  occ. eigenvalues --   -0.97285  -0.95110  -0.87880  -0.82521  -0.70298
  Beta  occ. eigenvalues --   -0.67553  -0.64838  -0.61471  -0.59325  -0.57219
  Beta  occ. eigenvalues --   -0.51374  -0.48801  -0.47452  -0.43752  -0.40599
  Beta  occ. eigenvalues --   -0.39823  -0.38080  -0.37503  -0.36007  -0.34987
  Beta  occ. eigenvalues --   -0.34949  -0.33291  -0.31465  -0.30708  -0.29789
  Beta  occ. eigenvalues --   -0.29572  -0.27806  -0.27330  -0.26060  -0.25801
  Beta  occ. eigenvalues --   -0.24444  -0.23998  -0.23190  -0.21544  -0.17809
  Beta  occ. eigenvalues --   -0.16718  -0.14701  -0.14416  -0.13455  -0.10535
  Beta virt. eigenvalues --    0.07213   0.07535   0.08295   0.08529   0.09081
  Beta virt. eigenvalues --    0.09395   0.09986   0.10486   0.10964   0.11089
  Beta virt. eigenvalues --    0.11638   0.12345   0.12851   0.13369   0.13878

 Mulliken charges and spin densities:
               1          2
     1  C    0.314662  -0.978996
     2  C   -0.667151   0.125592
     3  C    0.438493   0.724312
     4  C    0.257037  -0.397326
     5  C   -0.341904   0.003513
     6  C    0.025265  -0.061091
     7  N   -0.062519   0.071259
     8  C    0.526528  -0.172489
     9  C   -0.673623   0.690966
    10  O   -0.144257   0.033373
    11  C    0.564492  -1.005030
    12  C   -0.860270   0.029639
    13  O   -0.315760   0.055735
    14  O   -0.125975   0.023549
    15  C    0.267635  -0.525879
    16  H    0.134680   0.017690
    17  H    0.072804   0.119612
    18  H    0.080597   0.051569
    19  H    0.145114   0.054878
    20  H    0.033134   0.105102
    21  H    0.112339   0.047715
    22  H    0.078890   0.124032
    23  H    0.095732   0.077997
    24  H   -0.162480   0.359148
    25  H   -0.701482   0.880608
    26  H   -0.132971   0.258896
    27  H    0.035086   0.125979
    28  H    0.005903   0.159647
 Sum of Mulliken charges =  -1.00000   1.00000

 Dipole moment (field-independent basis, Debye):
    X=             -0.0378    Y=             -1.2100    Z=             -2.1659  Tot=              2.4812
 Quadrupole moment (field-independent basis, Debye-Ang):
   XX=           -129.9348   YY=           -135.5019   ZZ=           -106.1624
   XY=              5.2799   XZ=              6.3774   YZ=             -5.4762

 Summary of Natural Population Analysis:

                                       Natural Population
                Natural  -----------------------------------------------
    Atom  No    Charge         Core      Valence    Rydberg      Total
 -----------------------------------------------------------------------
      C    1   -0.30555      0.99963     2.30118    0.00474     3.30555
      C    2    0.14023      0.99949     1.84556    0.01471     2.85977
      C    3   -0.03036      0.99945     2.01902    0.01189     3.03036
      C    4   -0.08139      0.99951     2.07219    0.00969     3.08139
      C    5   -0.12474      0.99955     2.11580    0.00940     3.12474
      C    6    0.02555      0.99959     1.96081    0.01405     2.97445
      N    7   -0.24652      0.99968     2.73524    0.01160     3.74652
      C    8   -0.15652      0.99944     2.14514    0.01195     3.15652
      C    9    0.19423      0.99941     1.79199    0.01436     2.80577
      O   10   -0.25983      0.99986     3.25005    0.00991     4.25983
      C   11   -0.10070      0.99959     2.09229    0.00881     3.10070
      C   12    0.41706      0.99963     1.55950    0.02381     2.58294
      O   13   -0.30948      0.99987     3.30400    0.00560     4.30948
      O   14   -0.28867      0.99986     3.28038    0.00843     4.28867
      C   15   -0.10092      0.99960     2.09283    0.00850     3.10092
      H   16    0.10327      0.00000     0.39540    0.00133     0.39673
      H   17    0.11684      0.00000     0.38184    0.00132     0.38316
      H   18    0.10477      0.00000     0.39415    0.00108     0.39523
      H   19    0.10094      0.00000     0.39783    0.00123     0.39906
      H   20    0.09820      0.00000     0.40098    0.00082     0.40180
      H   21    0.08381      0.00000     0.41518    0.00101     0.41619
      H   22    0.09124      0.00000     0.40723    0.00153     0.40876
      H   23    0.08668      0.00000     0.41201    0.00130     0.41332
      H   24    0.09150      0.00000     0.40664    0.00186     0.40850
      H   25    0.08985      0.00000     0.40848    0.00167     0.41015
      H   26    0.08516      0.00000     0.41346    0.00138     0.41484
      H   27    0.08774      0.00000     0.41060    0.00167     0.41226
      H   28    0.08760      0.00000     0.41079    0.00161     0.41240
 =======================================================================
   * Total *    0.00000     14.99417    39.82059    0.18524    55.00000

 Normal termination of Gaussian 16 at Thu Dec 10 16:50:18 2020.
