 Gaussian 16, Revision A.03,

 -----------------------------------------------------------
 # opt freq B3LYP/6-31G(d) empiricaldispersion=gd3bj scf=xqc
 -----------------------------------------------------------

 -------------------------------
 CID_143794309_JID_1386_neutraal
 -------------------------------
 Symbolic Z-matrix:
 Charge =  0 Multiplicity = 1

 SCF Done:  E(RB3LYP) =  -444.874902536     A.U. after   14 cycles
 SCF Done:  E(RB3LYP) =  -444.865786396     A.U. after   14 cycles
 SCF Done:  E(RB3LYP) =  -444.877072981     A.U. after   12 cycles
 SCF Done:  E(RB3LYP) =  -444.876425391     A.U. after   14 cycles
 SCF Done:  E(RB3LYP) =  -444.877690139     A.U. after   12 cycles
 SCF Done:  E(RB3LYP) =  -444.877824635     A.U. after   11 cycles
 SCF Done:  E(RB3LYP) =  -444.877814071     A.U. after   11 cycles
 SCF Done:  E(RB3LYP) =  -444.877902063     A.U. after   11 cycles
 SCF Done:  E(RB3LYP) =  -444.877918261     A.U. after    9 cycles
 SCF Done:  E(RB3LYP) =  -444.877931714     A.U. after   10 cycles
 SCF Done:  E(RB3LYP) =  -444.878219865     A.U. after    9 cycles
 SCF Done:  E(RB3LYP) =  -444.878220696     A.U. after    9 cycles
 SCF Done:  E(RB3LYP) =  -444.878220830     A.U. after    9 cycles
 SCF Done:  E(RB3LYP) =  -444.878221115     A.U. after    7 cycles
 SCF Done:  E(RB3LYP) =  -444.878221266     A.U. after    7 cycles
 SCF Done:  E(RB3LYP) =  -444.878221260     A.U. after    7 cycles
 Optimization completed on the basis of negligible forces.
    -- Stationary point found.
 Normal termination of Gaussian 16 at Tue Dec  8 20:14:35 2020.

 --------------------------------------------------------------------
 #N Geom=AllCheck Guess=TCheck SCRF=Check GenChk RB3LYP/6-31G(d) Freq
 --------------------------------------------------------------------

 Structure from the checkpoint file:  "JID_1386.chk"
 -------------------------------
 CID_143794309_JID_1386_neutraal
 -------------------------------
 Charge =  0 Multiplicity = 1

 SCF Done:  E(RB3LYP) =  -444.878221260     A.U. after    1 cycles

  Exact polarizability: 106.158  26.535 129.065 -22.958  10.881  95.900
 Approx polarizability: 161.540  50.126 201.288 -46.615  17.905 152.795

                      1                      2                      3
                      A                      A                      A
 Frequencies --     22.5101                34.4942                45.7562
 Red. masses --      2.0004                 2.2307                 2.3969
 Frc consts  --      0.0006                 0.0016                 0.0030
 IR Inten    --      0.1286                 0.0193                 0.2363

                      4                      5                      6
                      A                      A                      A
 Frequencies --     52.8430                84.2298                98.9210
 Red. masses --      2.2812                 3.2140                 2.8266
 Frc consts  --      0.0038                 0.0134                 0.0163
 IR Inten    --      0.0044                 0.2480                 1.4785

                      7                      8                      9
                      A                      A                      A
 Frequencies --    119.5456               152.3042               180.2620
 Red. masses --      1.6580                 2.4640                 1.1406
 Frc consts  --      0.0140                 0.0337                 0.0218
 IR Inten    --      0.0880                 0.9675                 0.7907

                     10                     11                     12
                      A                      A                      A
 Frequencies --    228.3398               271.1789               322.5900
 Red. masses --      3.0894                 2.4280                 1.0141
 Frc consts  --      0.0949                 0.1052                 0.0622
 IR Inten    --      0.8622                 4.3355                 0.3188

                     13                     14                     15
                      A                      A                      A
 Frequencies --    340.1412               450.3464               496.7471
 Red. masses --      2.9205                 3.2065                 4.2225
 Frc consts  --      0.1991                 0.3832                 0.6139
 IR Inten    --      0.3516                 0.1207                 1.5436

                     16                     17                     18
                      A                      A                      A
 Frequencies --    499.8166               532.9842               611.3944
 Red. masses --      2.5103                 3.7243                 5.0763
 Frc consts  --      0.3695                 0.6233                 1.1180
 IR Inten    --      1.0289                 0.7093                 3.5955

                     19                     20                     21
                      A                      A                      A
 Frequencies --    658.6408               752.6640               801.3264
 Red. masses --      2.0001                 3.8501                 1.3751
 Frc consts  --      0.5112                 1.2851                 0.5202
 IR Inten    --      0.1746                 2.0997                10.1925

                     22                     23                     24
                      A                      A                      A
 Frequencies --    824.0523               834.8935               839.8771
 Red. masses --      3.1698                 1.0569                 1.0598
 Frc consts  --      1.2682                 0.4341                 0.4404
 IR Inten    --     29.0963                 3.3586                 8.8113

                     25                     26                     27
                      A                      A                      A
 Frequencies --    861.4710               956.3798               963.1572
 Red. masses --      4.6691                 1.3271                 1.3983
 Frc consts  --      2.0416                 0.7152                 0.7643
 IR Inten    --      0.3321                 0.1334                24.6798

                     28                     29                     30
                      A                      A                      A
 Frequencies --    982.4052              1012.9809              1023.0296
 Red. masses --      1.3424                 3.2669                 1.5409
 Frc consts  --      0.7633                 1.9751                 0.9502
 IR Inten    --      1.0044                 0.0968                 7.6268

                     31                     32                     33
                      A                      A                      A
 Frequencies --   1032.4750              1053.1257              1077.0724
 Red. masses --      1.0776                 1.7215                 1.5187
 Frc consts  --      0.6768                 1.1249                 1.0380
 IR Inten    --     20.0980                 0.9932                 2.9358

                     34                     35                     36
                      A                      A                      A
 Frequencies --   1109.8995              1138.3552              1199.2515
 Red. masses --      1.9359                 2.1442                 1.6435
 Frc consts  --      1.4051                 1.6371                 1.3926
 IR Inten    --      1.3184                15.3534                 1.6512

                     37                     38                     39
                      A                      A                      A
 Frequencies --   1237.8657              1239.2703              1271.2955
 Red. masses --      1.4633                 1.4599                 2.5463
 Frc consts  --      1.3211                 1.3210                 2.4247
 IR Inten    --      0.0295                 0.6554                 2.2519

                     40                     41                     42
                      A                      A                      A
 Frequencies --   1310.2577              1328.9396              1358.4609
 Red. masses --      5.7240                 1.6713                 1.3897
 Frc consts  --      5.7898                 1.7390                 1.5110
 IR Inten    --      5.1934                 0.5267                 1.1687

                     43                     44                     45
                      A                      A                      A
 Frequencies --   1432.8028              1445.4934              1448.8979
 Red. masses --      1.1988                 1.2705                 1.4468
 Frc consts  --      1.4500                 1.5640                 1.7896
 IR Inten    --      0.6596                 3.0501                 7.9216

                     46                     47                     48
                      A                      A                      A
 Frequencies --   1454.9871              1484.9218              1500.4551
 Red. masses --      1.2538                 2.0201                 2.1342
 Frc consts  --      1.5638                 2.6244                 2.8310
 IR Inten    --      0.8348                41.4079                 8.8669

                     49                     50                     51
                      A                      A                      A
 Frequencies --   1518.1279              1529.5832              1532.6882
 Red. masses --      1.0438                 1.0201                 1.1230
 Frc consts  --      1.4174                 1.4062                 1.5543
 IR Inten    --      5.7926                 3.1012                 9.5554

                     52                     53                     54
                      A                      A                      A
 Frequencies --   1534.0792              1537.7327              1540.4643
 Red. masses --      1.0769                 1.0464                 1.0613
 Frc consts  --      1.4933                 1.4579                 1.4838
 IR Inten    --      7.0270                 9.3484                10.7094

                     55                     56                     57
                      A                      A                      A
 Frequencies --   1617.5956              1646.8833              1711.6219
 Red. masses --      5.4508                 5.5206                 4.5697
 Frc consts  --      8.4034                 8.8219                 7.8878
 IR Inten    --     21.0131                18.5918                 1.6882

                     58                     59                     60
                      A                      A                      A
 Frequencies --   3047.2508              3048.2741              3050.1220
 Red. masses --      1.0372                 1.0373                 1.0375
 Frc consts  --      5.6746                 5.6788                 5.6869
 IR Inten    --     20.8405                24.9142                28.7309

                     61                     62                     63
                      A                      A                      A
 Frequencies --   3097.9345              3101.6422              3105.9303
 Red. masses --      1.1016                 1.1011                 1.0998
 Frc consts  --      6.2292                 6.2412                 6.2510
 IR Inten    --     12.7864                16.4795                15.1241

                     64                     65                     66
                      A                      A                      A
 Frequencies --   3127.0422              3129.5506              3136.8194
 Red. masses --      1.1012                 1.1013                 1.1016
 Frc consts  --      6.3442                 6.3552                 6.3863
 IR Inten    --     18.0479                48.6067                47.3663

                     67                     68                     69
                      A                      A                      A
 Frequencies --   3169.1951              3176.9522              3183.7286
 Red. masses --      1.0890                 1.0580                 1.0896
 Frc consts  --      6.4446                 6.2915                 6.5070
 IR Inten    --     23.6902                 5.5673                19.9531

                     70                     71                     72
                      A                      A                      A
 Frequencies --   3199.6590              3214.5553              3268.8315
 Red. masses --      1.0904                 1.0959                 1.1166
 Frc consts  --      6.5775                 6.6723                 7.0294
 IR Inten    --     15.5519                20.5953                 7.5817

 - Thermochemistry -
 -------------------
 Temperature   298.150 Kelvin.  Pressure   1.00000 Atm.
 Atom     1 has atomic number  6 and mass  12.00000

 Molecular mass:   149.12045 amu.
 Principal axes and moments of inertia in atomic units:
                           1         2         3
     Eigenvalues --  1726.208671930.331932442.40010
           X            0.99629  -0.08420  -0.01786
           Y            0.08432   0.99642   0.00620
           Z            0.01727  -0.00768   0.99982
 This molecule is an asymmetric top.
 Rotational symmetry number  1.
 Warning -- assumption of classical behavior for rotation
           may cause significant error
 Rotational temperatures (Kelvin)      0.05018     0.04487     0.03546
 Rotational constants (GHZ):           1.04549     0.93494     0.73892
 Zero-point vibrational energy     594576.2 (Joules/Mol)
                                  142.10712 (Kcal/Mol)
 Warning -- explicit consideration of  18 degrees of freedom as
           vibrations may cause significant error
 Vibrational temperatures:     32.39    49.63    65.83    76.03   121.19
          (Kelvin)            142.33   172.00   219.13   259.36   328.53
                              390.17   464.13   489.39   647.95   714.71
                              719.12   766.85   879.66   947.64  1082.92
                             1152.93  1185.63  1201.23  1208.40  1239.46
                             1376.02  1385.77  1413.46  1457.45  1471.91
                             1485.50  1515.21  1549.67  1596.90  1637.84
                             1725.46  1781.01  1783.03  1829.11  1885.17
                             1912.05  1954.52  2061.48  2079.74  2084.64
                             2093.40  2136.47  2158.82  2184.25  2200.73
                             2205.20  2207.20  2212.45  2216.38  2327.36
                             2369.50  2462.64  4384.31  4385.79  4388.45
                             4457.24  4462.57  4468.74  4499.12  4502.73
                             4513.18  4559.76  4570.93  4580.68  4603.60
                             4625.03  4703.12

 Zero-point correction=                           0.226462 (Hartree/Particle)
 Thermal correction to Energy=                    0.240027
 Thermal correction to Enthalpy=                  0.240971
 Thermal correction to Gibbs Free Energy=         0.183843
 Sum of electronic and zero-point Energies=           -444.651759
 Sum of electronic and thermal Energies=              -444.638194
 Sum of electronic and thermal Enthalpies=            -444.637250
 Sum of electronic and thermal Free Energies=         -444.694378

                     E (Thermal)             CV                S
                      KCal/Mol        Cal/Mol-Kelvin    Cal/Mol-Kelvin
 Total                  150.619             46.560            120.236
 Electronic               0.000              0.000              0.000
 Translational            0.889              2.981             40.909
 Rotational               0.889              2.981             30.477
 Vibrational            148.842             40.598             48.850
 Vibration     1          0.593              1.985              6.399
 Vibration     2          0.594              1.983              5.553
 Vibration     3          0.595              1.979              4.993
 Vibration     4          0.596              1.976              4.708
 Vibration     5          0.601              1.960              3.790
 Vibration     6          0.604              1.950              3.475
 Vibration     7          0.609              1.933              3.108
 Vibration     8          0.619              1.900              2.643
 Vibration     9          0.629              1.866              2.326
 Vibration    10          0.651              1.798              1.892
 Vibration    11          0.675              1.726              1.589
 Vibration    12          0.708              1.630              1.297
 Vibration    13          0.720              1.595              1.211
 Vibration    14          0.809              1.360              0.795
 Vibration    15          0.852              1.257              0.666
 Vibration    16          0.855              1.250              0.659
 Vibration    17          0.888              1.177              0.581
 Vibration    18          0.971              1.008              0.430

 Optimization completed on the basis of negligible forces.
    -- Stationary point found.
 Normal termination of Gaussian 16 at Tue Dec  8 20:20:44 2020.

 ----------------------------------------------------------------------
 # B3LYP/6-311++G(d,p) empiricaldispersion=gd3bj scf=xqc pop=npa geom=c
 heck
 ----------------------------------------------------------------------

 ---------------------------------------
 CID_143794309_JID_1386_Energie_neutraal
 ---------------------------------------
 Structure from the checkpoint file:  "JID_1386.chk"
 Charge =  0 Multiplicity = 1

 SCF Done:  E(RB3LYP) =  -444.998814485     A.U. after   14 cycles
 Normal termination of Gaussian 16 at Tue Dec  8 20:23:37 2020.

 ----------------------------------------------------------------------
 # B3LYP/6-311++G(d,p) empiricaldispersion=gd3bj scf=xqc pop=npa geom=c
 heck
 ----------------------------------------------------------------------

 -------------------------------------
 CID_143794309_JID_1386_Energie_kation
 -------------------------------------
 Structure from the checkpoint file:  "JID_1386.chk"
 Charge =  1 Multiplicity = 2

 SCF Done:  E(UB3LYP) =  -444.693168270     A.U. after   22 cycles
 Normal termination of Gaussian 16 at Tue Dec  8 20:30:23 2020.
 Gaussian 16:  ES64L-G16RevA.03 25-Dec-2016

 ----------------------------------------------------------------------
 # B3LYP/6-311++G(d,p) empiricaldispersion=gd3bj scf=xqc pop=npa geom=c
 heck
 ----------------------------------------------------------------------

 ------------------------------------
 CID_143794309_JID_1386_Energie_anion
 ------------------------------------
 Structure from the checkpoint file:  "JID_1386.chk"
 Charge = -1 Multiplicity = 2

                         Standard orientation:
 ---------------------------------------------------------------------
 Center     Atomic      Atomic             Coordinates (Angstroms)
 Number     Number       Type             X           Y           Z
 ---------------------------------------------------------------------
      1          6           0        2.853994   -0.619784    0.637020
      2          6           0        1.947984   -1.694985    1.239218
      3          6           0       -1.962057    0.999620    1.650744
      4          6           0       -1.409244    0.211516    0.488395
      5          6           0       -0.382405    0.713984   -0.344774
      6          7           0        0.113966    0.008039   -1.379208
      7          6           0       -0.374559   -1.205464   -1.624775
      8          6           0       -1.386067   -1.792723   -0.864155
      9          6           0       -1.902869   -1.063603    0.201910
     10          6           0        0.202636    2.045492   -0.108656
     11          6           0        1.172746    2.582282   -0.857401
     12          1           0        3.897783   -0.953403    0.598074
     13          1           0        2.535924   -0.366894   -0.378906
     14          1           0        2.820326    0.303723    1.225989
     15          1           0        0.908337   -1.354949    1.284895
     16          1           0        1.965683   -2.612048    0.639006
     17          1           0        2.259016   -1.959494    2.257019
     18          1           0       -1.186377    1.228872    2.390964
     19          1           0       -2.394639    1.953952    1.328090
     20          1           0       -2.748383    0.434151    2.159520
     21          1           0        0.063445   -1.736570   -2.468227
     22          1           0       -1.752398   -2.786805   -1.100096
     23          1           0       -2.691522   -1.481960    0.822638
     24          1           0       -0.191754    2.607556    0.732888
     25          1           0        1.572480    3.567718   -0.638806
     26          1           0        1.583368    2.041869   -1.703753
 ---------------------------------------------------------------------

 SCF Done:  E(UB3LYP) =  -444.996757985     A.U. after   32 cycles

 The electronic state is 2-A.
 Alpha  occ. eigenvalues --  -14.12028 -10.04022 -10.03724 -10.02904 -10.02522
 Alpha  occ. eigenvalues --  -10.02307 -10.02283 -10.01613 -10.00279  -9.99207
 Alpha  occ. eigenvalues --   -9.97796  -0.76961  -0.65373  -0.62803  -0.62123
 Alpha  occ. eigenvalues --   -0.58200  -0.54246  -0.48468  -0.47416  -0.44456
 Alpha  occ. eigenvalues --   -0.39689  -0.35143  -0.32671  -0.30701  -0.30458
 Alpha  occ. eigenvalues --   -0.29647  -0.28826  -0.27468  -0.25768  -0.25298
 Alpha  occ. eigenvalues --   -0.23942  -0.22839  -0.22705  -0.21505  -0.21332
 Alpha  occ. eigenvalues --   -0.21216  -0.17627  -0.14548  -0.11825  -0.08617
 Alpha  occ. eigenvalues --   -0.07302   0.06239
 Alpha virt. eigenvalues --    0.08788   0.09635   0.09996   0.10898   0.11668
 Alpha virt. eigenvalues --    0.11878   0.12595   0.12903   0.13374   0.13890
 Alpha virt. eigenvalues --    0.14360   0.15102   0.15634   0.16950   0.17473

  Beta  occ. eigenvalues --  -14.11671 -10.04111 -10.03720 -10.02902 -10.02574
  Beta  occ. eigenvalues --  -10.02300 -10.01984 -10.01464 -10.00019  -9.99185
  Beta  occ. eigenvalues --   -9.97375  -0.76397  -0.65089  -0.62281  -0.62102
  Beta  occ. eigenvalues --   -0.57735  -0.53984  -0.48457  -0.46630  -0.44300
  Beta  occ. eigenvalues --   -0.39154  -0.35005  -0.32459  -0.30639  -0.30450
  Beta  occ. eigenvalues --   -0.29407  -0.28714  -0.27291  -0.25661  -0.25138
  Beta  occ. eigenvalues --   -0.23862  -0.22513  -0.21887  -0.21347  -0.21201
  Beta  occ. eigenvalues --   -0.21126  -0.17378  -0.12785  -0.10679  -0.08178
  Beta  occ. eigenvalues --   -0.05487
  Beta virt. eigenvalues --    0.08719   0.09555   0.09930   0.10815   0.11499
  Beta virt. eigenvalues --    0.11780   0.12163   0.12696   0.12988   0.13451
  Beta virt. eigenvalues --    0.13947   0.14284   0.15010   0.15631   0.16923

 Mulliken charges and spin densities:
               1          2
     1  C   -0.371226  -0.030906
     2  C   -0.319415  -0.031674
     3  C   -0.623665   0.006522
     4  C    0.117828  -0.030913
     5  C    0.214744   0.235605
     6  N   -0.033453   0.177486
     7  C    0.019623  -0.047123
     8  C   -0.455728   0.217330
     9  C    0.017058   0.112058
    10  C   -0.339900  -0.095680
    11  C   -0.856658   0.466091
    12  H    0.094260   0.000489
    13  H    0.119964   0.027733
    14  H    0.100897   0.012415
    15  H    0.170155   0.006294
    16  H    0.064237   0.021600
    17  H    0.094513  -0.002223
    18  H    0.129957   0.014388
    19  H    0.128903   0.007675
    20  H    0.114135  -0.001497
    21  H    0.131305   0.007200
    22  H    0.096870  -0.016015
    23  H    0.105304  -0.009787
    24  H    0.108868  -0.004930
    25  H    0.072845  -0.019335
    26  H    0.098579  -0.022803
 Sum of Mulliken charges =  -1.00000   1.00000

 Dipole moment (field-independent basis, Debye):
    X=             -0.8403    Y=             -2.4295    Z=              3.1436  Tot=              4.0609
 Quadrupole moment (field-independent basis, Debye-Ang):
   XX=            -88.4411   YY=            -91.9857   ZZ=            -83.7567
   XY=             -4.1300   XZ=             -1.4806   YZ=              5.3465

 Summary of Natural Population Analysis:

                                       Natural Population
                Natural  -----------------------------------------------
    Atom  No    Charge         Core      Valence    Rydberg      Total
 -----------------------------------------------------------------------
      C    1   -0.28911      0.99968     2.28492    0.00450     3.28911
      C    2   -0.28691      0.99968     2.28299    0.00425     3.28691
      C    3   -0.28953      0.99965     2.28532    0.00457     3.28953
      C    4   -0.04530      0.99948     2.03722    0.00860     3.04530
      C    5    0.13306      0.99947     1.85197    0.01550     2.86694
      N    6   -0.19758      0.99968     2.68309    0.01481     3.69758
      C    7    0.00330      0.99960     1.98271    0.01439     2.99670
      C    8   -0.09563      0.99956     2.08621    0.00986     3.09563
      C    9   -0.07295      0.99952     2.06439    0.00903     3.07295
      C   10   -0.12677      0.99955     2.11758    0.00963     3.12677
      C   11   -0.09147      0.99959     2.08367    0.00821     3.09147
      H   12    0.08016      0.00000     0.41882    0.00102     0.41984
      H   13    0.11416      0.00000     0.38445    0.00139     0.38584
      H   14    0.09720      0.00000     0.40184    0.00095     0.40280
      H   15    0.10959      0.00000     0.38924    0.00116     0.39041
      H   16    0.09091      0.00000     0.40812    0.00098     0.40909
      H   17    0.08209      0.00000     0.41688    0.00103     0.41791
      H   18    0.09848      0.00000     0.40038    0.00114     0.40152
      H   19    0.09838      0.00000     0.40043    0.00118     0.40162
      H   20    0.09260      0.00000     0.40635    0.00105     0.40740
      H   21    0.07629      0.00000     0.42229    0.00141     0.42371
      H   22    0.08711      0.00000     0.41159    0.00130     0.41289
      H   23    0.08435      0.00000     0.41411    0.00154     0.41565
      H   24    0.08238      0.00000     0.41607    0.00155     0.41762
      H   25    0.07400      0.00000     0.42489    0.00112     0.42600
      H   26    0.09120      0.00000     0.40763    0.00117     0.40880
 =======================================================================
   * Total *    0.00000     10.99548    29.88316    0.12137    41.00000

 Normal termination of Gaussian 16 at Tue Dec  8 20:39:18 2020.
