 Gaussian 16, Revision A.03,

 -----------------------------------------------------------
 # opt freq B3LYP/6-31G(d) empiricaldispersion=gd3bj scf=xqc
 -----------------------------------------------------------

 -------------------------------
 CID_113877293_JID_8390_neutraal
 -------------------------------
 Symbolic Z-matrix:
 Charge =  0 Multiplicity = 1

 SCF Done:  E(RB3LYP) =  -788.261940618     A.U. after   15 cycles
 SCF Done:  E(RB3LYP) =  -788.266176341     A.U. after   12 cycles
 SCF Done:  E(RB3LYP) =  -788.266649375     A.U. after   12 cycles
 SCF Done:  E(RB3LYP) =  -788.266951235     A.U. after   12 cycles
 SCF Done:  E(RB3LYP) =  -788.267048522     A.U. after   11 cycles
 SCF Done:  E(RB3LYP) =  -788.267190261     A.U. after   12 cycles
 SCF Done:  E(RB3LYP) =  -788.267372385     A.U. after   11 cycles
 SCF Done:  E(RB3LYP) =  -788.267420281     A.U. after   12 cycles
 SCF Done:  E(RB3LYP) =  -788.267461232     A.U. after   10 cycles
 SCF Done:  E(RB3LYP) =  -788.267494775     A.U. after   11 cycles
 SCF Done:  E(RB3LYP) =  -788.267561022     A.U. after   10 cycles
 SCF Done:  E(RB3LYP) =  -788.267561814     A.U. after    9 cycles
 SCF Done:  E(RB3LYP) =  -788.267561665     A.U. after    8 cycles
 SCF Done:  E(RB3LYP) =  -788.267561836     A.U. after    9 cycles
 SCF Done:  E(RB3LYP) =  -788.267562034     A.U. after    9 cycles
 SCF Done:  E(RB3LYP) =  -788.267562027     A.U. after    7 cycles
 Optimization completed.
    -- Stationary point found.
 Normal termination of Gaussian 16 at Fri Dec 11 20:49:49 2020.

 --------------------------------------------------------------------
 #N Geom=AllCheck Guess=TCheck SCRF=Check GenChk RB3LYP/6-31G(d) Freq
 --------------------------------------------------------------------

 Structure from the checkpoint file:  "JID_8390.chk"
 -------------------------------
 CID_113877293_JID_8390_neutraal
 -------------------------------
 Charge =  0 Multiplicity = 1

 SCF Done:  E(RB3LYP) =  -788.267562027     A.U. after    1 cycles

  Exact polarizability: 200.673 -18.454 158.796 -23.028  -9.660 132.094
 Approx polarizability: 282.746 -43.923 238.513 -49.880 -21.081 214.196

                      1                      2                      3
                      A                      A                      A
 Frequencies --     13.3447                22.9228                40.8837
 Red. masses --      3.8726                 3.9765                 3.5381
 Frc consts  --      0.0004                 0.0012                 0.0035
 IR Inten    --      0.1926                 0.3939                 0.7138

                      4                      5                      6
                      A                      A                      A
 Frequencies --     44.5909                54.8361                87.1339
 Red. masses --      2.3962                 2.5492                 4.1759
 Frc consts  --      0.0028                 0.0045                 0.0187
 IR Inten    --      0.1734                 4.4230                 2.7991

                      7                      8                      9
                      A                      A                      A
 Frequencies --    129.2373               133.8640               151.6426
 Red. masses --      4.6541                 2.6919                 1.9739
 Frc consts  --      0.0458                 0.0284                 0.0267
 IR Inten    --      5.0558                 1.9496                 0.4441

                     10                     11                     12
                      A                      A                      A
 Frequencies --    159.6859               191.8349               222.6201
 Red. masses --      4.0316                 2.8141                 3.8751
 Frc consts  --      0.0606                 0.0610                 0.1132
 IR Inten    --      3.3647                 1.2709                 2.3883

                     13                     14                     15
                      A                      A                      A
 Frequencies --    252.5133               266.6034               294.5837
 Red. masses --      1.9730                 3.2538                 2.8032
 Frc consts  --      0.0741                 0.1363                 0.1433
 IR Inten    --      2.6428                 8.9439                 0.9102

                     16                     17                     18
                      A                      A                      A
 Frequencies --    323.5567               381.8190               388.5019
 Red. masses --      4.0662                 6.6896                 5.3587
 Frc consts  --      0.2508                 0.5746                 0.4765
 IR Inten    --      1.6103                 0.7963                 1.2562

                     19                     20                     21
                      A                      A                      A
 Frequencies --    396.9947               437.7842               453.6179
 Red. masses --      2.7216                 3.3726                 2.3410
 Frc consts  --      0.2527                 0.3808                 0.2838
 IR Inten    --      1.5154                 2.6957                 4.0405

                     22                     23                     24
                      A                      A                      A
 Frequencies --    477.2958               557.9399               562.3540
 Red. masses --      5.8679                 5.5630                 1.9079
 Frc consts  --      0.7876                 1.0203                 0.3555
 IR Inten    --      5.0629                 7.8213                 3.0439

                     25                     26                     27
                      A                      A                      A
 Frequencies --    578.4743               622.6451               640.5704
 Red. masses --      4.7193                 5.9831                 2.9246
 Frc consts  --      0.9305                 1.3666                 0.7071
 IR Inten    --      8.2412                 1.0574                 2.7502

                     28                     29                     30
                      A                      A                      A
 Frequencies --    663.3342               732.2893               751.2304
 Red. masses --      5.1659                 5.0286                 5.3870
 Frc consts  --      1.3393                 1.5888                 1.7912
 IR Inten    --      1.9855                 2.2768                 4.6304

                     31                     32                     33
                      A                      A                      A
 Frequencies --    768.7243               783.5636               847.8843
 Red. masses --      4.0192                 1.5887                 1.8721
 Frc consts  --      1.3994                 0.5747                 0.7930
 IR Inten    --      7.5185                 4.3637                 1.7556

                     34                     35                     36
                      A                      A                      A
 Frequencies --    849.5557               879.0618               896.2498
 Red. masses --      1.4560                 2.0482                 1.8407
 Frc consts  --      0.6191                 0.9325                 0.8712
 IR Inten    --     29.4460                 0.7181                 0.4344

                     37                     38                     39
                      A                      A                      A
 Frequencies --    906.5408               921.5386               928.7981
 Red. masses --      1.4641                 2.6979                 3.8847
 Frc consts  --      0.7089                 1.3499                 1.9744
 IR Inten    --     11.4249                 4.6169                 6.2501

                     40                     41                     42
                      A                      A                      A
 Frequencies --    946.4105               975.8597               980.3686
 Red. masses --      3.0841                 1.2989                 1.8561
 Frc consts  --      1.6276                 0.7288                 1.0510
 IR Inten    --     30.3808                 0.4008                 5.7866

                     43                     44                     45
                      A                      A                      A
 Frequencies --    993.5094              1033.0855              1039.3636
 Red. masses --      1.6052                 2.1601                 1.7579
 Frc consts  --      0.9335                 1.3583                 1.1189
 IR Inten    --      3.9021                14.8807                 6.8371

                     46                     47                     48
                      A                      A                      A
 Frequencies --   1046.6411              1063.1209              1080.3367
 Red. masses --      1.6796                 2.9169                 1.9626
 Frc consts  --      1.0841                 1.9424                 1.3496
 IR Inten    --     12.2382                32.7172                 2.2481

                     49                     50                     51
                      A                      A                      A
 Frequencies --   1127.4992              1134.6902              1148.2525
 Red. masses --      2.8597                 2.9997                 2.4653
 Frc consts  --      2.1419                 2.2755                 1.9151
 IR Inten    --     46.7928                67.2015                97.2515

                     52                     53                     54
                      A                      A                      A
 Frequencies --   1186.0123              1192.0584              1202.1120
 Red. masses --      1.2667                 1.7214                 1.4709
 Frc consts  --      1.0498                 1.4412                 1.2524
 IR Inten    --      6.1793                19.5070                 0.4083

                     55                     56                     57
                      A                      A                      A
 Frequencies --   1217.8297              1220.8579              1230.6317
 Red. masses --      1.5094                 1.7358                 2.2641
 Frc consts  --      1.3189                 1.5243                 2.0203
 IR Inten    --      2.2553                17.6016                 2.0507

                     58                     59                     60
                      A                      A                      A
 Frequencies --   1258.4900              1279.1343              1287.8678
 Red. masses --      1.4238                 1.2528                 2.2116
 Frc consts  --      1.3286                 1.2078                 2.1612
 IR Inten    --      0.6051                 1.9918                47.9362

                     61                     62                     63
                      A                      A                      A
 Frequencies --   1289.4427              1309.9804              1319.8600
 Red. masses --      1.5448                 1.6148                 1.2675
 Frc consts  --      1.5133                 1.6327                 1.3009
 IR Inten    --     21.5155                35.9007                 2.5674

                     64                     65                     66
                      A                      A                      A
 Frequencies --   1324.6143              1346.4018              1351.0468
 Red. masses --      1.3942                 1.5686                 1.2482
 Frc consts  --      1.4413                 1.6753                 1.3424
 IR Inten    --     24.7252                10.6730                 0.2512

                     67                     68                     69
                      A                      A                      A
 Frequencies --   1352.7414              1367.5810              1370.3162
 Red. masses --      2.6756                 1.3054                 1.3841
 Frc consts  --      2.8846                 1.4385                 1.5313
 IR Inten    --      4.0253                 2.2086                 0.5410

                     70                     71                     72
                      A                      A                      A
 Frequencies --   1405.2976              1405.7211              1435.6566
 Red. masses --      1.4023                 1.3998                 1.3984
 Frc consts  --      1.6317                 1.6297                 1.6982
 IR Inten    --     28.5747                 1.8457                11.0358

                     73                     74                     75
                      A                      A                      A
 Frequencies --   1460.3443              1508.8912              1515.6233
 Red. masses --      2.0026                 1.3907                 1.0900
 Frc consts  --      2.5162                 1.8655                 1.4752
 IR Inten    --     92.2667                 3.4661                 5.1666

                     76                     77                     78
                      A                      A                      A
 Frequencies --   1520.1933              1520.8569              1522.7254
 Red. masses --      1.0857                 1.0917                 1.0924
 Frc consts  --      1.4783                 1.4877                 1.4923
 IR Inten    --      5.5668                 3.8306                 3.0564

                     79                     80                     81
                      A                      A                      A
 Frequencies --   1524.7503              1529.3631              1534.2546
 Red. masses --      1.0929                 1.1212                 1.0513
 Frc consts  --      1.4971                 1.5452                 1.4581
 IR Inten    --      0.2506                 3.2602                 5.7289

                     82                     83                     84
                      A                      A                      A
 Frequencies --   1543.6079              1546.9252              1613.8245
 Red. masses --      1.9227                 1.2230                 6.7168
 Frc consts  --      2.6992                 1.7243                10.3068
 IR Inten    --     28.1258                 6.5326                22.0946

                     85                     86                     87
                      A                      A                      A
 Frequencies --   1668.7946              2347.1434              3013.0481
 Red. masses --      6.1242                12.6750                 1.0672
 Frc consts  --     10.0485                41.1414                 5.7085
 IR Inten    --     53.6186                43.5762                26.0861

                     88                     89                     90
                      A                      A                      A
 Frequencies --   3031.4860              3042.3177              3044.1227
 Red. masses --      1.0690                 1.0690                 1.0376
 Frc consts  --      5.7879                 5.8297                 5.6651
 IR Inten    --     25.3239                30.8256                53.1451

                     91                     92                     93
                      A                      A                      A
 Frequencies --   3048.3858              3052.2006              3054.7017
 Red. masses --      1.0630                 1.0714                 1.0663
 Frc consts  --      5.8198                 5.8809                 5.8622
 IR Inten    --     24.2786                44.4965                 8.6384

                     94                     95                     96
                      A                      A                      A
 Frequencies --   3059.4235              3088.2162              3091.8564
 Red. masses --      1.0666                 1.1055                 1.0987
 Frc consts  --      5.8823                 6.2117                 6.1882
 IR Inten    --     33.1740                22.1677                24.8166

                     97                     98                     99
                      A                      A                      A
 Frequencies --   3096.6878              3099.4877              3102.9495
 Red. masses --      1.0975                 1.0969                 1.0991
 Frc consts  --      6.2006                 6.2085                 6.2348
 IR Inten    --     53.8867                21.7289                34.3305

                    100                    101                    102
                      A                      A                      A
 Frequencies --   3112.3978              3124.3814              3169.9392
 Red. masses --      1.1031                 1.1001                 1.1041
 Frc consts  --      6.2960                 6.3272                 6.5366
 IR Inten    --     86.7599                21.7524                20.5920

                    103                    104                    105
                      A                      A                      A
 Frequencies --   3206.9025              3209.5086              3224.0554
 Red. masses --      1.0907                 1.0880                 1.0952
 Frc consts  --      6.6087                 6.6033                 6.7074
 IR Inten    --      5.0044                 0.8506                 4.0325

 - Thermochemistry -
 -------------------
 Temperature   298.150 Kelvin.  Pressure   1.00000 Atm.
 Atom     1 has atomic number  6 and mass  12.00000

 Molecular mass:   245.14158 amu.
 Principal axes and moments of inertia in atomic units:
                           1         2         3
     Eigenvalues --  2683.526928203.824189405.46043
           X            0.99996   0.00665   0.00566
           Y           -0.00662   0.99997  -0.00427
           Z           -0.00568   0.00424   0.99997
 This molecule is an asymmetric top.
 Rotational symmetry number  1.
 Warning -- assumption of classical behavior for rotation
           may cause significant error
 Rotational temperatures (Kelvin)      0.03228     0.01056     0.00921
 Rotational constants (GHZ):           0.67253     0.21999     0.19188
 Zero-point vibrational energy     831217.9 (Joules/Mol)
                                  198.66585 (Kcal/Mol)
 Warning -- explicit consideration of  25 degrees of freedom as
           vibrations may cause significant error
 Vibrational temperatures:     19.20    32.98    58.82    64.16    78.90
          (Kelvin)            125.37   185.94   192.60   218.18   229.75
                              276.01   320.30   363.31   383.58   423.84
                              465.53   549.35   558.97   571.19   629.87
                              652.65   686.72   802.75   809.10   832.30
                              895.85   921.64   954.39  1053.60  1080.85
                             1106.02  1127.37  1219.92  1222.32  1264.77
                             1289.50  1304.31  1325.89  1336.33  1361.67
                             1404.04  1410.53  1429.44  1486.38  1495.41
                             1505.88  1529.59  1554.36  1622.22  1632.57
                             1652.08  1706.41  1715.11  1729.57  1752.19
                             1756.54  1770.60  1810.69  1840.39  1852.95
                             1855.22  1884.77  1898.98  1905.82  1937.17
                             1943.85  1946.29  1967.64  1971.58  2021.91
                             2022.52  2065.59  2101.11  2170.96  2180.64
                             2187.22  2188.17  2190.86  2193.78  2200.41
                             2207.45  2220.91  2225.68  2321.93  2401.02
                             3377.02  4335.10  4361.63  4377.22  4379.81
                             4385.95  4391.44  4395.03  4401.83  4443.25
                             4448.49  4455.44  4459.47  4464.45  4478.05
                             4495.29  4560.84  4614.02  4617.77  4638.70

 Zero-point correction=                           0.316594 (Hartree/Particle)
 Thermal correction to Energy=                    0.334130
 Thermal correction to Enthalpy=                  0.335074
 Thermal correction to Gibbs Free Energy=         0.267848
 Sum of electronic and zero-point Energies=           -787.950968
 Sum of electronic and thermal Energies=              -787.933432
 Sum of electronic and thermal Enthalpies=            -787.932488
 Sum of electronic and thermal Free Energies=         -787.999714

                     E (Thermal)             CV                S
                      KCal/Mol        Cal/Mol-Kelvin    Cal/Mol-Kelvin
 Total                  209.670             65.110            141.489
 Electronic               0.000              0.000              0.000
 Translational            0.889              2.981             42.391
 Rotational               0.889              2.981             33.692
 Vibrational            207.892             59.148             65.406
 Vibration     1          0.593              1.987              7.438
 Vibration     2          0.593              1.985              6.363
 Vibration     3          0.594              1.981              5.216
 Vibration     4          0.595              1.980              5.044
 Vibration     5          0.596              1.976              4.635
 Vibration     6          0.601              1.958              3.723
 Vibration     7          0.612              1.924              2.957
 Vibration     8          0.613              1.920              2.890
 Vibration     9          0.619              1.901              2.652
 Vibration    10          0.622              1.892              2.554
 Vibration    11          0.634              1.851              2.210
 Vibration    12          0.648              1.807              1.938
 Vibration    13          0.664              1.759              1.713
 Vibration    14          0.672              1.734              1.618
 Vibration    15          0.689              1.684              1.447
 Vibration    16          0.708              1.628              1.292
 Vibration    17          0.751              1.509              1.032
 Vibration    18          0.757              1.495              1.006
 Vibration    19          0.763              1.477              0.974
 Vibration    20          0.798              1.388              0.834
 Vibration    21          0.812              1.353              0.785
 Vibration    22          0.834              1.300              0.717
 Vibration    23          0.913              1.122              0.528
 Vibration    24          0.918              1.113              0.519
 Vibration    25          0.935              1.078              0.488

 Optimization completed.
    -- Stationary point found.
 Normal termination of Gaussian 16 at Fri Dec 11 21:05:32 2020.

 ----------------------------------------------------------------------
 # B3LYP/6-311++G(d,p) empiricaldispersion=gd3bj scf=xqc pop=npa geom=c
 heck
 ----------------------------------------------------------------------

 ---------------------------------------
 CID_113877293_JID_8390_Energie_neutraal
 ---------------------------------------
 Structure from the checkpoint file:  "JID_8390.chk"
 Charge =  0 Multiplicity = 1

 SCF Done:  E(RB3LYP) =  -788.480156925     A.U. after   15 cycles
 Normal termination of Gaussian 16 at Fri Dec 11 21:12:48 2020.

 ----------------------------------------------------------------------
 # B3LYP/6-311++G(d,p) empiricaldispersion=gd3bj scf=xqc pop=npa geom=c
 heck
 ----------------------------------------------------------------------

 -------------------------------------
 CID_113877293_JID_8390_Energie_kation
 -------------------------------------
 Structure from the checkpoint file:  "JID_8390.chk"
 Charge =  1 Multiplicity = 2

 SCF Done:  E(UB3LYP) =  -788.156742779     A.U. after   25 cycles
 Normal termination of Gaussian 16 at Fri Dec 11 21:30:12 2020.
 Gaussian 16:  ES64L-G16RevA.03 25-Dec-2016

 ----------------------------------------------------------------------
 # B3LYP/6-311++G(d,p) empiricaldispersion=gd3bj scf=xqc pop=npa geom=c
 heck
 ----------------------------------------------------------------------

 ------------------------------------
 CID_113877293_JID_8390_Energie_anion
 ------------------------------------
 Structure from the checkpoint file:  "JID_8390.chk"
 Charge = -1 Multiplicity = 2

                         Standard orientation:
 ---------------------------------------------------------------------
 Center     Atomic      Atomic             Coordinates (Angstroms)
 Number     Number       Type             X           Y           Z
 ---------------------------------------------------------------------
      1          6           0       -2.844423    2.646434   -0.253475
      2          8           0       -2.824921    1.516026   -1.135261
      3          6           0       -2.275433    0.370932   -0.632166
      4          6           0       -2.909444   -0.384612    0.375145
      5          6           0       -2.310077   -1.575158    0.825401
      6          6           0       -1.112988   -2.011672    0.277227
      7          6           0       -0.487832   -1.270960   -0.735382
      8          6           0       -1.071377   -0.081647   -1.172328
      9          6           0        0.806863   -1.764937   -1.348072
     10          8           0        1.727475   -2.276148   -0.399531
     11          6           0        2.191268   -1.362610    0.592899
     12          6           0        3.248790   -0.357829    0.128846
     13          6           0        2.741281    0.807799   -0.756315
     14          6           0        3.673095    1.980405   -0.420341
     15          6           0        3.836490    1.861871    1.101317
     16          6           0        3.913664    0.339988    1.361458
     17          6           0       -4.162478    0.032504    0.921397
     18          7           0       -5.179075    0.367053    1.377976
     19          1           0       -3.266218    3.468190   -0.833980
     20          1           0       -1.825110    2.901858    0.062224
     21          1           0       -3.470464    2.465004    0.625134
     22          1           0       -2.805327   -2.149332    1.601621
     23          1           0       -0.646195   -2.925154    0.630672
     24          1           0       -0.601390    0.519765   -1.944601
     25          1           0        0.596292   -2.611549   -2.012002
     26          1           0        1.249797   -0.972904   -1.963723
     27          1           0        1.346253   -0.825709    1.050872
     28          1           0        2.626459   -2.007707    1.362979
     29          1           0        4.011644   -0.918398   -0.424706
     30          1           0        2.740415    0.562706   -1.823139
     31          1           0        1.710422    1.067166   -0.476461
     32          1           0        3.279213    2.950909   -0.740987
     33          1           0        4.642751    1.838518   -0.916109
     34          1           0        2.951310    2.282418    1.595158
     35          1           0        4.707544    2.401827    1.486174
     36          1           0        3.408351    0.070221    2.296489
     37          1           0        4.952948    0.010722    1.463231
 ---------------------------------------------------------------------

 SCF Done:  E(UB3LYP) =  -788.489919024     A.U. after   27 cycles

 The electronic state is 2-A.
 Alpha  occ. eigenvalues --  -19.02374 -19.01651 -14.16082 -10.11147 -10.10633
 Alpha  occ. eigenvalues --  -10.10432 -10.10188 -10.07999 -10.07958 -10.07913
 Alpha  occ. eigenvalues --  -10.07775 -10.07187 -10.06363 -10.05566 -10.05076
 Alpha  occ. eigenvalues --  -10.04331 -10.04268 -10.03797  -0.93984  -0.92711
 Alpha  occ. eigenvalues --   -0.76519  -0.75041  -0.73079  -0.66397  -0.64379
 Alpha  occ. eigenvalues --   -0.63226  -0.62234  -0.59030  -0.57669  -0.53429
 Alpha  occ. eigenvalues --   -0.49072  -0.48648  -0.47530  -0.46056  -0.42361
 Alpha  occ. eigenvalues --   -0.40780  -0.39119  -0.37835  -0.37686  -0.37340
 Alpha  occ. eigenvalues --   -0.35199  -0.34963  -0.34093  -0.32994  -0.31372
 Alpha  occ. eigenvalues --   -0.31236  -0.30751  -0.29204  -0.27126  -0.26777
 Alpha  occ. eigenvalues --   -0.26052  -0.25470  -0.25087  -0.24441  -0.24077
 Alpha  occ. eigenvalues --   -0.23948  -0.23220  -0.22698  -0.22485  -0.20830
 Alpha  occ. eigenvalues --   -0.19963  -0.19396  -0.16748  -0.15392  -0.13196
 Alpha  occ. eigenvalues --   -0.11807   0.03910
 Alpha virt. eigenvalues --    0.05616   0.07355   0.07690   0.08141   0.09164
 Alpha virt. eigenvalues --    0.09622   0.09873   0.10296   0.10453   0.10910
 Alpha virt. eigenvalues --    0.11344   0.11765   0.12355   0.12567   0.13111

  Beta  occ. eigenvalues --  -19.02376 -19.01607 -14.15810 -10.11145 -10.10594
  Beta  occ. eigenvalues --  -10.10460 -10.10043 -10.07999 -10.07950 -10.07903
  Beta  occ. eigenvalues --  -10.07765 -10.07183 -10.06358 -10.05310 -10.04946
  Beta  occ. eigenvalues --  -10.04363 -10.04322 -10.03377  -0.93914  -0.92614
  Beta  occ. eigenvalues --   -0.76104  -0.75028  -0.72683  -0.66141  -0.64038
  Beta  occ. eigenvalues --   -0.62973  -0.62215  -0.58865  -0.57545  -0.53170
  Beta  occ. eigenvalues --   -0.48873  -0.48572  -0.47357  -0.45921  -0.42201
  Beta  occ. eigenvalues --   -0.40730  -0.39006  -0.37761  -0.37531  -0.37196
  Beta  occ. eigenvalues --   -0.35134  -0.34776  -0.33974  -0.32977  -0.31260
  Beta  occ. eigenvalues --   -0.31116  -0.30633  -0.29063  -0.26992  -0.26579
  Beta  occ. eigenvalues --   -0.25651  -0.25389  -0.25028  -0.24241  -0.24058
  Beta  occ. eigenvalues --   -0.23715  -0.22910  -0.22526  -0.22208  -0.20302
  Beta  occ. eigenvalues --   -0.19383  -0.19234  -0.16616  -0.15279  -0.12136
  Beta  occ. eigenvalues --   -0.10363
  Beta virt. eigenvalues --    0.05721   0.07330   0.07643   0.08109   0.08769
  Beta virt. eigenvalues --    0.09356   0.09760   0.09922   0.10259   0.10588
  Beta virt. eigenvalues --    0.11008   0.11393   0.11731   0.12268   0.12531

 Mulliken charges and spin densities:
               1          2
     1  C   -0.053669  -0.215197
     2  O   -0.178047   0.007415
     3  C   -1.101654   0.167957
     4  C    2.485415   0.148537
     5  C   -0.535872   0.178239
     6  C    0.050705  -0.007050
     7  C    0.997380   0.138761
     8  C   -0.892927   0.065843
     9  C   -0.390794  -0.017472
    10  O   -0.010527  -0.017208
    11  C   -0.720869  -0.035754
    12  C    0.531322   0.086992
    13  C   -0.317907   0.018836
    14  C   -0.330837  -0.107915
    15  C   -0.124592  -0.166985
    16  C   -0.395083  -0.164645
    17  C   -1.645475  -0.081815
    18  N   -0.322848   0.147441
    19  H    0.088741   0.035773
    20  H   -0.058043   0.179166
    21  H    0.105286   0.039176
    22  H    0.151929  -0.000420
    23  H    0.149183   0.003260
    24  H    0.097282   0.044771
    25  H    0.112013   0.071447
    26  H    0.158602   0.002927
    27  H    0.137978   0.027621
    28  H    0.148020   0.003531
    29  H    0.195873   0.003384
    30  H    0.072244   0.052991
    31  H    0.453970  -0.301704
    32  H   -0.062082   0.212357
    33  H    0.038837   0.091874
    34  H    0.065175   0.068080
    35  H   -0.050967   0.196595
    36  H    0.093553   0.056968
    37  H    0.058685   0.066221
 Sum of Mulliken charges =  -1.00000   1.00000

 Dipole moment (field-independent basis, Debye):
    X=              8.5254    Y=             -0.1057    Z=             -1.3561  Tot=              8.6332
 Quadrupole moment (field-independent basis, Debye-Ang):
   XX=           -198.9762   YY=           -133.8577   ZZ=           -126.7937
   XY=              0.3007   XZ=              8.9785   YZ=             -3.0696

 Summary of Natural Population Analysis:

                                       Natural Population
                Natural  -----------------------------------------------
    Atom  No    Charge         Core      Valence    Rydberg      Total
 -----------------------------------------------------------------------
      C    1   -0.09345      0.99959     2.08617    0.00769     3.09345
      O    2   -0.29128      0.99986     3.28155    0.00987     4.29128
      C    3    0.20319      0.99935     1.78357    0.01388     2.79681
      C    4   -0.08299      0.99937     2.07438    0.00924     3.08299
      C    5   -0.04729      0.99955     2.03863    0.00911     3.04729
      C    6   -0.12807      0.99952     2.11893    0.00962     3.12807
      C    7    0.04202      0.99950     1.95023    0.00824     2.95798
      C    8   -0.13476      0.99947     2.12528    0.01000     3.13476
      C    9   -0.01555      0.99953     2.00374    0.01227     3.01555
      O   10   -0.29892      0.99989     3.29013    0.00890     4.29892
      C   11   -0.00801      0.99953     1.99443    0.01406     3.00801
      C   12   -0.12692      0.99960     2.11580    0.01152     3.12692
      C   13   -0.19831      0.99963     2.18871    0.00998     3.19831
      C   14   -0.18861      0.99964     2.18234    0.00663     3.18861
      C   15   -0.19251      0.99964     2.18592    0.00696     3.19251
      C   16   -0.18967      0.99963     2.18292    0.00711     3.18967
      C   17    0.14798      0.99964     1.83275    0.01963     2.85202
      N   18   -0.16905      0.99979     2.65847    0.01080     3.66905
      H   19    0.08407      0.00000     0.41477    0.00116     0.41593
      H   20    0.07904      0.00000     0.41910    0.00185     0.42096
      H   21    0.09075      0.00000     0.40732    0.00193     0.40925
      H   22    0.09641      0.00000     0.40282    0.00076     0.40359
      H   23    0.09986      0.00000     0.39888    0.00126     0.40014
      H   24    0.09891      0.00000     0.39976    0.00133     0.40109
      H   25    0.09466      0.00000     0.40445    0.00088     0.40534
      H   26    0.07815      0.00000     0.42053    0.00132     0.42185
      H   27    0.08915      0.00000     0.40948    0.00136     0.41085
      H   28    0.08578      0.00000     0.41322    0.00100     0.41422
      H   29    0.09558      0.00000     0.40312    0.00130     0.40442
      H   30    0.09975      0.00000     0.39940    0.00085     0.40025
      H   31    0.10308      0.00000     0.39536    0.00157     0.39692
      H   32    0.09953      0.00000     0.39940    0.00107     0.40047
      H   33    0.09036      0.00000     0.40844    0.00119     0.40964
      H   34    0.09593      0.00000     0.40254    0.00153     0.40407
      H   35    0.09671      0.00000     0.40216    0.00113     0.40329
      H   36    0.09845      0.00000     0.40057    0.00098     0.40155
      H   37    0.09603      0.00000     0.40298    0.00099     0.40397
 =======================================================================
   * Total *    0.00000     17.99274    47.79826    0.20900    66.00000

 Normal termination of Gaussian 16 at Fri Dec 11 21:48:35 2020.
