 Gaussian 16, Revision A.03,

 -----------------------------------------------------------
 # opt freq B3LYP/6-31G(d) empiricaldispersion=gd3bj scf=xqc
 -----------------------------------------------------------

 ------------------------------
 CID_118153268_JID_360_neutraal
 ------------------------------
 Symbolic Z-matrix:
 Charge =  0 Multiplicity = 1

 SCF Done:  E(RB3LYP) =  -440.021400881     A.U. after   13 cycles
 SCF Done:  E(RB3LYP) =  -440.028291432     A.U. after   11 cycles
 SCF Done:  E(RB3LYP) =  -440.029588925     A.U. after   11 cycles
 SCF Done:  E(RB3LYP) =  -440.030147104     A.U. after   11 cycles
 SCF Done:  E(RB3LYP) =  -440.030317426     A.U. after   10 cycles
 SCF Done:  E(RB3LYP) =  -440.030411743     A.U. after   10 cycles
 SCF Done:  E(RB3LYP) =  -440.030495833     A.U. after   10 cycles
 SCF Done:  E(RB3LYP) =  -440.030575643     A.U. after   11 cycles
 SCF Done:  E(RB3LYP) =  -440.030614595     A.U. after   10 cycles
 SCF Done:  E(RB3LYP) =  -440.030655174     A.U. after   11 cycles
 SCF Done:  E(RB3LYP) =  -440.030663431     A.U. after   10 cycles
 SCF Done:  E(RB3LYP) =  -440.030664330     A.U. after    9 cycles
 SCF Done:  E(RB3LYP) =  -440.030664305     A.U. after    8 cycles
 SCF Done:  E(RB3LYP) =  -440.030664740     A.U. after    7 cycles
 SCF Done:  E(RB3LYP) =  -440.030664823     A.U. after    7 cycles
 Optimization completed.
    -- Stationary point found.

 1\1\GINC-NODE370\FOpt\RB3LYP\6-31G(d)\C7H15N3\VSC10255\08-Dec-2020\0\\
 # opt freq B3LYP/6-31G(d) empiricaldispersion=gd3bj scf=xqc\\CID_11815
 3268_JID_360_neutraal\\0,1\C,0.9142522034,-0.0595588096,-0.0950443416\
 C,0.4454426279,-0.3935536773,-1.482811826\C,0.7942147775,-1.5526249368
 ,-2.074146863\N,0.3879283836,-1.9242859858,-3.3793555497\C,-0.83122774
 13,-1.2429954824,-3.80195551\C,-0.6620997968,0.2516133712,-3.542688230
 4\N,-0.4455613327,0.5107365664,-2.1231902374\C,-0.4074015899,1.9361168
 435,-1.8000676253\C,-1.8158709227,2.4868519128,-1.5694628775\N,-2.4094

 Normal termination of Gaussian 16 at Tue Dec  8 10:30:22 2020.

 --------------------------------------------------------------------
 #N Geom=AllCheck Guess=TCheck SCRF=Check GenChk RB3LYP/6-31G(d) Freq
 --------------------------------------------------------------------

 Structure from the checkpoint file:  "JID_360.chk"
 ------------------------------
 CID_118153268_JID_360_neutraal
 ------------------------------
 Charge =  0 Multiplicity = 1

 SCF Done:  E(RB3LYP) =  -440.030664823     A.U. after    1 cycles

  Exact polarizability: 115.612  -1.729  94.006   6.764   1.063  72.739
 Approx polarizability: 163.351  -4.317 127.040   9.470   2.239 106.172

                      1                      2                      3
                      A                      A                      A
 Frequencies --     39.1243                62.4955               117.9370
 Red. masses --      3.4142                 3.4721                 2.8723
 Frc consts  --      0.0031                 0.0080                 0.0235
 IR Inten    --      2.7270                 0.6304                 0.0899

                      4                      5                      6
                      A                      A                      A
 Frequencies --    199.0481               246.1133               266.8224
 Red. masses --      2.3205                 2.0677                 1.5594
 Frc consts  --      0.0542                 0.0738                 0.0654
 IR Inten    --      4.8207                10.4143                17.8012

                      7                      8                      9
                      A                      A                      A
 Frequencies --    297.7245               324.8233               346.6472
 Red. masses --      1.6120                 1.3088                 2.3161
 Frc consts  --      0.0842                 0.0814                 0.1640
 IR Inten    --      3.1303                64.5885                 1.7252

                     10                     11                     12
                      A                      A                      A
 Frequencies --    351.6559               411.7584               451.4850
 Red. masses --      2.1706                 2.1142                 3.4622
 Frc consts  --      0.1581                 0.2112                 0.4158
 IR Inten    --      2.3340                20.4785                35.8678

                     13                     14                     15
                      A                      A                      A
 Frequencies --    505.3699               524.7536               562.6079
 Red. masses --      2.2547                 3.1215                 3.4695
 Frc consts  --      0.3393                 0.5064                 0.6470
 IR Inten    --      0.9229                 0.7475                27.6055

                     16                     17                     18
                      A                      A                      A
 Frequencies --    623.0143               708.9140               771.0068
 Red. masses --      2.1487                 2.6757                 1.2980
 Frc consts  --      0.4914                 0.7923                 0.4546
 IR Inten    --     88.0711                37.0563                10.5907

                     19                     20                     21
                      A                      A                      A
 Frequencies --    790.9227               870.0518               893.0978
 Red. masses --      1.9230                 1.9435                 1.8924
 Frc consts  --      0.7088                 0.8668                 0.8893
 IR Inten    --     72.2789                25.9379                25.1953

                     22                     23                     24
                      A                      A                      A
 Frequencies --    919.3826               927.8785               951.0223
 Red. masses --      1.4974                 2.0423                 1.8698
 Frc consts  --      0.7457                 1.0360                 0.9964
 IR Inten    --     30.3490                36.2234                 5.7981

                     25                     26                     27
                      A                      A                      A
 Frequencies --   1009.3154              1063.2215              1082.2266
 Red. masses --      1.9876                 1.5660                 1.6136
 Frc consts  --      1.1930                 1.0430                 1.1135
 IR Inten    --     27.1203                 6.5078                 8.4188

                     28                     29                     30
                      A                      A                      A
 Frequencies --   1083.0099              1117.5588              1122.5281
 Red. masses --      1.8123                 1.7283                 2.1723
 Frc consts  --      1.2524                 1.2718                 1.6128
 IR Inten    --     16.0579                 4.2202                18.7217

                     31                     32                     33
                      A                      A                      A
 Frequencies --   1173.8199              1180.5751              1197.4376
 Red. masses --      2.2503                 2.1685                 1.8916
 Frc consts  --      1.8268                 1.7807                 1.5980
 IR Inten    --     12.3923                15.9093                22.0536

                     34                     35                     36
                      A                      A                      A
 Frequencies --   1216.0690              1244.4325              1274.6229
 Red. masses --      1.6961                 1.7672                 1.3890
 Frc consts  --      1.4778                 1.6124                 1.3296
 IR Inten    --     69.9485                18.6404                 7.7161

                     37                     38                     39
                      A                      A                      A
 Frequencies --   1297.4139              1336.1358              1357.5188
 Red. masses --      1.4163                 1.3170                 1.2117
 Frc consts  --      1.4046                 1.3853                 1.3157
 IR Inten    --     40.3777                15.5119                14.2335

                     40                     41                     42
                      A                      A                      A
 Frequencies --   1372.3453              1403.8338              1414.2873
 Red. masses --      1.5951                 1.3907                 1.3438
 Frc consts  --      1.7700                 1.6148                 1.5836
 IR Inten    --     13.5730                42.8041                30.8964

                     43                     44                     45
                      A                      A                      A
 Frequencies --   1442.8427              1450.3509              1457.7454
 Red. masses --      1.5295                 1.3027                 1.6143
 Frc consts  --      1.8760                 1.6145                 2.0212
 IR Inten    --     10.8485                 1.1594                51.3442

                     46                     47                     48
                      A                      A                      A
 Frequencies --   1497.2674              1509.6651              1514.7780
 Red. masses --      1.4354                 1.0633                 1.0711
 Frc consts  --      1.8959                 1.4279                 1.4480
 IR Inten    --      9.2847                 6.5491                 0.9411

                     49                     50                     51
                      A                      A                      A
 Frequencies --   1530.9286              1533.1712              1541.6553
 Red. masses --      1.0966                 1.1008                 1.0786
 Frc consts  --      1.5143                 1.5246                 1.5104
 IR Inten    --     12.3053                 2.5540                 7.1769

                     52                     53                     54
                      A                      A                      A
 Frequencies --   1546.1834              1679.4794              1760.4853
 Red. masses --      1.0937                 1.0904                 6.2112
 Frc consts  --      1.5405                 1.8121                11.3421
 IR Inten    --      4.6554                43.5500                27.4371

                     55                     56                     57
                      A                      A                      A
 Frequencies --   2948.6716              2970.9911              2979.1462
 Red. masses --      1.0734                 1.0736                 1.0750
 Frc consts  --      5.4987                 5.5832                 5.6215
 IR Inten    --     72.1639                34.5094                49.3918

                     58                     59                     60
                      A                      A                      A
 Frequencies --   2986.9676              3027.0001              3066.4637
 Red. masses --      1.0703                 1.0435                 1.0873
 Frc consts  --      5.6264                 5.6336                 6.0237
 IR Inten    --    134.7145                46.9171                56.8464

                     61                     62                     63
                      A                      A                      A
 Frequencies --   3076.7223              3080.7212              3086.2451
 Red. masses --      1.0956                 1.0933                 1.0893
 Frc consts  --      6.1107                 6.1138                 6.1129
 IR Inten    --     19.1788                28.9946                61.7402

                     64                     65                     66
                      A                      A                      A
 Frequencies --   3130.9809              3161.9840              3222.1313
 Red. masses --      1.0984                 1.0876                 1.0918
 Frc consts  --      6.3441                 6.4070                 6.6784
 IR Inten    --     23.0746                16.6824                13.6447

                     67                     68                     69
                      A                      A                      A
 Frequencies --   3464.5639              3537.0217              3552.0393
 Red. masses --      1.0497                 1.0754                 1.0919
 Frc consts  --      7.4233                 7.9270                 8.1167
 IR Inten    --      5.9037                 0.8948                 0.0586

 - Thermochemistry -
 -------------------
 Temperature   298.150 Kelvin.  Pressure   1.00000 Atm.
 Atom     1 has atomic number  6 and mass  12.00000

 Molecular mass:   141.12660 amu.
 Principal axes and moments of inertia in atomic units:
                           1         2         3
     Eigenvalues --   872.544591861.751182364.18931
           X            0.99996   0.00372   0.00795
           Y           -0.00369   0.99999  -0.00357
           Z           -0.00796   0.00354   0.99996
 This molecule is an asymmetric top.
 Rotational symmetry number  1.
 Warning -- assumption of classical behavior for rotation
           may cause significant error
 Rotational temperatures (Kelvin)      0.09927     0.04652     0.03664
 Rotational constants (GHZ):           2.06837     0.96938     0.76337
 Zero-point vibrational energy     597332.6 (Joules/Mol)
                                  142.76592 (Kcal/Mol)
 Warning -- explicit consideration of  15 degrees of freedom as
           vibrations may cause significant error
 Vibrational temperatures:     56.29    89.92   169.69   286.39   354.10
          (Kelvin)            383.90   428.36   467.35   498.75   505.95
                              592.43   649.59   727.11   755.00   809.47
                              896.38  1019.97  1109.31  1137.96  1251.81
                             1284.97  1322.79  1335.01  1368.31  1452.18
                             1529.74  1557.08  1558.21  1607.92  1615.07
                             1688.86  1698.58  1722.85  1749.65  1790.46
                             1833.90  1866.69  1922.40  1953.17  1974.50
                             2019.80  2034.84  2075.93  2086.73  2097.37
                             2154.23  2172.07  2179.43  2202.66  2205.89
                             2218.10  2224.61  2416.40  2532.95  4242.48
                             4274.59  4286.33  4297.58  4355.18  4411.96
                             4426.72  4432.47  4440.42  4504.78  4549.39
                             4635.93  4984.73  5088.99  5110.59

 Zero-point correction=                           0.227512 (Hartree/Particle)
 Thermal correction to Energy=                    0.237986
 Thermal correction to Enthalpy=                  0.238930
 Thermal correction to Gibbs Free Energy=         0.191388
 Sum of electronic and zero-point Energies=           -439.803153
 Sum of electronic and thermal Energies=              -439.792679
 Sum of electronic and thermal Enthalpies=            -439.791735
 Sum of electronic and thermal Free Energies=         -439.839277

                     E (Thermal)             CV                S
                      KCal/Mol        Cal/Mol-Kelvin    Cal/Mol-Kelvin
 Total                  149.338             40.105            100.061
 Electronic               0.000              0.000              0.000
 Translational            0.889              2.981             40.745
 Rotational               0.889              2.981             29.731
 Vibrational            147.561             34.143             29.586
 Vibration     1          0.594              1.981              5.303
 Vibration     2          0.597              1.972              4.377
 Vibration     3          0.608              1.934              3.134
 Vibration     4          0.637              1.841              2.142
 Vibration     5          0.661              1.769              1.758
 Vibration     6          0.672              1.734              1.617
 Vibration     7          0.691              1.678              1.430
 Vibration     8          0.709              1.626              1.286
 Vibration     9          0.725              1.582              1.181
 Vibration    10          0.728              1.572              1.159
 Vibration    11          0.776              1.445              0.920
 Vibration    12          0.810              1.358              0.791
 Vibration    13          0.861              1.238              0.645
 Vibration    14          0.880              1.195              0.599
 Vibration    15          0.918              1.112              0.519

                           ! Non-Optimized Parameters !

 1\1\GINC-NODE370\Freq\RB3LYP\6-31G(d)\C7H15N3\VSC10255\08-Dec-2020\0\\
 #N Geom=AllCheck Guess=TCheck SCRF=Check GenChk RB3LYP/6-31G(d) Freq\\
 CID_118153268_JID_360_neutraal\\0,1\C,0.9142522034,-0.0595588096,-0.09
 50443416\C,0.4454426279,-0.3935536773,-1.482811826\C,0.7942147775,-1.5
 526249368,-2.074146863\N,0.3879283836,-1.9242859858,-3.3793555497\C,-0
 .8312277413,-1.2429954824,-3.80195551\C,-0.6620997968,0.2516133712,-3.
 5426882304\N,-0.4455613327,0.5107365664,-2.1231902374\C,-0.4074015899,
 1.9361168435,-1.8000676253\C,-1.8158709227,2.4868519128,-1.5694628775\

 Normal termination of Gaussian 16 at Tue Dec  8 10:35:36 2020.

 ----------------------------------------------------------------------
 # B3LYP/6-311++G(d,p) empiricaldispersion=gd3bj scf=xqc pop=npa geom=c
 heck
 ----------------------------------------------------------------------

 --------------------------------------
 CID_118153268_JID_360_Energie_neutraal
 --------------------------------------
 Structure from the checkpoint file:  "JID_360.chk"
 Charge =  0 Multiplicity = 1

 SCF Done:  E(RB3LYP) =  -440.165691080     A.U. after   14 cycles
 Normal termination of Gaussian 16 at Tue Dec  8 10:40:28 2020.

 ----------------------------------------------------------------------
 # B3LYP/6-311++G(d,p) empiricaldispersion=gd3bj scf=xqc pop=npa geom=c
 heck
 ----------------------------------------------------------------------

 ------------------------------------
 CID_118153268_JID_360_Energie_kation
 ------------------------------------
 Structure from the checkpoint file:  "JID_360.chk"
 Charge =  1 Multiplicity = 2

 SCF Done:  E(UB3LYP) =  -439.929788465     A.U. after   19 cycles
 Normal termination of Gaussian 16 at Tue Dec  8 10:46:06 2020.
 Gaussian 16:  ES64L-G16RevA.03 25-Dec-2016

 -----------------------------------
 CID_118153268_JID_360_Energie_anion
 -----------------------------------
 Structure from the checkpoint file:  "JID_360.chk"
 Charge = -1 Multiplicity = 2

                         Standard orientation:
 ---------------------------------------------------------------------
 Center     Atomic      Atomic             Coordinates (Angstroms)
 Number     Number       Type             X           Y           Z
 ---------------------------------------------------------------------
      1          6           0        0.011599    2.367395   -0.046701
      2          6           0        0.663172    1.013793   -0.067858
      3          6           0        1.988782    0.877347    0.129393
      4          7           0        2.662427   -0.368789    0.118622
      5          6           0        1.774950   -1.488050    0.416495
      6          6           0        0.541279   -1.374783   -0.475079
      7          7           0       -0.171272   -0.127521   -0.218918
      8          6           0       -1.432234   -0.026843   -0.952001
      9          6           0       -2.570814   -0.702389   -0.185486
     10          7           0       -2.743619   -0.014976    1.094719
     11          1           0       -0.852595    2.380144    0.629508
     12          1           0       -0.348207    2.686494   -1.034660
     13          1           0        0.728300    3.118484    0.296678
     14          1           0        2.612424    1.749865    0.284561
     15          1           0        3.475446   -0.361371    0.725837
     16          1           0        1.446995   -1.501807    1.469884
     17          1           0        2.294559   -2.429725    0.207936
     18          1           0        0.853676   -1.441831   -1.531309
     19          1           0       -0.132452   -2.215148   -0.274812
     20          1           0       -1.697180    1.022191   -1.079491
     21          1           0       -1.336963   -0.467077   -1.959311
     22          1           0       -3.493789   -0.606263   -0.771044
     23          1           0       -2.364617   -1.784884   -0.093637
     24          1           0       -3.426921   -0.504110    1.669594
     25          1           0       -1.851835   -0.064769    1.586725
 ---------------------------------------------------------------------

 SCF Done:  E(UB3LYP) =  -440.149555268     A.U. after   31 cycles

 The electronic state is 2-A.
 Alpha  occ. eigenvalues --  -14.20805 -14.19735 -14.18043 -10.08995 -10.08686
 Alpha  occ. eigenvalues --  -10.08431 -10.08212 -10.08177 -10.06647 -10.06315
 Alpha  occ. eigenvalues --   -0.84377  -0.79530  -0.76661  -0.67434  -0.63561
 Alpha  occ. eigenvalues --   -0.59606  -0.55744  -0.51691  -0.48715  -0.41959
 Alpha  occ. eigenvalues --   -0.40462  -0.39033  -0.38039  -0.36216  -0.34947
 Alpha  occ. eigenvalues --   -0.32899  -0.31476  -0.29513  -0.29289  -0.28606
 Alpha  occ. eigenvalues --   -0.27673  -0.27112  -0.25792  -0.24487  -0.23076
 Alpha  occ. eigenvalues --   -0.20133  -0.15364  -0.13404  -0.05737   0.04773
 Alpha virt. eigenvalues --    0.06832   0.07697   0.08162   0.09100   0.09869
 Alpha virt. eigenvalues --    0.10460   0.10566   0.11558   0.12149   0.12924
 Alpha virt. eigenvalues --    0.13439   0.14421   0.14899   0.15493   0.15944

  Beta  occ. eigenvalues --  -14.20800 -14.19714 -14.18012 -10.08988 -10.08666
  Beta  occ. eigenvalues --  -10.08399 -10.08182 -10.08174 -10.06630 -10.06307
  Beta  occ. eigenvalues --   -0.84353  -0.79488  -0.76609  -0.67406  -0.63517
  Beta  occ. eigenvalues --   -0.59566  -0.55687  -0.51630  -0.48648  -0.41898
  Beta  occ. eigenvalues --   -0.40398  -0.38987  -0.37997  -0.36180  -0.34891
  Beta  occ. eigenvalues --   -0.32859  -0.31457  -0.29468  -0.29255  -0.28587
  Beta  occ. eigenvalues --   -0.27635  -0.27068  -0.25749  -0.24445  -0.23037
  Beta  occ. eigenvalues --   -0.20096  -0.15331  -0.13367  -0.05708
  Beta virt. eigenvalues --    0.07149   0.07968   0.08243   0.08767   0.09809
  Beta virt. eigenvalues --    0.10426   0.10845   0.11279   0.11711   0.12765
  Beta virt. eigenvalues --    0.13283   0.13752   0.14582   0.15252   0.15912

 Mulliken charges and spin densities:
               1          2
     1  C    0.852852  -1.566096
     2  C    0.152073   0.241198
     3  C   -0.912487   0.281233
     4  N   -0.318507   0.262720
     5  C    1.946459  -2.411511
     6  C   -0.759430   0.436035
     7  N    0.183403   0.069557
     8  C   -1.132971   0.927206
     9  C    1.799858  -2.130061
    10  N   -0.555219   0.170087
    11  H    0.077582   0.075670
    12  H    0.058110   0.090461
    13  H    0.120528   0.015622
    14  H   -0.525838   0.662199
    15  H   -0.182234   0.429852
    16  H   -0.436165   0.592366
    17  H   -0.536776   0.717204
    18  H   -0.014902   0.176244
    19  H    0.006543   0.134965
    20  H    0.061089   0.072803
    21  H   -0.078422   0.185666
    22  H   -0.271373   0.418495
    23  H   -0.584799   0.718612
    24  H   -0.155729   0.400018
    25  H    0.206354   0.029455
 Sum of Mulliken charges =  -1.00000   1.00000

 Dipole moment (field-independent basis, Debye):
    X=             -0.6579    Y=              3.9390    Z=             -2.8982  Tot=              4.9344
 Quadrupole moment (field-independent basis, Debye-Ang):
   XX=           -128.8882   YY=           -102.9009   ZZ=            -93.1286
   XY=             -1.2983   XZ=              0.8440   YZ=              1.6880

 Summary of Natural Population Analysis:

                                       Natural Population
                Natural  -----------------------------------------------
    Atom  No    Charge         Core      Valence    Rydberg      Total
 -----------------------------------------------------------------------
      C    1   -0.29731      0.99963     2.29302    0.00467     3.29731
      C    2    0.05695      0.99947     1.93184    0.01174     2.94305
      C    3   -0.03485      0.99945     2.02242    0.01297     3.03485
      N    4   -0.32960      0.99972     2.81609    0.01379     3.82960
      C    5   -0.08866      0.99962     2.07734    0.01170     3.08866
      C    6   -0.08292      0.99961     2.07197    0.01133     3.08292
      N    7   -0.27653      0.99966     2.76409    0.01278     3.77653
      C    8   -0.08465      0.99960     2.07369    0.01135     3.08465
      C    9   -0.09150      0.99964     2.08004    0.01182     3.09150
      N   10   -0.42836      0.99977     2.91726    0.01133     3.92836
      H   11    0.10616      0.00000     0.39216    0.00168     0.39384
      H   12    0.09420      0.00000     0.40409    0.00170     0.40580
      H   13    0.10366      0.00000     0.39557    0.00078     0.39634
      H   14    0.09446      0.00000     0.40446    0.00108     0.40554
      H   15    0.18283      0.00000     0.31212    0.00506     0.31717
      H   16    0.08686      0.00000     0.41042    0.00271     0.41314
      H   17    0.09709      0.00000     0.40092    0.00199     0.40291
      H   18    0.08471      0.00000     0.41385    0.00143     0.41529
      H   19    0.10040      0.00000     0.39762    0.00198     0.39960
      H   20    0.09976      0.00000     0.39833    0.00190     0.40024
      H   21    0.08521      0.00000     0.41327    0.00152     0.41479
      H   22    0.08755      0.00000     0.41095    0.00150     0.41245
      H   23    0.08006      0.00000     0.41707    0.00288     0.41994
      H   24    0.17582      0.00000     0.32179    0.00238     0.32418
      H   25    0.17865      0.00000     0.31873    0.00262     0.32135
 =======================================================================
   * Total *    0.00000      9.99618    28.85911    0.14471    39.00000

 Normal termination of Gaussian 16 at Tue Dec  8 10:55:03 2020.
