 Gaussian 16, Revision A.03,

 -----------------------------------------------------------
 # opt freq B3LYP/6-31G(d) empiricaldispersion=gd3bj scf=xqc
 -----------------------------------------------------------

 -----------------------------
 CID_23288564_JID_821_neutraal
 -----------------------------
 Symbolic Z-matrix:
 Charge =  0 Multiplicity = 1

 SCF Done:  E(RB3LYP) =  -425.211789742     A.U. after   13 cycles
 SCF Done:  E(RB3LYP) =  -425.217850127     A.U. after   11 cycles
 SCF Done:  E(RB3LYP) =  -425.218311053     A.U. after   11 cycles
 SCF Done:  E(RB3LYP) =  -425.216648630     A.U. after   11 cycles
 SCF Done:  E(RB3LYP) =  -425.218283558     A.U. after   10 cycles
 SCF Done:  E(RB3LYP) =  -425.218571018     A.U. after    7 cycles
 SCF Done:  E(RB3LYP) =  -425.218711532     A.U. after   10 cycles
 SCF Done:  E(RB3LYP) =  -425.218743632     A.U. after    9 cycles
 SCF Done:  E(RB3LYP) =  -425.218749181     A.U. after    9 cycles
 SCF Done:  E(RB3LYP) =  -425.218763350     A.U. after    9 cycles
 SCF Done:  E(RB3LYP) =  -425.218774672     A.U. after   10 cycles
 SCF Done:  E(RB3LYP) =  -425.218776740     A.U. after    7 cycles
 SCF Done:  E(RB3LYP) =  -425.218777093     A.U. after    7 cycles
 Optimization completed.
    -- Stationary point found.

 1\1\GINC-NODE109\FOpt\RB3LYP\6-31G(d)\C8H18N2\VSC10255\08-Dec-2020\0\\
 # opt freq B3LYP/6-31G(d) empiricaldispersion=gd3bj scf=xqc\\CID_23288
 564_JID_821_neutraal\\0,1\C,1.0192018945,0.1198222648,-0.0498112771\C,
 0.3831881485,1.5219196913,-0.0620808318\C,1.0994805695,2.4383081275,-1
 .0766489007\C,-1.1386416731,1.5314515814,-0.2023305321\C,-1.8641101957
 ,2.3561662897,0.5925886403\N,-3.2741629957,2.4829627902,0.5762336496\N
 ,-1.3333902301,3.2291458173,1.5727940037\C,-1.8705199676,0.6429186336,
 -1.207634273\C,-1.237363421,0.6024430188,-2.6105031321\C,-2.135949624,

 Normal termination of Gaussian 16 at Tue Dec  8 12:50:31 2020.

 --------------------------------------------------------------------
 #N Geom=AllCheck Guess=TCheck SCRF=Check GenChk RB3LYP/6-31G(d) Freq
 --------------------------------------------------------------------

 Structure from the checkpoint file:  "JID_821.chk"
 -----------------------------
 CID_23288564_JID_821_neutraal
 -----------------------------
 Charge =  0 Multiplicity = 1

 SCF Done:  E(RB3LYP) =  -425.218777093     A.U. after    1 cycles

  Exact polarizability: 118.800   0.005 102.979   0.002  -0.955  78.638
 Approx polarizability: 171.630   0.013 137.340   0.007  -4.685 111.209

                      1                      2                      3
                      A                      A                      A
 Frequencies --     43.4011               100.3058               108.8632
 Red. masses --      2.9649                 2.6130                 2.6032
 Frc consts  --      0.0033                 0.0155                 0.0182
 IR Inten    --      0.0701                 2.2128                 1.3902

                      4                      5                      6
                      A                      A                      A
 Frequencies --    176.6031               209.2430               230.8407
 Red. masses --      2.1220                 2.5762                 1.4397
 Frc consts  --      0.0390                 0.0665                 0.0452
 IR Inten    --      0.8967                 2.8834                 3.3074

                      7                      8                      9
                      A                      A                      A
 Frequencies --    231.2376               246.7890               269.2429
 Red. masses --      1.2350                 1.6284                 1.1948
 Frc consts  --      0.0389                 0.0584                 0.0510
 IR Inten    --      0.0936                 3.5681                 6.6754

                     10                     11                     12
                      A                      A                      A
 Frequencies --    282.4225               290.8619               307.0485
 Red. masses --      1.2106                 1.5676                 1.1559
 Frc consts  --      0.0569                 0.0781                 0.0642
 IR Inten    --      0.5296                22.7095                11.0790

                     13                     14                     15
                      A                      A                      A
 Frequencies --    324.5871               334.5310               342.4388
 Red. masses --      1.8031                 2.2801                 1.8041
 Frc consts  --      0.1119                 0.1503                 0.1246
 IR Inten    --     40.3669                 0.0112                 1.1687

                     16                     17                     18
                      A                      A                      A
 Frequencies --    429.3757               469.4757               498.5826
 Red. masses --      2.4215                 2.3482                 3.1137
 Frc consts  --      0.2630                 0.3049                 0.4560
 IR Inten    --      4.4877                 2.9352                 5.2766

                     19                     20                     21
                      A                      A                      A
 Frequencies --    509.4069               583.1443               662.0931
 Red. masses --      3.4154                 2.7993                 3.1807
 Frc consts  --      0.5222                 0.5609                 0.8215
 IR Inten    --     33.1879                 0.0278                40.6512

                     22                     23                     24
                      A                      A                      A
 Frequencies --    666.0385               817.3524               835.6454
 Red. masses --      2.3470                 1.4163                 1.9398
 Frc consts  --      0.6134                 0.5575                 0.7981
 IR Inten    --      4.1465               365.5165               211.6350

                     25                     26                     27
                      A                      A                      A
 Frequencies --    877.2398               893.7806               933.0715
 Red. masses --      2.3828                 2.5592                 1.2199
 Frc consts  --      1.0804                 1.2045                 0.6257
 IR Inten    --      3.1102                 1.5504                 0.8563

                     28                     29                     30
                      A                      A                      A
 Frequencies --    938.4521               972.4009               973.6455
 Red. masses --      1.2225                 1.4430                 1.4600
 Frc consts  --      0.6343                 0.8039                 0.8155
 IR Inten    --      0.0587                 0.1994                 0.3198

                     31                     32                     33
                      A                      A                      A
 Frequencies --    995.2304              1026.4603              1132.4583
 Red. masses --      2.2424                 1.6025                 2.2418
 Frc consts  --      1.3086                 0.9948                 1.6939
 IR Inten    --      6.8482                 5.0146                 2.3029

                     34                     35                     36
                      A                      A                      A
 Frequencies --   1135.6539              1141.3912              1146.5812
 Red. masses --      1.3745                 1.5667                 2.3829
 Frc consts  --      1.0445                 1.2026                 1.8457
 IR Inten    --      7.1728                11.9952                 6.6381

                     37                     38                     39
                      A                      A                      A
 Frequencies --   1179.6721              1196.3700              1264.0208
 Red. masses --      1.9736                 1.7377                 1.7295
 Frc consts  --      1.6182                 1.4654                 1.6281
 IR Inten    --      4.0671                 7.7083                 0.6295

                     40                     41                     42
                      A                      A                      A
 Frequencies --   1269.9188              1352.4325              1369.0365
 Red. masses --      3.4140                 1.3152                 1.2984
 Frc consts  --      3.2439                 1.4173                 1.4338
 IR Inten    --      0.5616                 9.2642                 0.0003

                     43                     44                     45
                      A                      A                      A
 Frequencies --   1382.4833              1410.7461              1422.3285
 Red. masses --      2.2710                 1.4417                 1.2396
 Frc consts  --      2.5573                 1.6905                 1.4775
 IR Inten    --     27.9101                22.1224                 7.2604

                     46                     47                     48
                      A                      A                      A
 Frequencies --   1422.4382              1435.8760              1440.3194
 Red. masses --      1.2265                 1.3618                 1.2409
 Frc consts  --      1.4621                 1.6542                 1.5167
 IR Inten    --      0.4751                 0.0251                 2.8704

                     49                     50                     51
                      A                      A                      A
 Frequencies --   1450.1489              1514.5192              1520.1676
 Red. masses --      1.2161                 1.0442                 1.0453
 Frc consts  --      1.5068                 1.4112                 1.4232
 IR Inten    --      1.7757                 1.6227                 0.4097

                     52                     53                     54
                      A                      A                      A
 Frequencies --   1521.4580              1523.2952              1536.1296
 Red. masses --      1.0494                 1.0483                 1.0486
 Frc consts  --      1.4313                 1.4331                 1.4579
 IR Inten    --      1.7250                 3.8545                 0.5418

                     55                     56                     57
                      A                      A                      A
 Frequencies --   1540.9175              1545.5971              1547.3049
 Red. masses --      1.0485                 1.0540                 1.0534
 Frc consts  --      1.4668                 1.4834                 1.4860
 IR Inten    --      5.1186                 6.9498                 0.0993

                     58                     59                     60
                      A                      A                      A
 Frequencies --   1690.0324              1692.6103              1742.6892
 Red. masses --      1.1328                 1.3218                 3.2418
 Frc consts  --      1.9062                 2.2312                 5.8006
 IR Inten    --     93.9955                 5.5019               218.5094

                     61                     62                     63
                      A                      A                      A
 Frequencies --   3026.8521              3028.3316              3039.8931
 Red. masses --      1.0814                 1.0805                 1.0409
 Frc consts  --      5.8371                 5.8382                 5.6674
 IR Inten    --     23.4794                24.0788                77.6750

                     64                     65                     66
                      A                      A                      A
 Frequencies --   3040.0014              3050.3599              3054.6098
 Red. masses --      1.0405                 1.0375                 1.0403
 Frc consts  --      5.6653                 5.6879                 5.7191
 IR Inten    --      0.0822                28.6369                32.0226

                     67                     68                     69
                      A                      A                      A
 Frequencies --   3100.3442              3100.7237              3111.8154
 Red. masses --      1.1004                 1.1004                 1.0995
 Frc consts  --      6.2320                 6.2333                 6.2732
 IR Inten    --     30.6514                38.5902               109.2800

                     70                     71                     72
                      A                      A                      A
 Frequencies --   3113.2594              3130.6318              3136.0756
 Red. masses --      1.0994                 1.1026                 1.0991
 Frc consts  --      6.2783                 6.3667                 6.3688
 IR Inten    --     15.6102                29.0245                 7.0000

                     73                     74                     75
                      A                      A                      A
 Frequencies --   3137.1061              3145.1026              3513.0822
 Red. masses --      1.0980                 1.0977                 1.0543
 Frc consts  --      6.3669                 6.3974                 7.6666
 IR Inten    --     31.6914                44.7890                 0.0082

                     76                     77                     78
                      A                      A                      A
 Frequencies --   3513.2968              3631.2869              3631.4094
 Red. masses --      1.0551                 1.0878                 1.0886
 Frc consts  --      7.6731                 8.4511                 8.4579
 IR Inten    --      4.7663                 5.5520                 3.0627

 - Thermochemistry -
 -------------------
 Temperature   298.150 Kelvin.  Pressure   1.00000 Atm.
 Atom     1 has atomic number  6 and mass  12.00000

 Molecular mass:   142.14700 amu.
 Principal axes and moments of inertia in atomic units:
                           1         2         3
     Eigenvalues --  1318.547841593.257242239.65863
           X            1.00000  -0.00007  -0.00000
           Y            0.00007   0.99989   0.01455
           Z            0.00000  -0.01455   0.99989
 This molecule is an asymmetric top.
 Rotational symmetry number  1.
 Warning -- assumption of classical behavior for rotation
           may cause significant error
 Rotational temperatures (Kelvin)      0.06569     0.05436     0.03867
 Rotational constants (GHZ):           1.36873     1.13274     0.80581
 Zero-point vibrational energy     679542.2 (Joules/Mol)
                                  162.41449 (Kcal/Mol)
 Warning -- explicit consideration of  20 degrees of freedom as
           vibrations may cause significant error
 Vibrational temperatures:     62.44   144.32   156.63   254.09   301.05
          (Kelvin)            332.13   332.70   355.07   387.38   406.34
                              418.49   441.77   467.01   481.32   492.69
                              617.78   675.47   717.35   732.92   839.01
                              952.60   958.28  1175.99  1202.31  1262.15
                             1285.95  1342.48  1350.22  1399.07  1400.86
                             1431.91  1476.85  1629.35  1633.95  1642.21
                             1649.67  1697.29  1721.31  1818.64  1827.13
                             1945.85  1969.74  1989.09  2029.75  2046.41
                             2046.57  2065.91  2072.30  2086.44  2179.06
                             2187.18  2189.04  2191.68  2210.15  2217.04
                             2223.77  2226.23  2431.58  2435.29  2507.34
                             4354.97  4357.09  4373.73  4373.88  4388.79
                             4394.90  4460.70  4461.25  4477.21  4479.29
                             4504.28  4512.11  4513.60  4525.10  5054.54
                             5054.85  5224.61  5224.79

 Zero-point correction=                           0.258824 (Hartree/Particle)
 Thermal correction to Energy=                    0.271657
 Thermal correction to Enthalpy=                  0.272601
 Thermal correction to Gibbs Free Energy=         0.221225
 Sum of electronic and zero-point Energies=           -424.959953
 Sum of electronic and thermal Energies=              -424.947120
 Sum of electronic and thermal Enthalpies=            -424.946176
 Sum of electronic and thermal Free Energies=         -424.997552

                     E (Thermal)             CV                S
                      KCal/Mol        Cal/Mol-Kelvin    Cal/Mol-Kelvin
 Total                  170.467             48.602            108.131
 Electronic               0.000              0.000              0.000
 Translational            0.889              2.981             40.766
 Rotational               0.889              2.981             29.932
 Vibrational            168.690             42.640             37.433
 Vibration     1          0.595              1.980              5.097
 Vibration     2          0.604              1.949              3.448
 Vibration     3          0.606              1.942              3.289
 Vibration     4          0.628              1.871              2.364
 Vibration     5          0.642              1.827              2.050
 Vibration     6          0.653              1.794              1.872
 Vibration     7          0.653              1.793              1.869
 Vibration     8          0.661              1.768              1.753
 Vibration     9          0.674              1.730              1.601
 Vibration    10          0.681              1.706              1.519
 Vibration    11          0.687              1.691              1.469
 Vibration    12          0.697              1.660              1.378
 Vibration    13          0.709              1.626              1.287
 Vibration    14          0.716              1.607              1.238
 Vibration    15          0.722              1.591              1.201
 Vibration    16          0.791              1.406              0.861
 Vibration    17          0.827              1.318              0.739
 Vibration    18          0.854              1.253              0.662
 Vibration    19          0.865              1.229              0.635
 Vibration    20          0.940              1.068              0.480

                           ! Non-Optimized Parameters !

 1\1\GINC-NODE109\Freq\RB3LYP\6-31G(d)\C8H18N2\VSC10255\08-Dec-2020\0\\
 #N Geom=AllCheck Guess=TCheck SCRF=Check GenChk RB3LYP/6-31G(d) Freq\\
 CID_23288564_JID_821_neutraal\\0,1\C,1.0192018945,0.1198222648,-0.0498
 112771\C,0.3831881485,1.5219196913,-0.0620808318\C,1.0994805695,2.4383
 081275,-1.0766489007\C,-1.1386416731,1.5314515814,-0.2023305321\C,-1.8
 641101957,2.3561662897,0.5925886403\N,-3.2741629957,2.4829627902,0.576
 2336496\N,-1.3333902301,3.2291458173,1.5727940037\C,-1.8705199676,0.64
 29186336,-1.207634273\C,-1.237363421,0.6024430188,-2.6105031321\C,-2.1

 Normal termination of Gaussian 16 at Tue Dec  8 13:08:53 2020.

 ----------------------------------------------------------------------
 # B3LYP/6-311++G(d,p) empiricaldispersion=gd3bj scf=xqc pop=npa geom=c
 heck
 ----------------------------------------------------------------------

 -------------------------------------
 CID_23288564_JID_821_Energie_neutraal
 -------------------------------------
 Structure from the checkpoint file:  "JID_821.chk"
 Charge =  0 Multiplicity = 1

 SCF Done:  E(RB3LYP) =  -425.354872695     A.U. after   14 cycles
 Normal termination of Gaussian 16 at Tue Dec  8 13:17:20 2020.

 ----------------------------------------------------------------------
 # B3LYP/6-311++G(d,p) empiricaldispersion=gd3bj scf=xqc pop=npa geom=c
 heck
 ----------------------------------------------------------------------

 -----------------------------------
 CID_23288564_JID_821_Energie_kation
 -----------------------------------
 Structure from the checkpoint file:  "JID_821.chk"
 Charge =  1 Multiplicity = 2

 SCF Done:  E(UB3LYP) =  -425.097182303     A.U. after   17 cycles
 Normal termination of Gaussian 16 at Tue Dec  8 13:29:52 2020.
 Gaussian 16:  ES64L-G16RevA.03 25-Dec-2016

 ----------------------------------
 CID_23288564_JID_821_Energie_anion
 ----------------------------------
 Structure from the checkpoint file:  "JID_821.chk"
 Charge = -1 Multiplicity = 2

                         Standard orientation:
 ---------------------------------------------------------------------
 Center     Atomic      Atomic             Coordinates (Angstroms)
 Number     Number       Type             X           Y           Z
 ---------------------------------------------------------------------
      1          6           0       -1.687674   -1.161132    1.274114
      2          6           0       -0.501598   -1.303695    0.302806
      3          6           0       -0.921907   -2.080295   -0.963062
      4          6           0        0.235801    0.000217   -0.000154
      5          6           0        1.591661    0.000704   -0.000052
      6          7           0        2.413280    1.122214   -0.267914
      7          7           0        2.413753   -1.120376    0.268100
      8          6           0       -0.502896    1.303484   -0.302796
      9          6           0       -1.688649    1.159943   -1.274369
     10          6           0       -0.924332    2.079241    0.963209
     11          1           0       -2.509001   -0.574054    0.853834
     12          1           0       -1.373990   -0.684192    2.208085
     13          1           0       -2.089043   -2.152062    1.518571
     14          1           0        0.198225   -1.953124    0.843948
     15          1           0       -1.695442   -1.549272   -1.524785
     16          1           0       -0.066762   -2.222775   -1.633725
     17          1           0       -1.320595   -3.068941   -0.700824
     18          1           0        3.231839    1.108978    0.335529
     19          1           0        1.934677    2.003879   -0.136352
     20          1           0        1.935507   -2.002270    0.136719
     21          1           0        3.232354   -1.106913   -0.335275
     22          1           0        0.196224    1.953893   -0.843628
     23          1           0       -2.509377    0.571781   -0.854435
     24          1           0       -2.091107    2.150500   -1.518547
     25          1           0       -1.374241    0.683689   -2.208444
     26          1           0       -0.069482    2.222438    1.634092
     27          1           0       -1.324009    3.067533    0.701146
     28          1           0       -1.697442    1.547253    1.524612
 ---------------------------------------------------------------------

 SCF Done:  E(UB3LYP) =  -425.339961112     A.U. after   31 cycles

 The electronic state is 2-A.
 Alpha  occ. eigenvalues --  -14.19689 -14.19687 -10.11318 -10.06678 -10.06677
 Alpha  occ. eigenvalues --  -10.05122 -10.05122 -10.04689 -10.04689 -10.03296
 Alpha  occ. eigenvalues --   -0.83112  -0.74452  -0.70720  -0.66653  -0.59642
 Alpha  occ. eigenvalues --   -0.57953  -0.57103  -0.48852  -0.48199  -0.43163
 Alpha  occ. eigenvalues --   -0.40749  -0.38515  -0.34560  -0.33518  -0.32845
 Alpha  occ. eigenvalues --   -0.32073  -0.32065  -0.30198  -0.29412  -0.28057
 Alpha  occ. eigenvalues --   -0.27086  -0.25718  -0.25371  -0.23734  -0.23165
 Alpha  occ. eigenvalues --   -0.22852  -0.22120  -0.19125  -0.15642  -0.07445
 Alpha  occ. eigenvalues --    0.04726
 Alpha virt. eigenvalues --    0.07110   0.07317   0.08436   0.09359   0.09679
 Alpha virt. eigenvalues --    0.10246   0.10803   0.11230   0.12191   0.12770
 Alpha virt. eigenvalues --    0.13522   0.13581   0.13925   0.14742   0.14885

  Beta  occ. eigenvalues --  -14.19635 -14.19633 -10.11311 -10.06666 -10.06665
  Beta  occ. eigenvalues --  -10.05104 -10.05104 -10.04663 -10.04663 -10.03297
  Beta  occ. eigenvalues --   -0.83046  -0.74348  -0.70690  -0.66621  -0.59601
  Beta  occ. eigenvalues --   -0.57907  -0.57052  -0.48768  -0.48137  -0.43108
  Beta  occ. eigenvalues --   -0.40711  -0.38443  -0.34497  -0.33466  -0.32810
  Beta  occ. eigenvalues --   -0.32043  -0.32017  -0.30169  -0.29383  -0.28036
  Beta  occ. eigenvalues --   -0.27061  -0.25690  -0.25327  -0.23696  -0.23127
  Beta  occ. eigenvalues --   -0.22821  -0.22081  -0.19098  -0.15584  -0.07426
  Beta virt. eigenvalues --    0.06968   0.07986   0.08282   0.08767   0.10128
  Beta virt. eigenvalues --    0.10220   0.10463   0.11140   0.11635   0.12784
  Beta virt. eigenvalues --    0.13108   0.13829   0.13993   0.14117   0.15054

 Mulliken charges and spin densities:
               1          2
     1  C    0.304592  -0.983952
     2  C   -1.339350   1.482726
     3  C    0.422569  -1.037581
     4  C    3.993754  -3.033098
     5  C   -1.633428   0.712540
     6  N   -0.247340  -0.077925
     7  N   -0.246959  -0.078256
     8  C   -1.340137   1.483817
     9  C    0.304930  -0.984351
    10  C    0.422439  -1.037452
    11  H    0.004574   0.118561
    12  H   -0.016224   0.160060
    13  H   -0.032083   0.175335
    14  H   -0.082099   0.226930
    15  H    0.081461   0.048935
    16  H   -0.029276   0.184836
    17  H   -0.268557   0.394550
    18  H   -0.371289   0.623716
    19  H   -0.106897   0.343710
    20  H   -0.106725   0.343549
    21  H   -0.371312   0.623747
    22  H   -0.082399   0.227249
    23  H    0.004650   0.118462
    24  H   -0.032167   0.175398
    25  H   -0.016206   0.160034
    26  H   -0.029431   0.185006
    27  H   -0.268534   0.394517
    28  H    0.081444   0.048937
 Sum of Mulliken charges =  -1.00000   1.00000

 Dipole moment (field-independent basis, Debye):
    X=             -4.6913    Y=             -0.0031    Z=             -0.0006  Tot=              4.6913
 Quadrupole moment (field-independent basis, Debye-Ang):
   XX=           -118.0543   YY=           -114.3037   ZZ=            -95.6912
   XY=             -0.0014   XZ=             -0.0006   YZ=             -0.7438

 Summary of Natural Population Analysis:

                                       Natural Population
                Natural  -----------------------------------------------
    Atom  No    Charge         Core      Valence    Rydberg      Total
 -----------------------------------------------------------------------
      C    1   -0.27962      0.99965     2.27520    0.00478     3.27962
      C    2   -0.11805      0.99959     2.10689    0.01158     3.11805
      C    3   -0.28318      0.99964     2.27694    0.00660     3.28318
      C    4   -0.09028      0.99939     2.07531    0.01558     3.09028
      C    5    0.18767      0.99941     1.80019    0.01272     2.81233
      N    6   -0.41207      0.99972     2.90118    0.01117     3.91207
      N    7   -0.41208      0.99972     2.90118    0.01118     3.91208
      C    8   -0.11805      0.99959     2.10689    0.01158     3.11805
      C    9   -0.27962      0.99965     2.27519    0.00478     3.27962
      C   10   -0.28318      0.99964     2.27694    0.00660     3.28318
      H   11    0.09301      0.00000     0.40594    0.00104     0.40699
      H   12    0.10037      0.00000     0.39854    0.00109     0.39963
      H   13    0.09599      0.00000     0.40312    0.00089     0.40401
      H   14    0.09366      0.00000     0.40406    0.00228     0.40634
      H   15    0.09554      0.00000     0.40330    0.00117     0.40446
      H   16    0.10068      0.00000     0.39816    0.00116     0.39932
      H   17    0.09355      0.00000     0.40541    0.00104     0.40645
      H   18    0.18519      0.00000     0.31098    0.00383     0.31481
      H   19    0.18624      0.00000     0.31056    0.00320     0.31376
      H   20    0.18624      0.00000     0.31056    0.00320     0.31376
      H   21    0.18519      0.00000     0.31099    0.00383     0.31481
      H   22    0.09367      0.00000     0.40405    0.00228     0.40633
      H   23    0.09301      0.00000     0.40594    0.00104     0.40699
      H   24    0.09598      0.00000     0.40312    0.00089     0.40402
      H   25    0.10036      0.00000     0.39854    0.00109     0.39964
      H   26    0.10068      0.00000     0.39816    0.00116     0.39932
      H   27    0.09356      0.00000     0.40540    0.00104     0.40644
      H   28    0.09554      0.00000     0.40330    0.00117     0.40446
 =======================================================================
   * Total *   -0.00000      9.99600    29.87602    0.12798    40.00000

 Normal termination of Gaussian 16 at Tue Dec  8 13:45:06 2020.
