 Gaussian 16, Revision A.03,

 -----------------------------------------------------------
 # opt freq B3LYP/6-31G(d) empiricaldispersion=gd3bj scf=xqc
 -----------------------------------------------------------

 -------------------------------
 CID_105357425_JID_3153_neutraal
 -------------------------------
 Symbolic Z-matrix:
 Charge =  0 Multiplicity = 1

 SCF Done:  E(RB3LYP) =  -600.123494332     A.U. after   13 cycles
 SCF Done:  E(RB3LYP) =  -600.127724187     A.U. after   11 cycles
 SCF Done:  E(RB3LYP) =  -600.126843531     A.U. after   11 cycles
 SCF Done:  E(RB3LYP) =  -600.127864420     A.U. after   11 cycles
 SCF Done:  E(RB3LYP) =  -600.128552001     A.U. after   12 cycles
 SCF Done:  E(RB3LYP) =  -600.129471697     A.U. after   10 cycles
 SCF Done:  E(RB3LYP) =  -600.129542109     A.U. after   10 cycles
 SCF Done:  E(RB3LYP) =  -600.129584464     A.U. after   10 cycles
 SCF Done:  E(RB3LYP) =  -600.129621067     A.U. after    9 cycles
 SCF Done:  E(RB3LYP) =  -600.129635661     A.U. after   10 cycles
 SCF Done:  E(RB3LYP) =  -600.129653303     A.U. after    7 cycles
 SCF Done:  E(RB3LYP) =  -600.129653978     A.U. after    7 cycles
 SCF Done:  E(RB3LYP) =  -600.129654183     A.U. after    8 cycles
 SCF Done:  E(RB3LYP) =  -600.129654296     A.U. after    7 cycles
 SCF Done:  E(RB3LYP) =  -600.129654293     A.U. after    6 cycles
 SCF Done:  E(RB3LYP) =  -600.129654289     A.U. after    5 cycles
 Optimization completed.
    -- Stationary point found.
 Normal termination of Gaussian 16 at Wed Dec  9 22:35:25 2020.

 --------------------------------------------------------------------
 #N Geom=AllCheck Guess=TCheck SCRF=Check GenChk RB3LYP/6-31G(d) Freq
 --------------------------------------------------------------------

 Structure from the checkpoint file:  "JID_3153.chk"
 -------------------------------
 CID_105357425_JID_3153_neutraal
 -------------------------------
 Charge =  0 Multiplicity = 1

 SCF Done:  E(RB3LYP) =  -600.129654289     A.U. after    1 cycles

  Exact polarizability: 132.476   1.892 121.759  -3.434  -1.682 106.401
 Approx polarizability: 164.797   0.470 165.807  -6.922  -0.844 154.218

                      1                      2                      3
                      A                      A                      A
 Frequencies --     23.0408                57.2749                82.0700
 Red. masses --      3.3691                 3.3835                 2.8474
 Frc consts  --      0.0011                 0.0065                 0.0113
 IR Inten    --      0.2323                 0.3513                 2.1224

                      4                      5                      6
                      A                      A                      A
 Frequencies --     97.8510               107.9957               128.3031
 Red. masses --      1.9339                 2.6822                 2.3282
 Frc consts  --      0.0109                 0.0184                 0.0226
 IR Inten    --      2.5560                 2.1509                 0.6208

                      7                      8                      9
                      A                      A                      A
 Frequencies --    165.4357               172.0097               198.5125
 Red. masses --      2.2324                 1.4543                 2.0435
 Frc consts  --      0.0360                 0.0254                 0.0474
 IR Inten    --      0.8268                 2.4623                 1.8199

                     10                     11                     12
                      A                      A                      A
 Frequencies --    204.6269               231.0343               238.5936
 Red. masses --      2.3760                 1.4588                 1.3109
 Frc consts  --      0.0586                 0.0459                 0.0440
 IR Inten    --      3.0984                 0.7238                 0.1276

                     13                     14                     15
                      A                      A                      A
 Frequencies --    251.7709               273.8763               286.2301
 Red. masses --      1.1366                 1.9942                 1.8129
 Frc consts  --      0.0425                 0.0881                 0.0875
 IR Inten    --      0.1176                 1.2147                 2.2634

                     16                     17                     18
                      A                      A                      A
 Frequencies --    313.5067               333.7081               341.8314
 Red. masses --      1.5523                 1.8431                 2.6941
 Frc consts  --      0.0899                 0.1209                 0.1855
 IR Inten    --      0.3546                 0.5875                 1.2742

                     19                     20                     21
                      A                      A                      A
 Frequencies --    371.9250               394.3958               426.2224
 Red. masses --      2.3898                 2.6944                 1.9564
 Frc consts  --      0.1948                 0.2469                 0.2094
 IR Inten    --      4.6592                 3.5805                 0.4095

                     22                     23                     24
                      A                      A                      A
 Frequencies --    439.7409               470.8546               474.9865
 Red. masses --      3.0781                 2.9520                 2.4613
 Frc consts  --      0.3507                 0.3856                 0.3272
 IR Inten    --      4.1662                15.0240                 8.5139

                     25                     26                     27
                      A                      A                      A
 Frequencies --    558.0499               622.7823               648.5212
 Red. masses --      3.1400                 2.9643                 2.2417
 Frc consts  --      0.5761                 0.6774                 0.5555
 IR Inten    --      1.3066                33.4162                59.2048

                     28                     29                     30
                      A                      A                      A
 Frequencies --    705.4361               790.2583               799.7925
 Red. masses --      2.4792                 1.2464                 1.2887
 Frc consts  --      0.7269                 0.4586                 0.4857
 IR Inten    --      4.4193                 0.6006                 4.0118

                     31                     32                     33
                      A                      A                      A
 Frequencies --    867.2945               887.8764               940.1971
 Red. masses --      1.9530                 1.8554                 1.9268
 Frc consts  --      0.8655                 0.8618                 1.0035
 IR Inten    --      5.3950                 3.3305                33.4342

                     34                     35                     36
                      A                      A                      A
 Frequencies --    970.0488               987.9656              1022.2729
 Red. masses --      3.5471                 2.0382                 1.5682
 Frc consts  --      1.9666                 1.1721                 0.9656
 IR Inten    --     22.9480                 9.4125                 5.8946

                     37                     38                     39
                      A                      A                      A
 Frequencies --   1028.5728              1036.7714              1068.2484
 Red. masses --      1.9012                 3.6254                 2.2391
 Frc consts  --      1.1851                 2.2960                 1.5055
 IR Inten    --     18.9094                33.2813                 4.4271

                     40                     41                     42
                      A                      A                      A
 Frequencies --   1069.4104              1103.9865              1109.5105
 Red. masses --      1.8575                 1.7819                 1.7496
 Frc consts  --      1.2516                 1.2795                 1.2690
 IR Inten    --     11.9154                 6.9890                 2.4942

                     43                     44                     45
                      A                      A                      A
 Frequencies --   1142.6489              1153.9864              1178.3312
 Red. masses --      4.7354                 3.7878                 3.0095
 Frc consts  --      3.6427                 2.9719                 2.4619
 IR Inten    --    153.4437               200.1783                34.7861

                     46                     47                     48
                      A                      A                      A
 Frequencies --   1188.8634              1189.8197              1192.2710
 Red. masses --      1.9763                 1.5571                 1.2864
 Frc consts  --      1.6458                 1.2988                 1.0774
 IR Inten    --     17.0852                 4.1623                 2.3369

                     49                     50                     51
                      A                      A                      A
 Frequencies --   1229.2646              1235.9037              1240.3326
 Red. masses --      1.7821                 1.7370                 1.8891
 Frc consts  --      1.5866                 1.5632                 1.7123
 IR Inten    --      2.8342                21.2271                74.9863

                     52                     53                     54
                      A                      A                      A
 Frequencies --   1250.2411              1304.0284              1332.1539
 Red. masses --      2.0432                 1.1891                 1.2318
 Frc consts  --      1.8816                 1.1913                 1.2879
 IR Inten    --     13.0441                 6.2759                 0.9951

                     55                     56                     57
                      A                      A                      A
 Frequencies --   1357.9170              1364.8345              1388.3497
 Red. masses --      1.2470                 1.3486                 1.4339
 Frc consts  --      1.3547                 1.4801                 1.6284
 IR Inten    --      6.0376                 9.9979                 0.0390

                     58                     59                     60
                      A                      A                      A
 Frequencies --   1396.8855              1402.5768              1423.0349
 Red. masses --      1.4536                 1.2013                 1.3051
 Frc consts  --      1.6712                 1.3924                 1.5571
 IR Inten    --      0.6181                34.7654                 4.9961

                     61                     62                     63
                      A                      A                      A
 Frequencies --   1431.2850              1436.3368              1455.1319
 Red. masses --      1.2652                 1.2443                 1.2168
 Frc consts  --      1.5270                 1.5124                 1.5179
 IR Inten    --      8.5731                 5.4024                 4.5759

                     64                     65                     66
                      A                      A                      A
 Frequencies --   1495.2362              1500.2142              1504.8087
 Red. masses --      1.1450                 1.0924                 1.1106
 Frc consts  --      1.5083                 1.4486                 1.4817
 IR Inten    --      1.2285                 1.3420                 2.8982

                     67                     68                     69
                      A                      A                      A
 Frequencies --   1507.3947              1516.3244              1518.6003
 Red. masses --      1.1192                 1.0669                 1.0777
 Frc consts  --      1.4983                 1.4452                 1.4643
 IR Inten    --      9.8207                 2.1709                 6.5341

                     70                     71                     72
                      A                      A                      A
 Frequencies --   1524.8003              1527.6159              1529.8654
 Red. masses --      1.0662                 1.0588                 1.0650
 Frc consts  --      1.4605                 1.4558                 1.4686
 IR Inten    --      5.5559                 2.7600                 5.3601

                     73                     74                     75
                      A                      A                      A
 Frequencies --   1534.0289              1539.5975              1541.7555
 Red. masses --      1.0620                 1.0800                 1.0530
 Frc consts  --      1.4725                 1.5083                 1.4747
 IR Inten    --      3.4401                22.1235                 4.3555

                     76                     77                     78
                      A                      A                      A
 Frequencies --   1545.2891              1545.7293              1552.1186
 Red. masses --      1.0550                 1.0457                 1.0697
 Frc consts  --      1.4842                 1.4720                 1.5183
 IR Inten    --      8.9148                 3.1971                 0.7948

                     79                     80                     81
                      A                      A                      A
 Frequencies --   1556.5059              2990.9057              3018.2159
 Red. masses --      1.1208                 1.0371                 1.0634
 Frc consts  --      1.5998                 5.4662                 5.7078
 IR Inten    --      1.6494                49.5600                29.6407

                     82                     83                     84
                      A                      A                      A
 Frequencies --   3030.7102              3035.7481              3040.6695
 Red. masses --      1.0464                 1.0992                 1.0465
 Frc consts  --      5.6631                 5.9682                 5.7007
 IR Inten    --     28.3369                27.1764                41.7695

                     85                     86                     87
                      A                      A                      A
 Frequencies --   3044.0924              3045.5899              3054.9352
 Red. masses --      1.0675                 1.0622                 1.0472
 Frc consts  --      5.8283                 5.8048                 5.7581
 IR Inten    --     57.8702                16.8977                30.4706

                     88                     89                     90
                      A                      A                      A
 Frequencies --   3058.5228              3060.8425              3065.4822
 Red. masses --      1.0409                 1.0837                 1.0846
 Frc consts  --      5.7370                 5.9818                 6.0048
 IR Inten    --     20.2010                28.3487                78.9820

                     91                     92                     93
                      A                      A                      A
 Frequencies --   3083.1524              3098.5370              3107.7775
 Red. masses --      1.0998                 1.1014                 1.0943
 Frc consts  --      6.1594                 6.2306                 6.2274
 IR Inten    --     21.9480                45.5346                40.6679

                     94                     95                     96
                      A                      A                      A
 Frequencies --   3114.2407              3116.1198              3131.0528
 Red. masses --      1.1016                 1.1001                 1.0944
 Frc consts  --      6.2945                 6.2939                 6.3216
 IR Inten    --     19.3364                61.5740                58.1090

                     97                     98                     99
                      A                      A                      A
 Frequencies --   3132.2139              3139.6718              3146.6882
 Red. masses --      1.0952                 1.1014                 1.0989
 Frc consts  --      6.3307                 6.3968                 6.4110
 IR Inten    --      8.0886                24.7708                 8.3691

                    100                    101                    102
                      A                      A                      A
 Frequencies --   3146.8129              3151.9686              3536.7358
 Red. masses --      1.0957                 1.1046                 1.0733
 Frc consts  --      6.3927                 6.4660                 7.9097
 IR Inten    --     32.7551                28.0159                 0.8789

 - Thermochemistry -
 -------------------
 Temperature   298.150 Kelvin.  Pressure   1.00000 Atm.
 Atom     1 has atomic number  6 and mass  12.00000

 Molecular mass:   189.17288 amu.
 Principal axes and moments of inertia in atomic units:
                           1         2         3
     Eigenvalues --  1662.856153844.335254450.40613
           X            0.99999   0.00019  -0.00510
           Y           -0.00026   0.99990  -0.01432
           Z            0.00510   0.01432   0.99988
 This molecule is an asymmetric top.
 Rotational symmetry number  1.
 Warning -- assumption of classical behavior for rotation
           may cause significant error
 Rotational temperatures (Kelvin)      0.05209     0.02253     0.01946
 Rotational constants (GHZ):           1.08533     0.46945     0.40552
 Zero-point vibrational energy     869610.7 (Joules/Mol)
                                  207.84195 (Kcal/Mol)
 Warning -- explicit consideration of  25 degrees of freedom as
           vibrations may cause significant error
 Vibrational temperatures:     33.15    82.41   118.08   140.79   155.38
          (Kelvin)            184.60   238.03   247.48   285.62   294.41
                              332.41   343.28   362.24   394.05   411.82
                              451.07   480.13   491.82   535.12   567.45
                              613.24   632.69   677.45   683.40   802.91
                              896.04   933.08  1014.97  1137.01  1150.72
                             1247.84  1277.46  1352.73  1395.68  1421.46
                             1470.82  1479.89  1491.68  1536.97  1538.64
                             1588.39  1596.34  1644.02  1660.33  1695.36
                             1710.51  1711.89  1715.41  1768.64  1778.19
                             1784.56  1798.82  1876.21  1916.67  1953.74
                             1963.69  1997.53  2009.81  2018.00  2047.43
                             2059.30  2066.57  2093.61  2151.31  2158.47
                             2165.08  2168.80  2181.65  2184.93  2193.85
                             2197.90  2201.14  2207.13  2215.14  2218.24
                             2223.33  2223.96  2233.15  2239.46  4303.25
                             4342.54  4360.52  4367.76  4374.85  4379.77
                             4381.92  4395.37  4400.53  4403.87  4410.55
                             4435.97  4458.10  4471.40  4480.70  4483.40
                             4504.89  4506.56  4517.29  4527.38  4527.56
                             4534.98  5088.57

 Zero-point correction=                           0.331217 (Hartree/Particle)
 Thermal correction to Energy=                    0.347768
 Thermal correction to Enthalpy=                  0.348712
 Thermal correction to Gibbs Free Energy=         0.287688
 Sum of electronic and zero-point Energies=           -599.798437
 Sum of electronic and thermal Energies=              -599.781887
 Sum of electronic and thermal Enthalpies=            -599.780942
 Sum of electronic and thermal Free Energies=         -599.841966

                     E (Thermal)             CV                S
                      KCal/Mol        Cal/Mol-Kelvin    Cal/Mol-Kelvin
 Total                  218.228             61.229            128.436
 Electronic               0.000              0.000              0.000
 Translational            0.889              2.981             41.618
 Rotational               0.889              2.981             31.720
 Vibrational            216.450             55.267             55.097
 Vibration     1          0.593              1.985              6.353
 Vibration     2          0.596              1.975              4.549
 Vibration     3          0.600              1.961              3.841
 Vibration     4          0.603              1.951              3.497
 Vibration     5          0.606              1.943              3.305
 Vibration     6          0.611              1.925              2.971
 Vibration     7          0.624              1.885              2.487
 Vibration     8          0.626              1.877              2.413
 Vibration     9          0.637              1.842              2.147
 Vibration    10          0.640              1.833              2.091
 Vibration    11          0.653              1.794              1.871
 Vibration    12          0.657              1.781              1.813
 Vibration    13          0.664              1.760              1.718
 Vibration    14          0.676              1.722              1.572
 Vibration    15          0.684              1.699              1.496
 Vibration    16          0.701              1.648              1.344
 Vibration    17          0.715              1.608              1.242
 Vibration    18          0.721              1.592              1.204
 Vibration    19          0.744              1.530              1.072
 Vibration    20          0.761              1.482              0.983
 Vibration    21          0.788              1.413              0.871
 Vibration    22          0.800              1.384              0.827
 Vibration    23          0.828              1.315              0.735
 Vibration    24          0.832              1.306              0.724
 Vibration    25          0.914              1.122              0.528

 Optimization completed.
    -- Stationary point found.
 Normal termination of Gaussian 16 at Wed Dec  9 22:47:16 2020.

 ----------------------------------------------------------------------
 # B3LYP/6-311++G(d,p) empiricaldispersion=gd3bj scf=xqc pop=npa geom=c
 heck
 ----------------------------------------------------------------------

 ---------------------------------------
 CID_105357425_JID_3153_Energie_neutraal
 ---------------------------------------
 Structure from the checkpoint file:  "JID_3153.chk"
 Charge =  0 Multiplicity = 1

 SCF Done:  E(RB3LYP) =  -600.308677836     A.U. after   13 cycles
 Normal termination of Gaussian 16 at Wed Dec  9 22:52:55 2020.

 ----------------------------------------------------------------------
 # B3LYP/6-311++G(d,p) empiricaldispersion=gd3bj scf=xqc pop=npa geom=c
 heck
 ----------------------------------------------------------------------

 -------------------------------------
 CID_105357425_JID_3153_Energie_kation
 -------------------------------------
 Structure from the checkpoint file:  "JID_3153.chk"
 Charge =  1 Multiplicity = 2

 SCF Done:  E(UB3LYP) =  -600.023724743     A.U. after   18 cycles
 Normal termination of Gaussian 16 at Wed Dec  9 23:03:24 2020.
 Gaussian 16:  ES64L-G16RevA.03 25-Dec-2016

 ----------------------------------------------------------------------
 # B3LYP/6-311++G(d,p) empiricaldispersion=gd3bj scf=xqc pop=npa geom=c
 heck
 ----------------------------------------------------------------------

 ------------------------------------
 CID_105357425_JID_3153_Energie_anion
 ------------------------------------
 Structure from the checkpoint file:  "JID_3153.chk"
 Charge = -1 Multiplicity = 2

                         Standard orientation:
 ---------------------------------------------------------------------
 Center     Atomic      Atomic             Coordinates (Angstroms)
 Number     Number       Type             X           Y           Z
 ---------------------------------------------------------------------
      1          6           0       -0.879039    2.401466    0.744332
      2          6           0       -1.802018    1.423900    0.002259
      3          6           0       -1.664955   -0.086500    0.321102
      4          6           0       -1.425563   -0.313056    1.829348
      5          6           0       -2.993502   -0.804648   -0.042419
      6          6           0       -3.453054   -0.632468   -1.490434
      7          7           0       -0.635670   -0.722374   -0.529908
      8          6           0        0.637367   -0.099071   -0.849641
      9          6           0        1.738961   -0.049657    0.246600
     10          8           0        2.642810   -1.142572    0.153699
     11          6           0        2.073827   -2.402375    0.431320
     12          8           0        2.497545    1.127031    0.206639
     13          6           0        3.244618    1.334153   -0.987812
     14          1           0       -1.079053    2.398925    1.820835
     15          1           0       -1.060525    3.420930    0.384843
     16          1           0        0.185100    2.191806    0.606229
     17          1           0       -2.836928    1.708229    0.231440
     18          1           0       -1.692125    1.555156   -1.080400
     19          1           0       -2.252385    0.093833    2.424536
     20          1           0       -1.361632   -1.387444    2.043037
     21          1           0       -0.504117    0.154998    2.182073
     22          1           0       -2.861646   -1.876471    0.167402
     23          1           0       -3.775849   -0.455914    0.644801
     24          1           0       -2.648974   -0.913615   -2.176327
     25          1           0       -4.325902   -1.261808   -1.696984
     26          1           0       -3.736552    0.403447   -1.705768
     27          1           0       -0.519089   -1.692303   -0.254342
     28          1           0        1.057953   -0.626193   -1.716216
     29          1           0        0.440551    0.923532   -1.177890
     30          1           0        1.280059   -0.052274    1.242798
     31          1           0        1.497602   -2.390388    1.370355
     32          1           0        1.416749   -2.757446   -0.377829
     33          1           0        2.900564   -3.110162    0.533671
     34          1           0        3.912554    0.490753   -1.188972
     35          1           0        2.594327    1.496166   -1.858271
     36          1           0        3.836311    2.236714   -0.820302
 ---------------------------------------------------------------------

 SCF Done:  E(UB3LYP) =  -600.293448509     A.U. after   28 cycles

 The electronic state is 2-A.
 Alpha  occ. eigenvalues --  -19.03650 -19.02993 -14.19294 -10.16840 -10.11883
 Alpha  occ. eigenvalues --  -10.11456 -10.10835 -10.09448 -10.06710 -10.06055
 Alpha  occ. eigenvalues --  -10.05974 -10.05650 -10.05114  -0.97748  -0.91738
 Alpha  occ. eigenvalues --   -0.80845  -0.70037  -0.65483  -0.64483  -0.61925
 Alpha  occ. eigenvalues --   -0.59063  -0.58044  -0.54475  -0.51345  -0.49559
 Alpha  occ. eigenvalues --   -0.45041  -0.42303  -0.41160  -0.39646  -0.38006
 Alpha  occ. eigenvalues --   -0.35873  -0.34886  -0.34286  -0.33799  -0.33147
 Alpha  occ. eigenvalues --   -0.32731  -0.32152  -0.31097  -0.29956  -0.28989
 Alpha  occ. eigenvalues --   -0.28364  -0.27880  -0.26896  -0.25848  -0.24528
 Alpha  occ. eigenvalues --   -0.23949  -0.23712  -0.23023  -0.21703  -0.21178
 Alpha  occ. eigenvalues --   -0.18811  -0.17143  -0.11341   0.04466
 Alpha virt. eigenvalues --    0.06545   0.06624   0.07524   0.08302   0.08977
 Alpha virt. eigenvalues --    0.09211   0.09775   0.09911   0.10726   0.11344
 Alpha virt. eigenvalues --    0.11808   0.12030   0.12621   0.12969   0.13634

  Beta  occ. eigenvalues --  -19.03644 -19.02985 -14.19278 -10.16837 -10.11867
  Beta  occ. eigenvalues --  -10.11405 -10.10835 -10.09435 -10.06690 -10.06033
  Beta  occ. eigenvalues --  -10.05960 -10.05624 -10.05096  -0.97733  -0.91721
  Beta  occ. eigenvalues --   -0.80820  -0.70010  -0.65454  -0.64451  -0.61890
  Beta  occ. eigenvalues --   -0.59006  -0.57989  -0.54425  -0.51286  -0.49517
  Beta  occ. eigenvalues --   -0.45000  -0.42263  -0.41140  -0.39614  -0.37981
  Beta  occ. eigenvalues --   -0.35834  -0.34859  -0.34256  -0.33771  -0.33120
  Beta  occ. eigenvalues --   -0.32691  -0.32125  -0.31070  -0.29930  -0.28964
  Beta  occ. eigenvalues --   -0.28331  -0.27850  -0.26860  -0.25802  -0.24501
  Beta  occ. eigenvalues --   -0.23920  -0.23686  -0.22993  -0.21678  -0.21140
  Beta  occ. eigenvalues --   -0.18799  -0.17121  -0.11323
  Beta virt. eigenvalues --    0.06507   0.07171   0.07596   0.07863   0.08784
  Beta virt. eigenvalues --    0.09509   0.09603   0.10140   0.10306   0.11123
  Beta virt. eigenvalues --    0.11655   0.12046   0.12266   0.12934   0.13291

 Mulliken charges and spin densities:
               1          2
     1  C    0.155404  -0.788774
     2  C   -0.160833  -0.281640
     3  C   -1.016151   1.162036
     4  C    0.482730  -1.133448
     5  C    0.346890  -0.412667
     6  C    0.019470  -0.582897
     7  N    0.082696   0.048649
     8  C    0.238528  -0.688802
     9  C   -0.955699   0.392102
    10  O   -0.148891   0.049252
    11  C    0.958201  -1.281411
    12  O   -0.049457   0.014717
    13  C    0.293000  -0.524526
    14  H    0.017629   0.123933
    15  H   -0.110380   0.256934
    16  H    0.127961   0.061244
    17  H   -0.107528   0.283380
    18  H    0.034899   0.119856
    19  H   -0.146905   0.300117
    20  H   -0.136076   0.306467
    21  H    0.004598   0.083252
    22  H   -0.351211   0.488283
    23  H   -0.079382   0.208141
    24  H   -0.074839   0.247702
    25  H   -0.171382   0.318386
    26  H   -0.116604   0.242237
    27  H    0.800413  -0.550668
    28  H    0.042592   0.199863
    29  H    0.278815  -0.112715
    30  H    0.326680  -0.019855
    31  H   -0.125552   0.255879
    32  H   -0.753649   0.904986
    33  H   -0.605560   0.773939
    34  H    0.031380   0.127402
    35  H   -0.163658   0.291941
    36  H    0.031874   0.116706
 Sum of Mulliken charges =  -1.00000   1.00000

 Dipole moment (field-independent basis, Debye):
    X=              1.1074    Y=              4.1032    Z=              0.0474  Tot=              4.2503
 Quadrupole moment (field-independent basis, Debye-Ang):
   XX=           -150.6872   YY=           -141.2488   ZZ=           -120.8318
   XY=              6.2941   XZ=             -0.2305   YZ=              0.0757

 Summary of Natural Population Analysis:

                                       Natural Population
                Natural  -----------------------------------------------
    Atom  No    Charge         Core      Valence    Rydberg      Total
 -----------------------------------------------------------------------
      C    1   -0.29242      0.99966     2.28677    0.00599     3.29242
      C    2   -0.19867      0.99958     2.18953    0.00956     3.19867
      C    3    0.06520      0.99955     1.92026    0.01499     2.93480
      C    4   -0.29535      0.99962     2.28767    0.00807     3.29535
      C    5   -0.18608      0.99959     2.17612    0.01036     3.18608
      C    6   -0.28735      0.99966     2.28311    0.00459     3.28735
      N    7   -0.35357      0.99971     2.84048    0.01338     3.85357
      C    8   -0.11620      0.99959     2.10463    0.01198     3.11620
      C    9    0.21737      0.99955     1.76466    0.01842     2.78263
      O   10   -0.30606      0.99987     3.29649    0.00970     4.30606
      C   11   -0.10092      0.99961     2.09142    0.00989     3.10092
      O   12   -0.29640      0.99988     3.28793    0.00859     4.29640
      C   13   -0.10361      0.99960     2.09577    0.00825     3.10361
      H   14    0.09658      0.00000     0.40253    0.00089     0.40342
      H   15    0.09826      0.00000     0.40097    0.00077     0.40174
      H   16    0.10229      0.00000     0.39593    0.00178     0.39771
      H   17    0.10088      0.00000     0.39795    0.00117     0.39912
      H   18    0.10146      0.00000     0.39721    0.00133     0.39854
      H   19    0.10029      0.00000     0.39864    0.00107     0.39971
      H   20    0.10178      0.00000     0.39674    0.00148     0.39822
      H   21    0.09735      0.00000     0.40143    0.00122     0.40265
      H   22    0.09594      0.00000     0.40261    0.00145     0.40406
      H   23    0.09502      0.00000     0.40367    0.00130     0.40498
      H   24    0.10581      0.00000     0.39273    0.00146     0.39419
      H   25    0.09642      0.00000     0.40269    0.00088     0.40358
      H   26    0.09399      0.00000     0.40487    0.00114     0.40601
      H   27    0.17804      0.00000     0.31800    0.00396     0.32196
      H   28    0.09953      0.00000     0.39900    0.00147     0.40047
      H   29    0.10176      0.00000     0.39670    0.00154     0.39824
      H   30    0.07784      0.00000     0.41962    0.00254     0.42216
      H   31    0.08088      0.00000     0.41741    0.00171     0.41912
      H   32    0.07983      0.00000     0.41794    0.00223     0.42017
      H   33    0.09297      0.00000     0.40555    0.00149     0.40703
      H   34    0.08997      0.00000     0.40833    0.00170     0.41003
      H   35    0.07953      0.00000     0.41916    0.00132     0.42047
      H   36    0.08766      0.00000     0.41132    0.00103     0.41234
 =======================================================================
   * Total *   -0.00000     12.99548    39.83582    0.16870    53.00000

 Normal termination of Gaussian 16 at Wed Dec  9 23:19:36 2020.
